<event>
 8    1  0.1119901E+005  0.1043930E+01  0.7957747E-01            NaN
         13   -1    0    0    0    0  0.00000000000E+00  0.00000000000E+00  0.74505805969E-08  0.10566000000E+00  0.10566000000E+00 0. -1.
     999900   -1    0    0    0    0 -0.00000000000E+00 -0.00000000000E+00 -0.74505805969E-08  0.93827000000E+00  0.93827000000E+00 0. -1.
     999902    2    1    2    0    0  0.23466158910E-01  0.46557574716E-02  0.21025867092E-02  0.10199142226E+01  0.10196314354E+01 0.  0.
     999903    2    3    3    0    0  0.23620827254E-01  0.12748916130E+00 -0.63116664350E-02  0.13134297131E+00  0.19992729937E-01 0.  0.
         14    1    1    2    0    0 -0.23466158910E-01 -0.46557574716E-02 -0.21025867092E-02  0.24015777366E-01  0.00000000000E+00 0.  1.
     999901    1    3    3    0    0 -0.15466834368E-03 -0.12283340383E+00  0.84142531442E-02  0.88857125132E+00  0.88000000000E+00 0.  1.
        -11    1    4    4    0    0  0.98959927439E-02  0.72039555205E-01 -0.12850970422E-01  0.73844679891E-01  0.51100000000E-03 0.  1.
         11    1    4    4    0    0  0.13724834510E-01  0.55449606098E-01  0.65393039875E-02  0.57498291421E-01  0.51100000000E-03 0. -1.
</event>
<event>
 8    1  0.1119901E+005  0.1043930E+01  0.7957747E-01            NaN
         13   -1    0    0    0    0  0.00000000000E+00  0.00000000000E+00  0.74505805969E-08  0.10566000000E+00  0.10566000000E+00 0.  1.
     999900   -1    0    0    0    0 -0.00000000000E+00 -0.00000000000E+00 -0.74505805969E-08  0.93827000000E+00  0.93827000000E+00 0. -1.
     999902    2    1    2    0    0  0.35287289834E-02  0.12139313981E-01 -0.18876424250E-01  0.10212114115E+01  0.10209586733E+01 0.  0.
     999903    2    3    3    0    0  0.70316492802E-02 -0.21798261292E-01  0.12545023255E+00  0.12880219294E+00  0.18100711880E-01 0.  0.
         14    1    1    2    0    0 -0.35287289834E-02 -0.12139313981E-01  0.18876424250E-01  0.22718588526E-01  0.00000000000E+00 0.  1.
     999901    1    3    3    0    0 -0.35029202968E-02  0.33937575273E-01 -0.14432665680E+00  0.89240921854E+00  0.88000000000E+00 0. -1.
        -11    1    4    4    0    0  0.93380182249E-02 -0.15319284514E-01  0.51633969799E-01  0.54664495064E-01  0.51100000000E-03 0.  1.
         11    1    4    4    0    0 -0.23063689447E-02 -0.64789767783E-02  0.73816262754E-01  0.74137697872E-01  0.51100000000E-03 0. -1.
</event>
<event>
 8    1  0.1119901E+005  0.1043930E+01  0.7957747E-01            NaN
         13   -1    0    0    0    0  0.00000000000E+00  0.00000000000E+00  0.74505805969E-08  0.10566000000E+00  0.10566000000E+00 0.  1.
     999900   -1    0    0    0    0 -0.00000000000E+00 -0.00000000000E+00 -0.74505805969E-08  0.93827000000E+00  0.93827000000E+00 0.  1.
     999902    2    1    2    0    0 -0.15202222878E-01  0.87764813617E-02  0.16110424388E-01  0.10201039643E+01  0.10198256802E+01 0.  0.
     999903    2    3    3    0    0  0.50751160342E-01  0.55053762454E-01 -0.10251392110E+00  0.12849689225E+00  0.19893472843E-01 0.  0.
         14    1    1    2    0    0  0.15202222878E-01 -0.87764813617E-02 -0.16110424388E-01  0.23826035749E-01  0.00000000000E+00 0.  1.
     999901    1    3    3    0    0 -0.65953383220E-01 -0.46277281092E-01  0.11862434549E+00  0.89160707200E+00  0.88000000000E+00 0. -1.
        -11    1    4    4    0    0  0.28572998619E-01  0.44534800221E-01 -0.70877208015E-01  0.88451141416E-01  0.51100000000E-03 0. -1.
         11    1    4    4    0    0  0.22178161723E-01  0.10518962232E-01 -0.31636713085E-01  0.40045750832E-01  0.51100000000E-03 0.  1.
</event>
<event>
 8    1  0.1119901E+005  0.1043930E+01  0.7957747E-01            NaN
         13   -1    0    0    0    0  0.00000000000E+00  0.00000000000E+00  0.74505805969E-08  0.10566000000E+00  0.10566000000E+00 0. -1.
     999900   -1    0    0    0    0 -0.00000000000E+00 -0.00000000000E+00 -0.74505805969E-08  0.93827000000E+00  0.93827000000E+00 0.  1.
     999902    2    1    2    0    0 -0.78773742550E-02  0.20497007859E-01  0.95609805493E-02  0.10199802045E+01  0.10196989874E+01 0.  0.
     999903    2    3    3    0    0  0.88796745797E-01  0.70685042272E-01  0.63500941193E-01  0.13162540845E+00  0.20288946519E-01 0.  0.
         14    1    1    2    0    0  0.78773742550E-02 -0.20497007859E-01 -0.95609805493E-02  0.23949795518E-01  0.00000000000E+00 0. -1.
     999901    1    3    3    0    0 -0.96674120052E-01 -0.50188034414E-01 -0.53939960644E-01  0.88835479604E+00  0.88000000000E+00 0. -1.
        -11    1    4    4    0    0  0.19875942140E-01  0.25408961825E-01  0.23865819236E-01  0.40131120913E-01  0.51100000000E-03 0.  1.
         11    1    4    4    0    0  0.68920803657E-01  0.45276080448E-01  0.39635121957E-01  0.91494287532E-01  0.51100000000E-03 0. -1.
</event>
<event>
 8    1  0.1119901E+005  0.1043930E+01  0.7957747E-01            NaN
         13   -1    0    0    0    0  0.00000000000E+00  0.00000000000E+00  0.74505805969E-08  0.10566000000E+00  0.10566000000E+00 0.  1.
     999900   -1    0    0    0    0 -0.00000000000E+00 -0.00000000000E+00 -0.74505805969E-08  0.93827000000E+00  0.93827000000E+00 0. -1.
     999902    2    1    2    0    0 -0.22817112025E-01 -0.59675905876E-02  0.12483796086E-02  0.10203123966E+01  0.10200390166E+01 0.  0.
     999903    2    3    3    0    0 -0.94739249826E-01 -0.53285635499E-01  0.74176958056E-01  0.13310871715E+00  0.20020616040E-01 0.  0.
         14    1    1    2    0    0  0.22817112025E-01  0.59675905876E-02 -0.12483796086E-02  0.23617603398E-01  0.00000000000E+00 0.  1.
     999901    1    3    3    0    0  0.71922137801E-01  0.47318044911E-01 -0.72928578448E-01  0.88720367945E+00  0.88000000000E+00 0. -1.
        -11    1    4    4    0    0 -0.56510135895E-01 -0.41342567519E-01  0.52876422933E-01  0.87742695258E-01  0.51100000000E-03 0. -1.
         11    1    4    4    0    0 -0.38229113931E-01 -0.11943067979E-01  0.21300535123E-01  0.45366021891E-01  0.51100000000E-03 0.  1.
</event>
<event>
 8    1  0.1119901E+005  0.1043930E+01  0.7957747E-01            NaN
         13   -1    0    0    0    0  0.00000000000E+00  0.00000000000E+00  0.74505805969E-08  0.10566000000E+00  0.10566000000E+00 0. -1.
     999900   -1    0    0    0    0 -0.00000000000E+00 -0.00000000000E+00 -0.74505805969E-08  0.93827000000E+00  0.93827000000E+00 0. -1.
     999902    2    1    2    0    0  0.98466751263E-02 -0.29850508323E-02 -0.19899736283E-01  0.10215276108E+01  0.10212819359E+01 0.  0.
     999903    2    3    3    0    0 -0.42709354683E-01 -0.12176131028E+00 -0.19320948496E-01  0.13199387274E+00  0.19979432752E-01 0.  0.
         14    1    1    2    0    0 -0.98466751263E-02  0.29850508323E-02  0.19899736283E-01  0.22402389239E-01  0.00000000000E+00 0. -1.
     999901    1    3    3    0    0  0.52556029809E-01  0.11877625944E+00 -0.57878778681E-03  0.88953373802E+00  0.88000000000E+00 0.  1.
        -11    1    4    4    0    0 -0.34440682637E-01 -0.86324099641E-01 -0.56353762917E-02  0.93112992576E-01  0.51100000000E-03 0.  1.
         11    1    4    4    0    0 -0.82686720456E-02 -0.35437210635E-01 -0.13685572204E-01  0.38880880167E-01  0.51100000000E-03 0. -1.
</event>
<event>
 8    1  0.1119901E+005  0.1043930E+01  0.7957747E-01            NaN
         13   -1    0    0    0    0  0.00000000000E+00  0.00000000000E+00  0.74505805969E-08  0.10566000000E+00  0.10566000000E+00 0.  1.
     999900   -1    0    0    0    0 -0.00000000000E+00 -0.00000000000E+00 -0.74505805969E-08  0.93827000000E+00  0.93827000000E+00 0.  1.
     999902    2    1    2    0    0 -0.13396580759E-01 -0.19105631034E-01  0.48039161934E-02  0.10201062487E+01  0.10198280186E+01 0.  0.
     999903    2    3    3    0    0  0.33979714820E-01  0.12142147422E+00 -0.42030567320E-03  0.12768276564E+00  0.20122538680E-01 0.  0.
         14    1    1    2    0    0  0.13396580759E-01  0.19105631034E-01 -0.48039161934E-02  0.23823751259E-01  0.00000000000E+00 0. -1.
     999901    1    3    3    0    0 -0.47376295579E-01 -0.14052710526E+00  0.52242218666E-02  0.89242348310E+00  0.88000000000E+00 0.  1.
        -11    1    4    4    0    0  0.22455158748E-01  0.10001549461E+00 -0.61825979234E-02  0.10269283789E+00  0.51100000000E-03 0. -1.
         11    1    4    4    0    0  0.11524556071E-01  0.21405979616E-01  0.57622922502E-02  0.24989927750E-01  0.51100000000E-03 0.  1.
</event>
<event>
 8    1  0.1119901E+005  0.1043930E+01  0.7957747E-01            NaN
         13   -1    0    0    0    0  0.00000000000E+00  0.00000000000E+00  0.74505805969E-08  0.10566000000E+00  0.10566000000E+00 0. -1.
     999900   -1    0    0    0    0 -0.00000000000E+00 -0.00000000000E+00 -0.74505805969E-08  0.93827000000E+00  0.93827000000E+00 0.  1.
     999902    2    1    2    0    0  0.33190740723E-02  0.21061264334E-01 -0.10619983774E-01  0.10201103198E+01  0.10198321859E+01 0.  0.
     999903    2    3    3    0    0  0.46669517400E-01 -0.26472027020E-01 -0.11842100557E+00  0.13120102467E+00  0.17645459638E-01 0.  0.
         14    1    1    2    0    0 -0.33190740723E-02 -0.21061264334E-01  0.10619983774E-01  0.23819680170E-01  0.00000000000E+00 0. -1.
     999901    1    3    3    0    0 -0.43350443327E-01  0.47533291355E-01  0.10780102179E+00  0.88890929516E+00  0.88000000000E+00 0. -1.
        -11    1    4    4    0    0  0.19021729950E-01 -0.20900828844E-01 -0.58159754251E-01  0.64664433749E-01  0.51100000000E-03 0. -1.
         11    1    4    4    0    0  0.27647787450E-01 -0.55711981765E-02 -0.60261251316E-01  0.66536590920E-01  0.51100000000E-03 0.  1.
</event>
<event>
 8    1  0.1119901E+005  0.1043930E+01  0.7957747E-01            NaN
         13   -1    0    0    0    0  0.00000000000E+00  0.00000000000E+00  0.74505805969E-08  0.10566000000E+00  0.10566000000E+00 0. -1.
     999900   -1    0    0    0    0 -0.00000000000E+00 -0.00000000000E+00 -0.74505805969E-08  0.93827000000E+00  0.93827000000E+00 0.  1.
     999902    2    1    2    0    0 -0.14421312646E-01 -0.93152731565E-02  0.17510404246E-01  0.10194072997E+01  0.10191122999E+01 0.  0.
     999903    2    3    3    0    0  0.12525198927E+00 -0.64889302761E-02  0.18714794374E-01  0.12838649747E+00  0.20066942240E-01 0.  0.
         14    1    1    2    0    0  0.14421312646E-01  0.93152731565E-02 -0.17510404246E-01  0.24522700286E-01  0.00000000000E+00 0.  1.
     999901    1    3    3    0    0 -0.13967330192E+00 -0.28263428805E-02 -0.12043901274E-02  0.89102080225E+00  0.88000000000E+00 0. -1.
        -11    1    4    4    0    0  0.41546632938E-01  0.72038693891E-02  0.49915770114E-02  0.42464048379E-01  0.51100000000E-03 0.  1.
         11    1    4    4    0    0  0.83705356333E-01 -0.13692799665E-01  0.13723217362E-01  0.85922449088E-01  0.51100000000E-03 0. -1.
</event>
<event>
 8    1  0.1119901E+005  0.1043930E+01  0.7957747E-01            NaN
         13   -1    0    0    0    0  0.00000000000E+00  0.00000000000E+00  0.74505805969E-08  0.10566000000E+00  0.10566000000E+00 0. -1.
     999900   -1    0    0    0    0 -0.00000000000E+00 -0.00000000000E+00 -0.74505805969E-08  0.93827000000E+00  0.93827000000E+00 0. -1.
     999902    2    1    2    0    0  0.29451410745E-02 -0.29508263851E-01  0.10816950515E-01  0.10123639120E+01  0.10118716680E+01 0.  0.
     999903    2    3    3    0    0 -0.64789705887E-02  0.44147010931E-02 -0.12012148690E+00  0.12197946931E+00  0.19706665707E-01 0.  0.
         14    1    1    2    0    0 -0.29451410745E-02  0.29508263851E-01 -0.10816950515E-01  0.31566087973E-01  0.00000000000E+00 0. -1.
     999901    1    3    3    0    0  0.94241116633E-02 -0.33922964944E-01  0.13093843742E+00  0.89038444271E+00  0.88000000000E+00 0.  1.
        -11    1    4    4    0    0 -0.98536659708E-02 -0.31221571406E-02 -0.94267642229E-01  0.94834023909E-01  0.51100000000E-03 0. -1.
         11    1    4    4    0    0  0.33746953820E-02  0.75368582337E-02 -0.25853844672E-01  0.27145445406E-01  0.51100000000E-03 0.  1.
</event>
<event>
 8    1  0.1119901E+005  0.1043930E+01  0.7957747E-01            NaN
         13   -1    0    0    0    0  0.00000000000E+00  0.00000000000E+00  0.74505805969E-08  0.10566000000E+00  0.10566000000E+00 0.  1.
     999900   -1    0    0    0    0 -0.00000000000E+00 -0.00000000000E+00 -0.74505805969E-08  0.93827000000E+00  0.93827000000E+00 0.  1.
     999902    2    1    2    0    0 -0.17458592600E-01 -0.10264234821E-01  0.11566354397E-01  0.10206075317E+01  0.10203410196E+01 0.  0.
     999903    2    3    3    0    0 -0.42110948504E-02  0.38741561866E-01  0.12435114063E+00  0.13195829142E+00  0.20763972681E-01 0.  0.
         14    1    1    2    0    0  0.17458592600E-01  0.10264234821E-01 -0.11566354397E-01  0.23322468268E-01  0.00000000000E+00 0. -1.
     999901    1    3    3    0    0 -0.13247497750E-01 -0.49005796687E-01 -0.11278478624E+00  0.88864924031E+00  0.88000000000E+00 0.  1.
        -11    1    4    4    0    0  0.78552663412E-02  0.20363517366E-01  0.70042704368E-01  0.73366338365E-01  0.51100000000E-03 0. -1.
         11    1    4    4    0    0 -0.12066361192E-01  0.18378044501E-01  0.54308436265E-01  0.58591953053E-01  0.51100000000E-03 0.  1.
</event>
<event>
 8    1  0.1119901E+005  0.1043930E+01  0.7957747E-01            NaN
         13   -1    0    0    0    0  0.00000000000E+00  0.00000000000E+00  0.74505805969E-08  0.10566000000E+00  0.10566000000E+00 0.  1.
     999900   -1    0    0    0    0 -0.00000000000E+00 -0.00000000000E+00 -0.74505805969E-08  0.93827000000E+00  0.93827000000E+00 0.  1.
     999902    2    1    2    0    0  0.20564910749E-01 -0.28680501434E-02  0.11162991948E-01  0.10203555720E+01  0.10200832023E+01 0.  0.
     999903    2    3    3    0    0  0.20978288164E-01 -0.11366640533E+00  0.60719936108E-01  0.13202436289E+00  0.19580129736E-01 0.  0.
         14    1    1    2    0    0 -0.20564910749E-01  0.28680501434E-02 -0.11162991948E-01  0.23574427988E-01  0.00000000000E+00 0.  1.
     999901    1    3    3    0    0 -0.41337741446E-03  0.11079835518E+00 -0.49556944160E-01  0.88833120913E+00  0.88000000000E+00 0. -1.
        -11    1    4    4    0    0  0.28727088107E-02 -0.53302759332E-01  0.35684732436E-01  0.64211353033E-01  0.51100000000E-03 0. -1.
         11    1    4    4    0    0  0.18105579353E-01 -0.60363645994E-01  0.25035203672E-01  0.67813009853E-01  0.51100000000E-03 0.  1.
</event>
<event>
 8    1  0.1119901E+005  0.1043930E+01  0.7957747E-01            NaN
         13   -1    0    0    0    0  0.00000000000E+00  0.00000000000E+00  0.74505805969E-08  0.10566000000E+00  0.10566000000E+00 0.  1.
     999900   -1    0    0    0    0 -0.00000000000E+00 -0.00000000000E+00 -0.74505805969E-08  0.93827000000E+00  0.93827000000E+00 0.  1.
     999902    2    1    2    0    0 -0.22741529206E-01 -0.17834927029E-02 -0.35322263600E-02  0.10208467892E+01  0.10205857791E+01 0.  0.
     999903    2    3    3    0    0  0.54123575365E-01 -0.77431799171E-01 -0.86436526640E-01  0.13039519953E+00  0.24629047692E-01 0.  0.
         14    1    1    2    0    0  0.22741529206E-01  0.17834927029E-02  0.35322263600E-02  0.23083210780E-01  0.00000000000E+00 0. -1.
     999901    1    3    3    0    0 -0.76865104571E-01  0.75648306468E-01  0.82904300280E-01  0.89045158969E+00  0.88000000000E+00 0.  1.
        -11    1    4    4    0    0  0.29089914142E-01 -0.22279534317E-01 -0.26849927940E-01  0.45428851026E-01  0.51100000000E-03 0. -1.
         11    1    4    4    0    0  0.25033661223E-01 -0.55152264854E-01 -0.59586598700E-01  0.84966348506E-01  0.51100000000E-03 0.  1.
</event>
<event>
 8    1  0.1119901E+005  0.1043930E+01  0.7957747E-01            NaN
         13   -1    0    0    0    0  0.00000000000E+00  0.00000000000E+00  0.74505805969E-08  0.10566000000E+00  0.10566000000E+00 0.  1.
     999900   -1    0    0    0    0 -0.00000000000E+00 -0.00000000000E+00 -0.74505805969E-08  0.93827000000E+00  0.93827000000E+00 0. -1.
     999902    2    1    2    0    0  0.22689293938E-01 -0.35092795957E-03 -0.18491123546E-02  0.10211627774E+01  0.10209089438E+01 0.  0.
     999903    2    3    3    0    0 -0.12330202359E-01 -0.45594480584E-01 -0.12093479578E+00  0.13130057221E+00  0.19588896914E-01 0.  0.
         14    1    1    2    0    0 -0.22689293938E-01  0.35092795957E-03  0.18491123546E-02  0.22767222632E-01  0.00000000000E+00 0.  1.
     999901    1    3    3    0    0  0.35019496298E-01  0.45243552625E-01  0.11908568342E+00  0.88986220516E+00  0.88000000000E+00 0. -1.
        -11    1    4    4    0    0 -0.12972726398E-01 -0.20516820402E-01 -0.76627644067E-01  0.80382140466E-01  0.51100000000E-03 0. -1.
         11    1    4    4    0    0  0.64252403815E-03 -0.25077660182E-01 -0.44307151712E-01  0.50918431743E-01  0.51100000000E-03 0.  1.
</event>
<event>
 8    1  0.1119901E+005  0.1043930E+01  0.7957747E-01            NaN
         13   -1    0    0    0    0  0.00000000000E+00  0.00000000000E+00  0.74505805969E-08  0.10566000000E+00  0.10566000000E+00 0.  1.
     999900   -1    0    0    0    0 -0.00000000000E+00 -0.00000000000E+00 -0.74505805969E-08  0.93827000000E+00  0.93827000000E+00 0. -1.
     999902    2    1    2    0    0 -0.14546351986E-01  0.68216805826E-02  0.17490029258E-01  0.10201806252E+01  0.10199041500E+01 0.  0.
     999903    2    3    3    0    0  0.71285444981E-01  0.75674632808E-01  0.78894401825E-01  0.13120462808E+00  0.13493075046E-01 0.  0.
         14    1    1    2    0    0  0.14546351986E-01 -0.68216805826E-02 -0.17490029258E-01  0.23749374845E-01  0.00000000000E+00 0.  1.
     999901    1    3    3    0    0 -0.85831796967E-01 -0.68852952226E-01 -0.61404372567E-01  0.88897599707E+00  0.88000000000E+00 0. -1.
        -11    1    4    4    0    0  0.17271750345E-01  0.24773351654E-01  0.17688409984E-01  0.35002475354E-01  0.51100000000E-03 0.  1.
         11    1    4    4    0    0  0.54013694636E-01  0.50901281154E-01  0.61205991841E-01  0.96202152729E-01  0.51100000000E-03 0. -1.
</event>
<event>
 7    1  0.1119901E+005  0.1043930E+01  0.7957747E-01            NaN
         13   -1    0    0    0    0  0.00000000000E+00  0.00000000000E+00  0.74505805969E-08  0.10566000000E+00  0.10566000000E+00 0.  1.
     999900   -1    0    0    0    0 -0.00000000000E+00 -0.00000000000E+00 -0.74505805969E-08  0.93827000000E+00  0.93827000000E+00 0.  1.
     999902    2    1    2    0    0 -0.88080652436E-02  0.21274474872E-01 -0.18951398612E-02  0.10208263888E+01  0.10205649118E+01 0.  0.
         14    1    1    2    0    0  0.88080652436E-02 -0.21274474872E-01  0.18951398612E-02  0.23103611179E-01  0.00000000000E+00 0. -1.
     999901    1    3    3    0    0 -0.85130219556E-01  0.11013409766E+00 -0.41491745156E-01  0.89190707961E+00  0.88000000000E+00 0. -1.
        -11    1    3    3    0    0  0.20547780631E-01 -0.46661149742E-01  0.27529548618E-01  0.57944899277E-01  0.51100000000E-03 0.  1.
         11    1    3    3    0    0  0.55774373681E-01 -0.42198473047E-01  0.12067056677E-01  0.70974409930E-01  0.51100000000E-03 0. -1.
</event>
<event>
 8    1  0.1119901E+005  0.1043930E+01  0.7957747E-01            NaN
         13   -1    0    0    0    0  0.00000000000E+00  0.00000000000E+00  0.74505805969E-08  0.10566000000E+00  0.10566000000E+00 0.  1.
     999900   -1    0    0    0    0 -0.00000000000E+00 -0.00000000000E+00 -0.74505805969E-08  0.93827000000E+00  0.93827000000E+00 0. -1.
     999902    2    1    2    0    0 -0.19007167881E-01  0.74511486681E-02  0.10937948230E-01  0.10207690251E+01  0.10205062331E+01 0.  0.
     999903    2    3    3    0    0 -0.58710626988E-01  0.11299506893E+00 -0.31220687646E-01  0.13257240589E+00  0.19644035818E-01 0.  0.
         14    1    1    2    0    0  0.19007167881E-01 -0.74511486681E-02 -0.10937948230E-01  0.23160974910E-01  0.00000000000E+00 0. -1.
     999901    1    3    3    0    0  0.39703459107E-01 -0.10554392026E+00  0.42158635876E-01  0.88819661919E+00  0.88000000000E+00 0.  1.
        -11    1    4    4    0    0 -0.39291619300E-01  0.79177051547E-01 -0.12362334409E-01  0.89252032313E-01  0.51100000000E-03 0. -1.
         11    1    4    4    0    0 -0.19419007688E-01  0.33818017386E-01 -0.18858353237E-01  0.43320373582E-01  0.51100000000E-03 0.  1.
</event>
<event>
 8    1  0.1119901E+005  0.1043930E+01  0.7957747E-01            NaN
         13   -1    0    0    0    0  0.00000000000E+00  0.00000000000E+00  0.74505805969E-08  0.10566000000E+00  0.10566000000E+00 0. -1.
     999900   -1    0    0    0    0 -0.00000000000E+00 -0.00000000000E+00 -0.74505805969E-08  0.93827000000E+00  0.93827000000E+00 0.  1.
     999902    2    1    2    0    0  0.16381713280E-01 -0.17341114471E-01 -0.40192490337E-02  0.10197384903E+01  0.10194514993E+01 0.  0.
     999903    2    3    3    0    0 -0.14252871244E-01  0.37300076088E-01 -0.12181111109E+00  0.12968284017E+00  0.19627843382E-01 0.  0.
         14    1    1    2    0    0 -0.16381713280E-01  0.17341114471E-01  0.40192490337E-02  0.24191509748E-01  0.00000000000E+00 0. -1.
     999901    1    3    3    0    0  0.30634584524E-01 -0.54641190559E-01  0.11779186205E+00  0.89005565008E+00  0.88000000000E+00 0. -1.
        -11    1    4    4    0    0 -0.63379279090E-02  0.91311573544E-02 -0.63200799261E-01  0.64172809764E-01  0.51100000000E-03 0. -1.
         11    1    4    4    0    0 -0.79149433346E-02  0.28168918734E-01 -0.58610311826E-01  0.65510030407E-01  0.51100000000E-03 0.  1.
</event>
<event>
 8    1  0.1119901E+005  0.1043930E+01  0.7957747E-01            NaN
         13   -1    0    0    0    0  0.00000000000E+00  0.00000000000E+00  0.74505805969E-08  0.10566000000E+00  0.10566000000E+00 0.  1.
     999900   -1    0    0    0    0 -0.00000000000E+00 -0.00000000000E+00 -0.74505805969E-08  0.93827000000E+00  0.93827000000E+00 0.  1.
     999902    2    1    2    0    0 -0.12110812948E-01 -0.20328470721E-01 -0.12190712064E-02  0.10202360209E+01  0.10199608491E+01 0.  0.
     999903    2    3    3    0    0 -0.39732831408E-01 -0.12158376018E+00  0.32001655662E-01  0.13337682899E+00  0.20098853563E-01 0.  0.
         14    1    1    2    0    0  0.12110812948E-01  0.20328470721E-01  0.12190712064E-02  0.23693979124E-01  0.00000000000E+00 0. -1.
     999901    1    3    3    0    0  0.27622018460E-01  0.10125528946E+00 -0.33220726869E-01  0.88685919189E+00  0.88000000000E+00 0.  1.
        -11    1    4    4    0    0 -0.15420451041E-01 -0.26130699007E-01  0.20193837875E-02  0.30412871827E-01  0.51100000000E-03 0.  1.
         11    1    4    4    0    0 -0.24312380367E-01 -0.95453061171E-01  0.29982271875E-01  0.10296395716E+00  0.51100000000E-03 0. -1.
</event>
<event>
 8    1  0.1119901E+005  0.1043930E+01  0.7957747E-01            NaN
         13   -1    0    0    0    0  0.00000000000E+00  0.00000000000E+00  0.74505805969E-08  0.10566000000E+00  0.10566000000E+00 0. -1.
     999900   -1    0    0    0    0 -0.00000000000E+00 -0.00000000000E+00 -0.74505805969E-08  0.93827000000E+00  0.93827000000E+00 0.  1.
     999902    2    1    2    0    0  0.11463251192E-01  0.36289931564E-02 -0.19697475246E-01  0.10208526030E+01  0.10205917259E+01 0.  0.
     999903    2    3    3    0    0 -0.99316192491E-01  0.52086169341E-01 -0.65537393482E-01  0.13140250260E+00  0.19869388992E-01 0.  0.
         14    1    1    2    0    0 -0.11463251192E-01 -0.36289931564E-02  0.19697475246E-01  0.23077396957E-01  0.00000000000E+00 0. -1.
     999901    1    3    3    0    0  0.11077944368E+00 -0.48457176184E-01  0.45839918236E-01  0.88945010044E+00  0.88000000000E+00 0. -1.
        -11    1    4    4    0    0 -0.70656181541E-01  0.38414270945E-01 -0.56812701397E-01  0.98467742755E-01  0.51100000000E-03 0.  1.
         11    1    4    4    0    0 -0.28660010950E-01  0.13671898396E-01 -0.87246920843E-02  0.32934759850E-01  0.51100000000E-03 0. -1.
</event>
<event>
 8    1  0.1119901E+005  0.1043930E+01  0.7957747E-01            NaN
         13   -1    0    0    0    0  0.00000000000E+00  0.00000000000E+00  0.74505805969E-08  0.10566000000E+00  0.10566000000E+00 0.  1.
     999900   -1    0    0    0    0 -0.00000000000E+00 -0.00000000000E+00 -0.74505805969E-08  0.93827000000E+00  0.93827000000E+00 0.  1.
     999902    2    1    2    0    0 -0.44056260926E-02  0.22960869584E-01 -0.55908643053E-02  0.10198910974E+01  0.10196077588E+01 0.  0.
     999903    2    3    3    0    0 -0.13119517909E-01  0.20061149016E-01  0.12623708988E+00  0.13002428166E+00  0.19898228820E-01 0.  0.
         14    1    1    2    0    0  0.44056260926E-02 -0.22960869584E-01  0.55908643053E-02  0.24038902574E-01  0.00000000000E+00 0. -1.
     999901    1    3    3    0    0  0.87138918163E-02  0.28997205674E-02 -0.13182795419E+00  0.88986681576E+00  0.88000000000E+00 0.  1.
        -11    1    4    4    0    0 -0.14919645686E-01  0.18226580840E-01  0.72681517510E-01  0.76404634579E-01  0.51100000000E-03 0.  1.
         11    1    4    4    0    0  0.18001277767E-02  0.18345681757E-02  0.53555572372E-01  0.53619647084E-01  0.51100000000E-03 0. -1.
</event>
<event>
 8    1  0.1119901E+005  0.1043930E+01  0.7957747E-01            NaN
         13   -1    0    0    0    0  0.00000000000E+00  0.00000000000E+00  0.74505805969E-08  0.10566000000E+00  0.10566000000E+00 0.  1.
     999900   -1    0    0    0    0 -0.00000000000E+00 -0.00000000000E+00 -0.74505805969E-08  0.93827000000E+00  0.93827000000E+00 0.  1.
     999902    2    1    2    0    0 -0.21908256497E-01  0.54570681780E-02  0.52747169839E-02  0.10207443593E+01  0.10204810008E+01 0.  0.
     999903    2    3    3    0    0 -0.76989278757E-01  0.39976730483E-01 -0.97817437201E-01  0.13234494554E+00  0.20529139429E-01 0.  0.
         14    1    1    2    0    0  0.21908256497E-01 -0.54570681780E-02 -0.52747169839E-02  0.23185640709E-01  0.00000000000E+00 0. -1.
     999901    1    3    3    0    0  0.55081022260E-01 -0.34519662305E-01  0.10309215419E+00  0.88839941375E+00  0.88000000000E+00 0. -1.
        -11    1    4    4    0    0 -0.72536401165E-01  0.33270082271E-01 -0.94324009996E-01  0.12355447321E+00  0.51100000000E-03 0. -1.
         11    1    4    4    0    0 -0.44528775918E-02  0.67066482117E-02 -0.34934272052E-02  0.87904723264E-02  0.51100000000E-03 0.  1.
</event>
<event>
 8    1  0.1119901E+005  0.1043930E+01  0.7957747E-01            NaN
         13   -1    0    0    0    0  0.00000000000E+00  0.00000000000E+00  0.74505805969E-08  0.10566000000E+00  0.10566000000E+00 0.  1.
     999900   -1    0    0    0    0 -0.00000000000E+00 -0.00000000000E+00 -0.74505805969E-08  0.93827000000E+00  0.93827000000E+00 0.  1.
     999902    2    1    2    0    0  0.13565982101E-01  0.16482835857E-01 -0.10014402828E-01  0.10203501779E+01  0.10200776821E+01 0.  0.
     999903    2    3    3    0    0  0.27596644262E-03 -0.12623760584E+00 -0.13490457342E-01  0.12874609983E+00  0.21390570260E-01 0.  0.
         14    1    1    2    0    0 -0.13565982101E-01 -0.16482835857E-01  0.10014402828E-01  0.23579822142E-01  0.00000000000E+00 0.  1.
     999901    1    3    3    0    0  0.13290015658E-01  0.14272044170E+00  0.34760545139E-02  0.89160407802E+00  0.88000000000E+00 0. -1.
        -11    1    4    4    0    0 -0.94679901774E-02 -0.35911248829E-01 -0.23916551229E-02  0.37218836168E-01  0.51100000000E-03 0.  1.
         11    1    4    4    0    0  0.97439566201E-02 -0.90326357016E-01 -0.11098802219E-01  0.91527263665E-01  0.51100000000E-03 0. -1.
</event>
<event>
 8    1  0.1119901E+005  0.1043930E+01  0.7957747E-01            NaN
         13   -1    0    0    0    0  0.00000000000E+00  0.00000000000E+00  0.74505805969E-08  0.10566000000E+00  0.10566000000E+00 0. -1.
     999900   -1    0    0    0    0 -0.00000000000E+00 -0.00000000000E+00 -0.74505805969E-08  0.93827000000E+00  0.93827000000E+00 0. -1.
     999902    2    1    2    0    0 -0.94337020051E-02 -0.21376814374E-01 -0.46765293180E-02  0.10201007564E+01  0.10198223964E+01 0.  0.
     999903    2    3    3    0    0 -0.78345164758E-02 -0.51121015113E-01  0.11857688753E+00  0.13101207707E+00  0.20711065824E-01 0.  0.
         14    1    1    2    0    0  0.94337020051E-02  0.21376814374E-01  0.46765293180E-02  0.23829243646E-01  0.00000000000E+00 0.  1.
     999901    1    3    3    0    0 -0.15991855294E-02  0.29744200739E-01 -0.12325341684E+00  0.88908867929E+00  0.88000000000E+00 0. -1.
        -11    1    4    4    0    0 -0.10349938028E-01 -0.51384017617E-01  0.11631465256E+00  0.12758055496E+00  0.51100000000E-03 0.  1.
         11    1    4    4    0    0  0.25154215527E-02  0.26300250423E-03  0.22622349651E-02  0.34315221029E-02  0.51100000000E-03 0. -1.
</event>
<event>
 8    1  0.1119901E+005  0.1043930E+01  0.7957747E-01            NaN
         13   -1    0    0    0    0  0.00000000000E+00  0.00000000000E+00  0.74505805969E-08  0.10566000000E+00  0.10566000000E+00 0.  1.
     999900   -1    0    0    0    0 -0.00000000000E+00 -0.00000000000E+00 -0.74505805969E-08  0.93827000000E+00  0.93827000000E+00 0.  1.
     999902    2    1    2    0    0  0.79500680646E-02  0.15859447017E-01 -0.16586042531E-01  0.10196437395E+01  0.10193544688E+01 0.  0.
     999903    2    3    3    0    0  0.11150901615E+00  0.67445694037E-01 -0.60830732670E-02  0.13200873064E+00  0.20152390834E-01 0.  0.
         14    1    1    2    0    0 -0.79500680646E-02 -0.15859447017E-01  0.16586042531E-01  0.24286260493E-01  0.00000000000E+00 0.  1.
     999901    1    3    3    0    0 -0.10355894809E+00 -0.51586247021E-01 -0.10502969264E-01  0.88763500887E+00  0.88000000000E+00 0. -1.
        -11    1    4    4    0    0  0.70869128355E-01  0.45056466051E-01 -0.13368965407E-01  0.85038278698E-01  0.51100000000E-03 0. -1.
         11    1    4    4    0    0  0.40639887797E-01  0.22389227986E-01  0.72858921404E-02  0.46970451938E-01  0.51100000000E-03 0.  1.
</event>
<event>
 8    1  0.1119901E+005  0.1043930E+01  0.7957747E-01            NaN
         13   -1    0    0    0    0  0.00000000000E+00  0.00000000000E+00  0.74505805969E-08  0.10566000000E+00  0.10566000000E+00 0. -1.
     999900   -1    0    0    0    0 -0.00000000000E+00 -0.00000000000E+00 -0.74505805969E-08  0.93827000000E+00  0.93827000000E+00 0.  1.
     999902    2    1    2    0    0 -0.17995373461E-02  0.21544935399E-01  0.10399075633E-01  0.10199390986E+01  0.10196569038E+01 0.  0.
     999903    2    3    3    0    0  0.60974901052E-01 -0.60543953316E-01  0.95043756515E-01  0.12985823836E+00  0.21126702897E-01 0.  0.
         14    1    1    2    0    0  0.17995373461E-02 -0.21544935399E-01 -0.10399075633E-01  0.23990901401E-01  0.00000000000E+00 0. -1.
     999901    1    3    3    0    0 -0.62774438398E-01  0.82088888716E-01 -0.84644680881E-01  0.89008086024E+00  0.88000000000E+00 0.  1.
        -11    1    4    4    0    0  0.12086409009E-01 -0.14727075092E-01  0.97925715055E-02  0.21427169696E-01  0.51100000000E-03 0.  1.
         11    1    4    4    0    0  0.48888492043E-01 -0.45816878224E-01  0.85251185009E-01  0.10843106866E+00  0.51100000000E-03 0. -1.
</event>
<event>
 8    1  0.1119901E+005  0.1043930E+01  0.7957747E-01            NaN
         13   -1    0    0    0    0  0.00000000000E+00  0.00000000000E+00  0.74505805969E-08  0.10566000000E+00  0.10566000000E+00 0. -1.
     999900   -1    0    0    0    0 -0.00000000000E+00 -0.00000000000E+00 -0.74505805969E-08  0.93827000000E+00  0.93827000000E+00 0. -1.
     999902    2    1    2    0    0  0.19325937565E-01  0.44451883160E-02  0.12323148381E-01  0.10205823760E+01  0.10203152820E+01 0.  0.
     999903    2    3    3    0    0  0.11781910832E-01 -0.12223030939E+00  0.41178993567E-01  0.13101155031E+00  0.19729542474E-01 0.  0.
         14    1    1    2    0    0 -0.19325937565E-01 -0.44451883160E-02 -0.12323148381E-01  0.23347624032E-01  0.00000000000E+00 0.  1.
     999901    1    3    3    0    0  0.75440267330E-02  0.12667549771E+00 -0.28855845185E-01  0.88957082566E+00  0.88000000000E+00 0. -1.
        -11    1    4    4    0    0 -0.12119129257E-02 -0.77849173877E-01  0.29940721288E-01  0.83418646108E-01  0.51100000000E-03 0.  1.
         11    1    4    4    0    0  0.12993823758E-01 -0.44381135517E-01  0.11238272279E-01  0.47592904202E-01  0.51100000000E-03 0. -1.
</event>
<event>
 8    1  0.1119901E+005  0.1043930E+01  0.7957747E-01            NaN
         13   -1    0    0    0    0  0.00000000000E+00  0.00000000000E+00  0.74505805969E-08  0.10566000000E+00  0.10566000000E+00 0. -1.
     999900   -1    0    0    0    0 -0.00000000000E+00 -0.00000000000E+00 -0.74505805969E-08  0.93827000000E+00  0.93827000000E+00 0. -1.
     999902    2    1    2    0    0  0.19249373928E-01  0.14236575490E-01  0.49459162997E-02  0.10194824937E+01  0.10191893221E+01 0.  0.
     999903    2    3    3    0    0  0.90144518771E-01  0.68788568687E-01 -0.65045680881E-01  0.13218273304E+00  0.19581441853E-01 0.  0.
         14    1    1    2    0    0 -0.19249373928E-01 -0.14236575490E-01 -0.49459162997E-02  0.24447506342E-01  0.00000000000E+00 0.  1.
     999901    1    3    3    0    0 -0.70895144843E-01 -0.54551993197E-01  0.69991597181E-01  0.88729976062E+00  0.88000000000E+00 0.  1.
        -11    1    4    4    0    0  0.54665713544E-01  0.31119080577E-01 -0.30069595742E-01  0.69722156610E-01  0.51100000000E-03 0.  1.
         11    1    4    4    0    0  0.35478805227E-01  0.37669488110E-01 -0.34976085139E-01  0.62460576426E-01  0.51100000000E-03 0. -1.
</event>
<event>
 8    1  0.1119901E+005  0.1043930E+01  0.7957747E-01            NaN
         13   -1    0    0    0    0  0.00000000000E+00  0.00000000000E+00  0.74505805969E-08  0.10566000000E+00  0.10566000000E+00 0. -1.
     999900   -1    0    0    0    0 -0.00000000000E+00 -0.00000000000E+00 -0.74505805969E-08  0.93827000000E+00  0.93827000000E+00 0.  1.
     999902    2    1    2    0    0 -0.16063203080E-02 -0.77525754358E-02 -0.22429629332E-01  0.10201440596E+01  0.10198667223E+01 0.  0.
     999903    2    3    3    0    0 -0.20389462857E-01 -0.74876719542E-01 -0.10664312913E+00  0.13338007139E+00  0.19880471001E-01 0.  0.
         14    1    1    2    0    0  0.16063203080E-02  0.77525754358E-02  0.22429629332E-01  0.23785940443E-01  0.00000000000E+00 0. -1.
     999901    1    3    3    0    0  0.18783142549E-01  0.67124144106E-01  0.84213499800E-01  0.88676398817E+00  0.88000000000E+00 0. -1.
        -11    1    4    4    0    0 -0.23882467892E-01 -0.62444932995E-01 -0.84617655381E-01  0.10784317620E+00  0.51100000000E-03 0.  1.
         11    1    4    4    0    0  0.34930050356E-02 -0.12431786547E-01 -0.22025473750E-01  0.25536895188E-01  0.51100000000E-03 0. -1.
</event>
<event>
 8    1  0.1119901E+005  0.1043930E+01  0.7957747E-01            NaN
         13   -1    0    0    0    0  0.00000000000E+00  0.00000000000E+00  0.74505805969E-08  0.10566000000E+00  0.10566000000E+00 0. -1.
     999900   -1    0    0    0    0 -0.00000000000E+00 -0.00000000000E+00 -0.74505805969E-08  0.93827000000E+00  0.93827000000E+00 0. -1.
     999902    2    1    2    0    0 -0.16358803105E-01  0.55973075352E-02  0.15932224969E-01  0.10204188094E+01  0.10201479160E+01 0.  0.
     999903    2    3    3    0    0 -0.33959248055E-01 -0.27294120862E-01 -0.12032194821E+00  0.12915183401E+00  0.17453522416E-01 0.  0.
         14    1    1    2    0    0  0.16358803105E-01 -0.55973075352E-02 -0.15932224969E-01  0.23511190594E-01  0.00000000000E+00 0.  1.
     999901    1    3    3    0    0  0.17600444949E-01  0.32891428397E-01  0.13625417318E+00  0.89126697540E+00  0.88000000000E+00 0.  1.
        -11    1    4    4    0    0 -0.11314182469E-02 -0.68338386773E-02 -0.31739096307E-01  0.32490195655E-01  0.51100000000E-03 0. -1.
         11    1    4    4    0    0 -0.32827829808E-01 -0.20460282185E-01 -0.88582851903E-01  0.96661638354E-01  0.51100000000E-03 0.  1.
</event>
<event>
 8    1  0.1119901E+005  0.1043930E+01  0.7957747E-01            NaN
         13   -1    0    0    0    0  0.00000000000E+00  0.00000000000E+00  0.74505805969E-08  0.10566000000E+00  0.10566000000E+00 0. -1.
     999900   -1    0    0    0    0 -0.00000000000E+00 -0.00000000000E+00 -0.74505805969E-08  0.93827000000E+00  0.93827000000E+00 0.  1.
     999902    2    1    2    0    0  0.84741703548E-02  0.20208532419E-01 -0.11033670596E-01  0.10193955705E+01  0.10191002850E+01 0.  0.
     999903    2    3    3    0    0 -0.12428342036E+00  0.14401592701E-01  0.23695705520E-01  0.12874163767E+00  0.18951209994E-01 0.  0.
         14    1    1    2    0    0 -0.84741703548E-02 -0.20208532419E-01  0.11033670596E-01  0.24534429534E-01  0.00000000000E+00 0.  1.
     999901    1    3    3    0    0  0.13275759072E+00  0.58069397181E-02 -0.34729376116E-01  0.89065393280E+00  0.88000000000E+00 0. -1.
        -11    1    4    4    0    0 -0.86735747058E-01  0.17174648731E-01  0.21647345025E-01  0.91032560353E-01  0.51100000000E-03 0. -1.
         11    1    4    4    0    0 -0.37547673304E-01 -0.27730560296E-02  0.20483604952E-02  0.37709077316E-01  0.51100000000E-03 0.  1.
</event>
<event>
 8    1  0.1119901E+005  0.1043930E+01  0.7957747E-01            NaN
         13   -1    0    0    0    0  0.00000000000E+00  0.00000000000E+00  0.74505805969E-08  0.10566000000E+00  0.10566000000E+00 0. -1.
     999900   -1    0    0    0    0 -0.00000000000E+00 -0.00000000000E+00 -0.74505805969E-08  0.93827000000E+00  0.93827000000E+00 0.  1.
     999902    2    1    2    0    0 -0.17371697546E-01  0.68298104945E-02 -0.14508807122E-01  0.10202883488E+01  0.10200144053E+01 0.  0.
     999903    2    3    3    0    0 -0.84888214391E-01 -0.78774430290E-01 -0.60756012256E-01  0.13235514745E+00  0.20375775360E-01 0.  0.
         14    1    1    2    0    0  0.17371697546E-01 -0.68298104945E-02  0.14508807122E-01  0.23641651193E-01  0.00000000000E+00 0. -1.
     999901    1    3    3    0    0  0.67516516844E-01  0.85604240784E-01  0.46247205134E-01  0.88793320136E+00  0.88000000000E+00 0. -1.
        -11    1    4    4    0    0 -0.19327634149E-01 -0.28085521559E-01 -0.11682245067E-01  0.36042890198E-01  0.51100000000E-03 0.  1.
         11    1    4    4    0    0 -0.65560580242E-01 -0.50688908731E-01 -0.49073767189E-01  0.96312257253E-01  0.51100000000E-03 0. -1.
</event>
<event>
 8    1  0.1119901E+005  0.1043930E+01  0.7957747E-01            NaN
         13   -1    0    0    0    0  0.00000000000E+00  0.00000000000E+00  0.74505805969E-08  0.10566000000E+00  0.10566000000E+00 0.  1.
     999900   -1    0    0    0    0 -0.00000000000E+00 -0.00000000000E+00 -0.74505805969E-08  0.93827000000E+00  0.93827000000E+00 0.  1.
     999902    2    1    2    0    0  0.22904444557E-01  0.16570011286E-02  0.10596263319E-01  0.10186388943E+01  0.10183248779E+01 0.  0.
     999903    2    3    3    0    0  0.70098905947E-01 -0.79895215899E-01  0.74542486328E-01  0.13130175386E+00  0.19658742619E-01 0.  0.
         14    1    1    2    0    0 -0.22904444557E-01 -0.16570011286E-02 -0.10596263319E-01  0.25291105740E-01  0.00000000000E+00 0.  1.
     999901    1    3    3    0    0 -0.47194461390E-01  0.81552217028E-01 -0.63946223009E-01  0.88733714040E+00  0.88000000000E+00 0.  1.
        -11    1    4    4    0    0  0.16156703674E-01 -0.11697391696E-01  0.22024274273E-01  0.29718644390E-01  0.51100000000E-03 0. -1.
         11    1    4    4    0    0  0.53942202274E-01 -0.68197824203E-01  0.52518212055E-01  0.10158310948E+00  0.51100000000E-03 0.  1.
</event>
<event>
 8    1  0.1119901E+005  0.1043930E+01  0.7957747E-01            NaN
         13   -1    0    0    0    0  0.00000000000E+00  0.00000000000E+00  0.74505805969E-08  0.10566000000E+00  0.10566000000E+00 0.  1.
     999900   -1    0    0    0    0 -0.00000000000E+00 -0.00000000000E+00 -0.74505805969E-08  0.93827000000E+00  0.93827000000E+00 0.  1.
     999902    2    1    2    0    0  0.16515427234E-01  0.13099558836E-01 -0.11645951481E-01  0.10198471022E+01  0.10195627131E+01 0.  0.
     999903    2    3    3    0    0  0.34137913983E-01 -0.27787496792E-01 -0.12281533191E+00  0.13173622262E+00  0.18256079807E-01 0.  0.
         14    1    1    2    0    0 -0.16515427234E-01 -0.13099558836E-01  0.11645951481E-01  0.24082897756E-01  0.00000000000E+00 0.  1.
     999901    1    3    3    0    0 -0.17622486749E-01  0.40887055628E-01  0.11116938043E+00  0.88811087962E+00  0.88000000000E+00 0. -1.
        -11    1    4    4    0    0  0.26092252069E-01 -0.10076596245E-01 -0.78532464675E-01  0.83366375349E-01  0.51100000000E-03 0.  1.
         11    1    4    4    0    0  0.80456619133E-02 -0.17710900547E-01 -0.44282867234E-01  0.48369847274E-01  0.51100000000E-03 0. -1.
</event>
<event>
 8    1  0.1119901E+005  0.1043930E+01  0.7957747E-01            NaN
         13   -1    0    0    0    0  0.00000000000E+00  0.00000000000E+00  0.74505805969E-08  0.10566000000E+00  0.10566000000E+00 0.  1.
     999900   -1    0    0    0    0 -0.00000000000E+00 -0.00000000000E+00 -0.74505805969E-08  0.93827000000E+00  0.93827000000E+00 0.  1.
     999902    2    1    2    0    0  0.13361972384E-01 -0.18533776425E-01  0.11509978506E-01  0.10183463572E+01  0.10180249410E+01 0.  0.
     999903    2    3    3    0    0  0.10495814113E+00  0.68550709242E-01  0.23675032544E-01  0.12923356664E+00  0.20625141276E-01 0.  0.
         14    1    1    2    0    0 -0.13361972384E-01  0.18533776425E-01 -0.11509978506E-01  0.25583642817E-01  0.00000000000E+00 0. -1.
     999901    1    3    3    0    0 -0.91596168747E-01 -0.87084485667E-01 -0.12165054038E-01  0.88911279055E+00  0.88000000000E+00 0.  1.
        -11    1    4    4    0    0  0.35086062460E-01  0.34681804259E-01  0.11136469467E-01  0.50578072312E-01  0.51100000000E-03 0. -1.
         11    1    4    4    0    0  0.69872078671E-01  0.33868904983E-01  0.12538563077E-01  0.78655494325E-01  0.51100000000E-03 0.  1.
</event>
<event>
 8    1  0.1119901E+005  0.1043930E+01  0.7957747E-01            NaN
         13   -1    0    0    0    0  0.00000000000E+00  0.00000000000E+00  0.74505805969E-08  0.10566000000E+00  0.10566000000E+00 0. -1.
     999900   -1    0    0    0    0 -0.00000000000E+00 -0.00000000000E+00 -0.74505805969E-08  0.93827000000E+00  0.93827000000E+00 0. -1.
     999902    2    1    2    0    0  0.32256134608E-02  0.11859703731E-01  0.19634529428E-01  0.10207659783E+01  0.10205031164E+01 0.  0.
     999903    2    3    3    0    0  0.33827524552E-02  0.12925846358E+00 -0.18771559836E-01  0.13213921685E+00  0.19728348887E-01 0.  0.
         14    1    1    2    0    0 -0.32256134608E-02 -0.11859703731E-01 -0.19634529428E-01  0.23164021685E-01  0.00000000000E+00 0. -1.
     999901    1    3    3    0    0 -0.15713899440E-03 -0.11739875984E+00  0.38406089264E-01  0.88862676147E+00  0.88000000000E+00 0. -1.
        -11    1    4    4    0    0 -0.57733541914E-02  0.19511180891E-01  0.37606950217E-03  0.20357316809E-01  0.51100000000E-03 0. -1.
         11    1    4    4    0    0  0.91561066467E-02  0.10974728269E+00 -0.19147629339E-01  0.11178190004E+00  0.51100000000E-03 0.  1.
</event>
<event>
 8    1  0.1119901E+005  0.1043930E+01  0.7957747E-01            NaN
         13   -1    0    0    0    0  0.00000000000E+00  0.00000000000E+00  0.74505805969E-08  0.10566000000E+00  0.10566000000E+00 0. -1.
     999900   -1    0    0    0    0 -0.00000000000E+00 -0.00000000000E+00 -0.74505805969E-08  0.93827000000E+00  0.93827000000E+00 0. -1.
     999902    2    1    2    0    0  0.33825414116E-02  0.62794477932E-02 -0.23137452442E-01  0.10197181278E+01  0.10194306476E+01 0.  0.
     999903    2    3    3    0    0  0.98148776122E-01  0.56602828187E-01  0.58859660772E-01  0.12941671341E+00  0.21146243867E-01 0.  0.
         14    1    1    2    0    0 -0.33825414116E-02 -0.62794477932E-02  0.23137452442E-01  0.24211872222E-01  0.00000000000E+00 0. -1.
     999901    1    3    3    0    0 -0.94766234711E-01 -0.50323380394E-01 -0.81997113214E-01  0.89030141437E+00  0.88000000000E+00 0.  1.
        -11    1    4    4    0    0  0.50525897218E-02 -0.13870667149E-02  0.48529988162E-02  0.71599815278E-02  0.51100000000E-03 0.  1.
         11    1    4    4    0    0  0.93096186401E-01  0.57989894902E-01  0.54006661956E-01  0.12225673188E+00  0.51100000000E-03 0. -1.
</event>
<event>
 8    1  0.1248882E+005  0.1043930E+01  0.7957747E-01            NaN
         13   -1    0    0    0    0  0.00000000000E+00  0.00000000000E+00  0.74505805969E-08  0.10566000000E+00  0.10566000000E+00 0. -1.
     999900   -1    0    0    0    0 -0.00000000000E+00 -0.00000000000E+00 -0.74505805969E-08  0.93827000000E+00  0.93827000000E+00 0.  1.
     999902    2    1    2    0    0  0.16980851419E-03 -0.20627801558E-02 -0.23463632662E-01  0.10203752562E+01  0.10201033465E+01 0.  0.
     999903    2    3    3    0    0  0.56796037490E-01  0.11579805690E+00 -0.10768905376E-01  0.13062312061E+00  0.17647959050E-01 0.  0.
         14    1    1    2    0    0 -0.16980851419E-03  0.20627801558E-02  0.23463632662E-01  0.23554743781E-01  0.00000000000E+00 0. -1.
     999901    1    3    3    0    0 -0.56626228976E-01 -0.11786083706E+00 -0.12694727286E-01  0.88975213561E+00  0.88000000000E+00 0. -1.
        -11    1    4    4    0    0  0.36050276651E-01  0.53695073135E-01 -0.65932314673E-02  0.65011653938E-01  0.51100000000E-03 0. -1.
         11    1    4    4    0    0  0.20745760839E-01  0.62102983764E-01 -0.41756739090E-02  0.65611466672E-01  0.51100000000E-03 0.  1.
</event>
<event>
 8    1  0.1119901E+005  0.1043930E+01  0.7957747E-01            NaN
         13   -1    0    0    0    0  0.00000000000E+00  0.00000000000E+00  0.74505805969E-08  0.10566000000E+00  0.10566000000E+00 0.  1.
     999900   -1    0    0    0    0 -0.00000000000E+00 -0.00000000000E+00 -0.74505805969E-08  0.93827000000E+00  0.93827000000E+00 0. -1.
     999902    2    1    2    0    0  0.13943923410E-01  0.17445716180E-01  0.31381325445E-02  0.10213770869E+01  0.10211280624E+01 0.  0.
     999903    2    3    3    0    0 -0.83625146145E-01 -0.23652473595E-01 -0.94168506891E-01  0.12970597791E+00  0.20083038656E-01 0.  0.
         14    1    1    2    0    0 -0.13943923410E-01 -0.17445716180E-01 -0.31381325445E-02  0.22552913092E-01  0.00000000000E+00 0. -1.
     999901    1    3    3    0    0  0.97569069555E-01  0.41098189774E-01  0.97306639435E-01  0.89167110899E+00  0.88000000000E+00 0. -1.
        -11    1    4    4    0    0 -0.32356417579E-01 -0.66723414499E-02 -0.22540821373E-01  0.39997595529E-01  0.51100000000E-03 0.  1.
         11    1    4    4    0    0 -0.51268728566E-01 -0.16980132145E-01 -0.71627685518E-01  0.89708382385E-01  0.51100000000E-03 0. -1.
</event>
<event>
 8    1  0.1119901E+005  0.1043930E+01  0.7957747E-01            NaN
         13   -1    0    0    0    0  0.00000000000E+00  0.00000000000E+00  0.74505805969E-08  0.10566000000E+00  0.10566000000E+00 0.  1.
     999900   -1    0    0    0    0 -0.00000000000E+00 -0.00000000000E+00 -0.74505805969E-08  0.93827000000E+00  0.93827000000E+00 0. -1.
     999902    2    1    2    0    0 -0.14802221598E-01  0.15245459394E-01  0.13697331046E-01  0.10186486497E+01  0.10183348785E+01 0.  0.
     999903    2    3    3    0    0  0.60564416631E-01 -0.83859856400E-01  0.68597078493E-01  0.12819035417E+00  0.32041904532E-01 0.  0.
         14    1    1    2    0    0  0.14802221598E-01 -0.15245459394E-01 -0.13697331046E-01  0.25281350323E-01  0.00000000000E+00 0.  1.
     999901    1    3    3    0    0 -0.75366638229E-01  0.99105315793E-01 -0.54899747446E-01  0.89045829551E+00  0.88000000000E+00 0.  1.
        -11    1    4    4    0    0  0.10216050941E-01 -0.38634445810E-01  0.32335266430E-01  0.51408352201E-01  0.51100000000E-03 0.  1.
         11    1    4    4    0    0  0.50348365689E-01 -0.45225410590E-01  0.36261812063E-01  0.76782001965E-01  0.51100000000E-03 0. -1.
</event>
<event>
 8    1  0.1119901E+005  0.1043930E+01  0.7957747E-01            NaN
         13   -1    0    0    0    0  0.00000000000E+00  0.00000000000E+00  0.74505805969E-08  0.10566000000E+00  0.10566000000E+00 0. -1.
     999900   -1    0    0    0    0 -0.00000000000E+00 -0.00000000000E+00 -0.74505805969E-08  0.93827000000E+00  0.93827000000E+00 0.  1.
     999902    2    1    2    0    0 -0.13461493386E-01 -0.91738787809E-02  0.18190262218E-01  0.10195116156E+01  0.10192191506E+01 0.  0.
     999903    2    3    3    0    0  0.60741002921E-01  0.95078731359E-01 -0.54935629538E-01  0.12725491869E+00  0.21129513596E-01 0.  0.
         14    1    1    2    0    0  0.13461493386E-01  0.91738787809E-02 -0.18190262218E-01  0.24418384378E-01  0.00000000000E+00 0.  1.
     999901    1    3    3    0    0 -0.74202496308E-01 -0.10425261014E+00  0.73125891756E-01  0.89225669693E+00  0.88000000000E+00 0. -1.
        -11    1    4    4    0    0  0.19637327386E-01  0.16075629256E-01 -0.16380231945E-01  0.30209660747E-01  0.51100000000E-03 0.  1.
         11    1    4    4    0    0  0.41103675536E-01  0.79003102102E-01 -0.38555397593E-01  0.97045257941E-01  0.51100000000E-03 0. -1.
</event>
<event>
 8    1  0.1119901E+005  0.1043930E+01  0.7957747E-01            NaN
         13   -1    0    0    0    0  0.00000000000E+00  0.00000000000E+00  0.74505805969E-08  0.10566000000E+00  0.10566000000E+00 0.  1.
     999900   -1    0    0    0    0 -0.00000000000E+00 -0.00000000000E+00 -0.74505805969E-08  0.93827000000E+00  0.93827000000E+00 0.  1.
     999902    2    1    2    0    0  0.14933716164E-01 -0.16646935109E-01 -0.95486976240E-02  0.10196130521E+01  0.10193230411E+01 0.  0.
     999903    2    3    3    0    0 -0.10180053284E+00  0.71748692506E-01 -0.16655386358E-01  0.12748571992E+00  0.21540276785E-01 0.  0.
         14    1    1    2    0    0 -0.14933716164E-01  0.16646935109E-01  0.95486976240E-02  0.24316947862E-01  0.00000000000E+00 0.  1.
     999901    1    3    3    0    0  0.11673424901E+00 -0.88395627616E-01  0.71066887338E-02  0.89212733222E+00  0.88000000000E+00 0.  1.
        -11    1    4    4    0    0 -0.90633285560E-01  0.62775282984E-01 -0.75634279608E-02  0.11051061111E+00  0.51100000000E-03 0. -1.
         11    1    4    4    0    0 -0.11167247285E-01  0.89734095220E-02 -0.90919583970E-02  0.16975108803E-01  0.51100000000E-03 0.  1.
</event>
<event>
 8    1  0.1119901E+005  0.1043930E+01  0.7957747E-01            NaN
         13   -1    0    0    0    0  0.00000000000E+00  0.00000000000E+00  0.74505805969E-08  0.10566000000E+00  0.10566000000E+00 0. -1.
     999900   -1    0    0    0    0 -0.00000000000E+00 -0.00000000000E+00 -0.74505805969E-08  0.93827000000E+00  0.93827000000E+00 0.  1.
     999902    2    1    2    0    0  0.90421055365E-02 -0.53655969706E-03  0.22381747467E-01  0.10197848102E+01  0.10194989304E+01 0.  0.
     999903    2    3    3    0    0 -0.81654106527E-01  0.98381709520E-01  0.14166673824E-01  0.12957241182E+00  0.15555107736E-01 0.  0.
         14    1    1    2    0    0 -0.90421055365E-02  0.53655969706E-03 -0.22381747467E-01  0.24145189760E-01  0.00000000000E+00 0.  1.
     999901    1    3    3    0    0  0.90696212063E-01 -0.98918269217E-01  0.82150736429E-02  0.89021239842E+00  0.88000000000E+00 0. -1.
        -11    1    4    4    0    0 -0.78674846253E-01  0.94519417431E-01  0.16604859799E-01  0.12409526258E+00  0.51100000000E-03 0. -1.
         11    1    4    4    0    0 -0.29792602737E-02  0.38622920886E-02 -0.24381859750E-02  0.54771492407E-02  0.51100000000E-03 0.  1.
</event>
<event>
 7    1  0.1119901E+005  0.1043930E+01  0.7957747E-01            NaN
         13   -1    0    0    0    0  0.00000000000E+00  0.00000000000E+00  0.74505805969E-08  0.10566000000E+00  0.10566000000E+00 0. -1.
     999900   -1    0    0    0    0 -0.00000000000E+00 -0.00000000000E+00 -0.74505805969E-08  0.93827000000E+00  0.93827000000E+00 0.  1.
     999903    2    1    2    0    0 -0.10383521519E+00  0.19146746195E-01 -0.51371836528E-03  0.10768308237E+00  0.21143143554E-01 0.  0.
         14    1    1    2    0    0  0.37871858952E-01 -0.36199359630E-01  0.11087662684E-01  0.53550047636E-01  0.00000000000E+00 0. -1.
     999901    1    1    2    0    0  0.65963356240E-01  0.17052613435E-01 -0.10573944318E-01  0.88269686999E+00  0.88000000000E+00 0. -1.
        -11    1    3    3    0    0 -0.23890099078E-01  0.10727958486E-01  0.65036005729E-02  0.26988587748E-01  0.51100000000E-03 0.  1.
         11    1    3    3    0    0 -0.79945116113E-01  0.84187877094E-02 -0.70173189382E-02  0.80694494626E-01  0.51100000000E-03 0. -1.
</event>
<event>
 8    1  0.1119901E+005  0.1043930E+01  0.7957747E-01            NaN
         13   -1    0    0    0    0  0.00000000000E+00  0.00000000000E+00  0.74505805969E-08  0.10566000000E+00  0.10566000000E+00 0. -1.
     999900   -1    0    0    0    0 -0.00000000000E+00 -0.00000000000E+00 -0.74505805969E-08  0.93827000000E+00  0.93827000000E+00 0. -1.
     999902    2    1    2    0    0  0.45539496450E-02 -0.19415615622E-01 -0.11397990778E-01  0.10209600461E+01  0.10207016200E+01 0.  0.
     999903    2    3    3    0    0 -0.94466700863E-01  0.81492506988E-01  0.25162928620E-01  0.12892628036E+00  0.20587047467E-01 0.  0.
         14    1    1    2    0    0 -0.45539496450E-02  0.19415615622E-01  0.11397990778E-01  0.22969953877E-01  0.00000000000E+00 0. -1.
     999901    1    3    3    0    0  0.99020650508E-01 -0.10090812261E+00 -0.36560919398E-01  0.89203376576E+00  0.88000000000E+00 0.  1.
        -11    1    4    4    0    0 -0.51028965011E-01  0.31050618279E-01  0.88550302398E-02  0.60388482736E-01  0.51100000000E-03 0.  1.
         11    1    4    4    0    0 -0.43437735851E-01  0.50441888709E-01  0.16307898380E-01  0.68537797623E-01  0.51100000000E-03 0. -1.
</event>
<event>
 8    1  0.1119901E+005  0.1043930E+01  0.7957747E-01            NaN
         13   -1    0    0    0    0  0.00000000000E+00  0.00000000000E+00  0.74505805969E-08  0.10566000000E+00  0.10566000000E+00 0. -1.
     999900   -1    0    0    0    0 -0.00000000000E+00 -0.00000000000E+00 -0.74505805969E-08  0.93827000000E+00  0.93827000000E+00 0. -1.
     999902    2    1    2    0    0  0.17179701075E-01  0.57311369025E-02  0.16325130088E-01  0.10195476717E+01  0.10192560802E+01 0.  0.
     999903    2    3    3    0    0 -0.77097300261E-01 -0.10009205843E+00 -0.59459332030E-02  0.12792964707E+00  0.19189231593E-01 0.  0.
         14    1    1    2    0    0 -0.17179701075E-01 -0.57311369025E-02 -0.16325130088E-01  0.24382328265E-01  0.00000000000E+00 0.  1.
     999901    1    3    3    0    0  0.94277001336E-01  0.10582319533E+00  0.22271063291E-01  0.89161802467E+00  0.88000000000E+00 0. -1.
        -11    1    4    4    0    0 -0.34188175318E-01 -0.32361245291E-01  0.34297714112E-02  0.47202817514E-01  0.51100000000E-03 0. -1.
         11    1    4    4    0    0 -0.42909124943E-01 -0.67730813139E-01 -0.93757046143E-02  0.80726829554E-01  0.51100000000E-03 0.  1.
</event>
<event>
 8    1  0.1119901E+005  0.1043930E+01  0.7957747E-01            NaN
         13   -1    0    0    0    0  0.00000000000E+00  0.00000000000E+00  0.74505805969E-08  0.10566000000E+00  0.10566000000E+00 0.  1.
     999900   -1    0    0    0    0 -0.00000000000E+00 -0.00000000000E+00 -0.74505805969E-08  0.93827000000E+00  0.93827000000E+00 0.  1.
     999902    2    1    2    0    0 -0.42963056271E-02 -0.22249492095E-01  0.78537805316E-02  0.10199470892E+01  0.10196650846E+01 0.  0.
     999903    2    3    3    0    0 -0.63520582305E-01  0.65563134494E-01  0.91319628751E-01  0.12967459153E+00  0.11951406280E-01 0.  0.
         14    1    1    2    0    0  0.42963056271E-02  0.22249492095E-01 -0.78537805316E-02  0.23982910774E-01  0.00000000000E+00 0.  1.
     999901    1    3    3    0    0  0.59224276677E-01 -0.87812626589E-01 -0.83465848219E-01  0.89027249770E+00  0.88000000000E+00 0.  1.
        -11    1    4    4    0    0 -0.46428265096E-01  0.52353124180E-01  0.75159246434E-01  0.10269180521E+00  0.51100000000E-03 0. -1.
         11    1    4    4    0    0 -0.17092317209E-01  0.13210010314E-01  0.16160382317E-01  0.26982786322E-01  0.51100000000E-03 0.  1.
</event>
<event>
 8    1  0.1119901E+005  0.1043930E+01  0.7957747E-01            NaN
         13   -1    0    0    0    0  0.00000000000E+00  0.00000000000E+00  0.74505805969E-08  0.10566000000E+00  0.10566000000E+00 0. -1.
     999900   -1    0    0    0    0 -0.00000000000E+00 -0.00000000000E+00 -0.74505805969E-08  0.93827000000E+00  0.93827000000E+00 0.  1.
     999902    2    1    2    0    0  0.23378651248E-01 -0.48350843437E-02 -0.48914641710E-02  0.10195606382E+01  0.10192693604E+01 0.  0.
     999903    2    3    3    0    0  0.87371370308E-01 -0.96459196224E-01 -0.15139989043E-01  0.13243320750E+00  0.19266610869E-01 0.  0.
         14    1    1    2    0    0 -0.23378651248E-01  0.48350843437E-02  0.48914641710E-02  0.24369361840E-01  0.00000000000E+00 0.  1.
     999901    1    3    3    0    0 -0.63992719060E-01  0.91624111880E-01  0.10248524872E-01  0.88712743066E+00  0.88000000000E+00 0.  1.
        -11    1    4    4    0    0  0.27650995162E-01 -0.41633462955E-01 -0.11454807141E-01  0.51277641314E-01  0.51100000000E-03 0.  1.
         11    1    4    4    0    0  0.59720375145E-01 -0.54825733268E-01 -0.36851819017E-02  0.81155566184E-01  0.51100000000E-03 0. -1.
</event>
<event>
 8    1  0.1119901E+005  0.1043930E+01  0.7957747E-01            NaN
         13   -1    0    0    0    0  0.00000000000E+00  0.00000000000E+00  0.74505805969E-08  0.10566000000E+00  0.10566000000E+00 0.  1.
     999900   -1    0    0    0    0 -0.00000000000E+00 -0.00000000000E+00 -0.74505805969E-08  0.93827000000E+00  0.93827000000E+00 0.  1.
     999902    2    1    2    0    0  0.18256237372E-03 -0.24046871284E-01  0.55509429028E-02  0.10192500828E+01  0.10189512417E+01 0.  0.
     999903    2    3    3    0    0 -0.11318147783E+00  0.54731286568E-01 -0.15574160100E-01  0.12823735910E+00  0.19917458482E-01 0.  0.
         14    1    1    2    0    0 -0.18256237372E-03  0.24046871284E-01 -0.55509429028E-02  0.24679917234E-01  0.00000000000E+00 0. -1.
     999901    1    3    3    0    0  0.11336404020E+00 -0.78778157853E-01  0.21125103003E-01  0.89101272367E+00  0.88000000000E+00 0.  1.
        -11    1    4    4    0    0 -0.52815487211E-01  0.26146034490E-01  0.26733026762E-02  0.58995749653E-01  0.51100000000E-03 0. -1.
         11    1    4    4    0    0 -0.60365990616E-01  0.28585252078E-01 -0.18247462776E-01  0.69241609443E-01  0.51100000000E-03 0.  1.
</event>
<event>
 8    1  0.1119901E+005  0.1043930E+01  0.7957747E-01            NaN
         13   -1    0    0    0    0  0.00000000000E+00  0.00000000000E+00  0.74505805969E-08  0.10566000000E+00  0.10566000000E+00 0.  1.
     999900   -1    0    0    0    0 -0.00000000000E+00 -0.00000000000E+00 -0.74505805969E-08  0.93827000000E+00  0.93827000000E+00 0.  1.
     999902    2    1    2    0    0  0.16391972841E-01 -0.76231141110E-02 -0.15234240559E-01  0.10202891301E+01  0.10200152050E+01 0.  0.
     999903    2    3    3    0    0 -0.11739674270E+00  0.48652190083E-02 -0.50404747089E-01  0.12939500433E+00  0.19918912243E-01 0.  0.
         14    1    1    2    0    0 -0.16391972841E-01  0.76231141110E-02  0.15234240559E-01  0.23640869861E-01  0.00000000000E+00 0.  1.
     999901    1    3    3    0    0  0.13378871554E+00 -0.12488333119E-01  0.35170506531E-01  0.89089412581E+00  0.88000000000E+00 0. -1.
        -11    1    4    4    0    0 -0.50178008331E-01  0.10624417205E-02 -0.10999042920E-01  0.51382889844E-01  0.51100000000E-03 0. -1.
         11    1    4    4    0    0 -0.67218734365E-01  0.38027772878E-02 -0.39405704169E-01  0.78012114488E-01  0.51100000000E-03 0.  1.
</event>
<event>
 8    1  0.1119901E+005  0.1043930E+01  0.7957747E-01            NaN
         13   -1    0    0    0    0  0.00000000000E+00  0.00000000000E+00  0.74505805969E-08  0.10566000000E+00  0.10566000000E+00 0. -1.
     999900   -1    0    0    0    0 -0.00000000000E+00 -0.00000000000E+00 -0.74505805969E-08  0.93827000000E+00  0.93827000000E+00 0. -1.
     999902    2    1    2    0    0 -0.76945563374E-02  0.16784762114E-01 -0.14943854243E-01  0.10201759853E+01  0.10198994008E+01 0.  0.
     999903    2    3    3    0    0  0.37836089121E-01 -0.12075180834E+00  0.37722551684E-02  0.12813358681E+00  0.19784269062E-01 0.  0.
         14    1    1    2    0    0  0.76945563374E-02 -0.16784762114E-01  0.14943854243E-01  0.23754014737E-01  0.00000000000E+00 0. -1.
     999901    1    3    3    0    0 -0.45530645458E-01  0.13753657045E+00 -0.18716109412E-01  0.89204239845E+00  0.88000000000E+00 0.  1.
        -11    1    4    4    0    0  0.22306617317E-01 -0.91138390781E-01  0.90980729709E-02  0.94269971375E-01  0.51100000000E-03 0.  1.
         11    1    4    4    0    0  0.15529471804E-01 -0.29613417559E-01 -0.53258178025E-02  0.33863615434E-01  0.51100000000E-03 0. -1.
</event>
<event>
 8    1  0.1119901E+005  0.1043930E+01  0.7957747E-01            NaN
         13   -1    0    0    0    0  0.00000000000E+00  0.00000000000E+00  0.74505805969E-08  0.10566000000E+00  0.10566000000E+00 0.  1.
     999900   -1    0    0    0    0 -0.00000000000E+00 -0.00000000000E+00 -0.74505805969E-08  0.93827000000E+00  0.93827000000E+00 0.  1.
     999902    2    1    2    0    0 -0.27391740415E-03  0.13573209495E-01 -0.19012904603E-01  0.10205676887E+01  0.10203002547E+01 0.  0.
     999903    2    3    3    0    0 -0.49234878239E-01 -0.11151159352E+00 -0.40457062186E-01  0.13011654715E+00  0.20847859285E-01 0.  0.
         14    1    1    2    0    0  0.27391740415E-03 -0.13573209495E-01  0.19012904603E-01  0.23362311277E-01  0.00000000000E+00 0.  1.
     999901    1    3    3    0    0  0.48960960834E-01  0.12508480302E+00  0.21444157583E-01  0.89045114157E+00  0.88000000000E+00 0. -1.
        -11    1    4    4    0    0 -0.31405495681E-01 -0.86097477395E-01 -0.37153675537E-01  0.98892555330E-01  0.51100000000E-03 0.  1.
         11    1    4    4    0    0 -0.17829382557E-01 -0.25414116128E-01 -0.33033866495E-02  0.31223991822E-01  0.51100000000E-03 0. -1.
</event>
<event>
 8    1  0.1119901E+005  0.1043930E+01  0.7957747E-01            NaN
         13   -1    0    0    0    0  0.00000000000E+00  0.00000000000E+00  0.74505805969E-08  0.10566000000E+00  0.10566000000E+00 0.  1.
     999900   -1    0    0    0    0 -0.00000000000E+00 -0.00000000000E+00 -0.74505805969E-08  0.93827000000E+00  0.93827000000E+00 0. -1.
     999902    2    1    2    0    0  0.17157199002E-02  0.12840467951E-01 -0.20055461253E-01  0.10200544301E+01  0.10197749740E+01 0.  0.
     999903    2    3    3    0    0  0.79463140858E-02  0.35191221472E-01 -0.12648562469E+00  0.13333815294E+00  0.21883413854E-01 0.  0.
         14    1    1    2    0    0 -0.17157199002E-02 -0.12840467951E-01  0.20055461253E-01  0.23875569899E-01  0.00000000000E+00 0. -1.
     999901    1    3    3    0    0 -0.62305941856E-02 -0.22350753521E-01  0.10643016343E+00  0.88671627716E+00  0.88000000000E+00 0.  1.
        -11    1    4    4    0    0 -0.38911258142E-02  0.20075290887E-01 -0.87747833397E-01  0.90100508052E-01  0.51100000000E-03 0. -1.
         11    1    4    4    0    0  0.11837439900E-01  0.15115930585E-01 -0.38737791289E-01  0.43237644892E-01  0.51100000000E-03 0.  1.
</event>
<event>
 8    1  0.1119901E+005  0.1043930E+01  0.7957747E-01            NaN
         13   -1    0    0    0    0  0.00000000000E+00  0.00000000000E+00  0.74505805969E-08  0.10566000000E+00  0.10566000000E+00 0.  1.
     999900   -1    0    0    0    0 -0.00000000000E+00 -0.00000000000E+00 -0.74505805969E-08  0.93827000000E+00  0.93827000000E+00 0.  1.
     999902    2    1    2    0    0  0.19904253417E-02 -0.17513314269E-01  0.15029604884E-01  0.10207660843E+01  0.10205032248E+01 0.  0.
     999903    2    3    3    0    0  0.11627980690E+00 -0.21651490228E-01  0.56221908705E-01  0.13241030354E+00  0.19539829674E-01 0.  0.
         14    1    1    2    0    0 -0.19904253417E-02  0.17513314269E-01 -0.15029604884E-01  0.23163915747E-01  0.00000000000E+00 0.  1.
     999901    1    3    3    0    0 -0.11428938155E+00  0.41381759589E-02 -0.41192303820E-01  0.88835578072E+00  0.88000000000E+00 0. -1.
        -11    1    4    4    0    0  0.59305365275E-01 -0.13132920446E-01  0.18305833257E-01  0.63442608727E-01  0.51100000000E-03 0. -1.
         11    1    4    4    0    0  0.56974441621E-01 -0.85185697818E-02  0.37916075448E-01  0.68967694811E-01  0.51100000000E-03 0.  1.
</event>
<event>
 8    1  0.1119901E+005  0.1043930E+01  0.7957747E-01            NaN
         13   -1    0    0    0    0  0.00000000000E+00  0.00000000000E+00  0.74505805969E-08  0.10566000000E+00  0.10566000000E+00 0.  1.
     999900   -1    0    0    0    0 -0.00000000000E+00 -0.00000000000E+00 -0.74505805969E-08  0.93827000000E+00  0.93827000000E+00 0. -1.
     999902    2    1    2    0    0  0.23472244943E-01  0.16392278128E-01 -0.10687970188E-02  0.10152804731E+01  0.10148761716E+01 0.  0.
     999903    2    3    3    0    0 -0.78202731123E-01  0.84057560177E-01 -0.47042478328E-01  0.12565697378E+00  0.19883151531E-01 0.  0.
         14    1    1    2    0    0 -0.23472244943E-01 -0.16392278128E-01  0.10687970188E-02  0.28649526906E-01  0.00000000000E+00 0. -1.
     999901    1    3    3    0    0  0.10167497607E+00 -0.67665282050E-01  0.45973681310E-01  0.88962349931E+00  0.88000000000E+00 0.  1.
        -11    1    4    4    0    0 -0.42756785499E-01  0.49088814220E-01 -0.16206287810E-01  0.67087698376E-01  0.51100000000E-03 0. -1.
         11    1    4    4    0    0 -0.35445945624E-01  0.34968745957E-01 -0.30836190518E-01  0.58569275407E-01  0.51100000000E-03 0.  1.
</event>
<event>
 8    1  0.1119901E+005  0.1043930E+01  0.7957747E-01            NaN
         13   -1    0    0    0    0  0.00000000000E+00  0.00000000000E+00  0.74505805969E-08  0.10566000000E+00  0.10566000000E+00 0.  1.
     999900   -1    0    0    0    0 -0.00000000000E+00 -0.00000000000E+00 -0.74505805969E-08  0.93827000000E+00  0.93827000000E+00 0. -1.
     999902    2    1    2    0    0 -0.88646438302E-02 -0.76913182524E-02  0.20663653831E-01  0.10201660593E+01  0.10198892409E+01 0.  0.
     999903    2    3    3    0    0  0.77485430286E-01 -0.95285845941E-01 -0.37407663389E-01  0.12971594031E+00  0.18533956557E-01 0.  0.
         14    1    1    2    0    0  0.88646438302E-02  0.76913182524E-02 -0.20663653831E-01  0.23763940674E-01  0.00000000000E+00 0. -1.
     999901    1    3    3    0    0 -0.86350074116E-01  0.87594527689E-01  0.58071317220E-01  0.89045011902E+00  0.88000000000E+00 0.  1.
        -11    1    4    4    0    0  0.46455248661E-01 -0.65652682034E-01 -0.17019877220E-01  0.82208893242E-01  0.51100000000E-03 0.  1.
         11    1    4    4    0    0  0.31030181625E-01 -0.29633163907E-01 -0.20387786169E-01  0.47507047064E-01  0.51100000000E-03 0. -1.
</event>
<event>
 8    1  0.1119901E+005  0.1043930E+01  0.7957747E-01            NaN
         13   -1    0    0    0    0  0.00000000000E+00  0.00000000000E+00  0.74505805969E-08  0.10566000000E+00  0.10566000000E+00 0.  1.
     999900   -1    0    0    0    0 -0.00000000000E+00 -0.00000000000E+00 -0.74505805969E-08  0.93827000000E+00  0.93827000000E+00 0. -1.
     999902    2    1    2    0    0 -0.71503990161E-02 -0.18284869447E-01  0.13137490627E-01  0.10203067420E+01  0.10200332296E+01 0.  0.
     999903    2    3    3    0    0 -0.42518527099E-01 -0.91876229164E-01  0.84689771184E-01  0.13363525746E+00  0.20903541838E-01 0.  0.
         14    1    1    2    0    0  0.71503990161E-02  0.18284869447E-01 -0.13137490627E-01  0.23623257962E-01  0.00000000000E+00 0. -1.
     999901    1    3    3    0    0  0.35368128083E-01  0.73591359717E-01 -0.71552280557E-01  0.88667148458E+00  0.88000000000E+00 0. -1.
        -11    1    4    4    0    0 -0.27783322806E-01 -0.66532956805E-01  0.71299237302E-01  0.10140211895E+00  0.51100000000E-03 0.  1.
         11    1    4    4    0    0 -0.14735204293E-01 -0.25343272359E-01  0.13390533882E-01  0.32233138508E-01  0.51100000000E-03 0. -1.
</event>
<event>
 8    1  0.1119901E+005  0.1043930E+01  0.7957747E-01            NaN
         13   -1    0    0    0    0  0.00000000000E+00  0.00000000000E+00  0.74505805969E-08  0.10566000000E+00  0.10566000000E+00 0. -1.
     999900   -1    0    0    0    0 -0.00000000000E+00 -0.00000000000E+00 -0.74505805969E-08  0.93827000000E+00  0.93827000000E+00 0.  1.
     999902    2    1    2    0    0  0.10941393573E-02 -0.21322082244E-02  0.23127885059E-01  0.10206782792E+01  0.10204134001E+01 0.  0.
     999903    2    3    3    0    0  0.78747120240E-01 -0.92497298187E-01  0.48597802717E-01  0.13228391202E+00  0.19504559302E-01 0.  0.
         14    1    1    2    0    0 -0.10941393573E-02  0.21322082244E-02 -0.23127885059E-01  0.23251720800E-01  0.00000000000E+00 0.  1.
     999901    1    3    3    0    0 -0.77652980883E-01  0.90365089962E-01 -0.25469917658E-01  0.88839436718E+00  0.88000000000E+00 0. -1.
        -11    1    4    4    0    0  0.11187830310E-01 -0.14409518118E-01  0.15224820629E-01  0.23766742386E-01  0.51100000000E-03 0.  1.
         11    1    4    4    0    0  0.67559289930E-01 -0.78087780069E-01  0.33372982088E-01  0.10851716964E+00  0.51100000000E-03 0. -1.
</event>
<event>
 8    1  0.1119901E+005  0.1043930E+01  0.7957747E-01            NaN
         13   -1    0    0    0    0  0.00000000000E+00  0.00000000000E+00  0.74505805969E-08  0.10566000000E+00  0.10566000000E+00 0. -1.
     999900   -1    0    0    0    0 -0.00000000000E+00 -0.00000000000E+00 -0.74505805969E-08  0.93827000000E+00  0.93827000000E+00 0.  1.
     999902    2    1    2    0    0 -0.78304888261E-02  0.16176584526E-01 -0.16396624266E-01  0.10196020792E+01  0.10193118032E+01 0.  0.
     999903    2    3    3    0    0 -0.86561488622E-01 -0.86756576081E-01 -0.37420301492E-01  0.12986290346E+00  0.21083166859E-01 0.  0.
         14    1    1    2    0    0  0.78304888261E-02 -0.16176584526E-01  0.16396624266E-01  0.24327920781E-01  0.00000000000E+00 0.  1.
     999901    1    3    3    0    0  0.78730999796E-01  0.10293316061E+00  0.21023677225E-01  0.88973917576E+00  0.88000000000E+00 0.  1.
        -11    1    4    4    0    0 -0.21609542712E-01 -0.10239987449E-01 -0.89066522877E-02  0.25522916274E-01  0.51100000000E-03 0. -1.
         11    1    4    4    0    0 -0.64951945911E-01 -0.76516588631E-01 -0.28513649204E-01  0.10433998718E+00  0.51100000000E-03 0.  1.
</event>
<event>
 8    1  0.1119901E+005  0.1043930E+01  0.7957747E-01            NaN
         13   -1    0    0    0    0  0.00000000000E+00  0.00000000000E+00  0.74505805969E-08  0.10566000000E+00  0.10566000000E+00 0.  1.
     999900   -1    0    0    0    0 -0.00000000000E+00 -0.00000000000E+00 -0.74505805969E-08  0.93827000000E+00  0.93827000000E+00 0.  1.
     999902    2    1    2    0    0 -0.67505556717E-02  0.21241717338E-01  0.58341693068E-02  0.10208905102E+01  0.10206304991E+01 0.  0.
     999903    2    3    3    0    0  0.75163375445E-01  0.60896924033E-01  0.87909379939E-01  0.13239809736E+00  0.21052998318E-01 0.  0.
         14    1    1    2    0    0  0.67505556717E-02 -0.21241717338E-01 -0.58341693068E-02  0.23039489770E-01  0.00000000000E+00 0. -1.
     999901    1    3    3    0    0 -0.81913931116E-01 -0.39655206695E-01 -0.82075210632E-01  0.88849241287E+00  0.88000000000E+00 0.  1.
        -11    1    4    4    0    0  0.27414436026E-01  0.19714105594E-01  0.44413066894E-01  0.55794075796E-01  0.51100000000E-03 0. -1.
         11    1    4    4    0    0  0.47748939418E-01  0.41182818439E-01  0.43496313045E-01  0.76604021563E-01  0.51100000000E-03 0.  1.
</event>
<event>
 8    1  0.1543791E+005  0.1043930E+01  0.7957747E-01            NaN
         13   -1    0    0    0    0  0.00000000000E+00  0.00000000000E+00  0.74505805969E-08  0.10566000000E+00  0.10566000000E+00 0.  1.
     999900   -1    0    0    0    0 -0.00000000000E+00 -0.00000000000E+00 -0.74505805969E-08  0.93827000000E+00  0.93827000000E+00 0.  1.
     999902    2    1    2    0    0  0.20664668888E-01  0.25357984878E-02 -0.10392195687E-01  0.10206607812E+01  0.10203954986E+01 0.  0.
     999903    2    3    3    0    0 -0.33860469475E-01  0.79814990746E-01 -0.96561745987E-01  0.13140814233E+00  0.20663130006E-01 0.  0.
         14    1    1    2    0    0 -0.20664668888E-01 -0.25357984878E-02  0.10392195687E-01  0.23269218839E-01  0.00000000000E+00 0.  1.
     999901    1    3    3    0    0  0.54525138363E-01 -0.77279192258E-01  0.86169550300E-01  0.88925263883E+00  0.88000000000E+00 0. -1.
        -11    1    4    4    0    0 -0.23893657269E-01  0.32187545669E-01 -0.49665494754E-01  0.63826855195E-01  0.51100000000E-03 0. -1.
         11    1    4    4    0    0 -0.99668122057E-02  0.47627445077E-01 -0.46896251233E-01  0.67581287134E-01  0.51100000000E-03 0.  1.
</event>
<event>
 7    1  0.1119901E+005  0.1043930E+01  0.7957747E-01            NaN
         13   -1    0    0    0    0  0.00000000000E+00  0.00000000000E+00  0.74505805969E-08  0.10566000000E+00  0.10566000000E+00 0.  1.
     999900   -1    0    0    0    0 -0.00000000000E+00 -0.00000000000E+00 -0.74505805969E-08  0.93827000000E+00  0.93827000000E+00 0.  1.
     999903    2    1    2    0    0  0.77458364518E-01 -0.86649069025E-01 -0.97552934775E-03  0.11804804971E+00  0.20652626587E-01 0.  0.
         14    1    1    2    0    0 -0.29839412964E-01  0.21999247302E-01 -0.19706132279E-01  0.41984391115E-01  0.00000000000E+00 0.  1.
     999901    1    1    2    0    0 -0.47618951555E-01  0.64649821723E-01  0.20681661627E-01  0.88389755918E+00  0.88000000000E+00 0. -1.
        -11    1    3    3    0    0  0.11938129232E-01 -0.21286627922E-01  0.63063618184E-02  0.25212512335E-01  0.51100000000E-03 0.  1.
         11    1    3    3    0    0  0.65520235286E-01 -0.65362441103E-01 -0.72818911661E-02  0.92835537370E-01  0.51100000000E-03 0. -1.
</event>
<event>
 8    1  0.1119901E+005  0.1043930E+01  0.7957747E-01            NaN
         13   -1    0    0    0    0  0.00000000000E+00  0.00000000000E+00  0.74505805969E-08  0.10566000000E+00  0.10566000000E+00 0.  1.
     999900   -1    0    0    0    0 -0.00000000000E+00 -0.00000000000E+00 -0.74505805969E-08  0.93827000000E+00  0.93827000000E+00 0. -1.
     999902    2    1    2    0    0 -0.19331048242E-01 -0.10384793391E-01  0.80791546689E-02  0.10205461145E+01  0.10202781806E+01 0.  0.
     999903    2    3    3    0    0 -0.65397141491E-01  0.11011655750E+00 -0.17279318552E-01  0.13077889065E+00  0.20052457170E-01 0.  0.
         14    1    1    2    0    0  0.19331048242E-01  0.10384793391E-01 -0.80791546689E-02  0.23383885478E-01  0.00000000000E+00 0. -1.
     999901    1    3    3    0    0  0.46066093250E-01 -0.12050135089E+00  0.25358473221E-01  0.88976722387E+00  0.88000000000E+00 0.  1.
        -11    1    4    4    0    0 -0.57650699028E-01  0.81884090970E-01 -0.16453426038E-01  0.10148686517E+00  0.51100000000E-03 0. -1.
         11    1    4    4    0    0 -0.77464424630E-02  0.28232466532E-01 -0.82589251437E-03  0.29292025480E-01  0.51100000000E-03 0.  1.
</event>
<event>
 8    1  0.1119901E+005  0.1043930E+01  0.7957747E-01            NaN
         13   -1    0    0    0    0  0.00000000000E+00  0.00000000000E+00  0.74505805969E-08  0.10566000000E+00  0.10566000000E+00 0. -1.
     999900   -1    0    0    0    0 -0.00000000000E+00 -0.00000000000E+00 -0.74505805969E-08  0.93827000000E+00  0.93827000000E+00 0. -1.
     999902    2    1    2    0    0 -0.20987247660E-01  0.98943048337E-02 -0.57073823413E-02  0.10200357319E+01  0.10197558327E+01 0.  0.
     999903    2    3    3    0    0 -0.70596086498E-01 -0.19312027972E-01 -0.10823633508E+00  0.13221467289E+00  0.20220129582E-01 0.  0.
         14    1    1    2    0    0  0.20987247660E-01 -0.98943048337E-02  0.57073823413E-02  0.23894268051E-01  0.00000000000E+00 0. -1.
     999901    1    3    3    0    0  0.49608838838E-01  0.29206332806E-01  0.10252895274E+00  0.88782105906E+00  0.88000000000E+00 0.  1.
        -11    1    4    4    0    0 -0.12089271341E-01  0.42858095089E-02 -0.18950627724E-01  0.22888994230E-01  0.51100000000E-03 0. -1.
         11    1    4    4    0    0 -0.58506815157E-01 -0.23597837481E-01 -0.89285707361E-01  0.10932567866E+00  0.51100000000E-03 0.  1.
</event>
<event>
 8    1  0.1119901E+005  0.1043930E+01  0.7957747E-01            NaN
         13   -1    0    0    0    0  0.00000000000E+00  0.00000000000E+00  0.74505805969E-08  0.10566000000E+00  0.10566000000E+00 0.  1.
     999900   -1    0    0    0    0 -0.00000000000E+00 -0.00000000000E+00 -0.74505805969E-08  0.93827000000E+00  0.93827000000E+00 0. -1.
     999902    2    1    2    0    0 -0.32087492395E-02  0.25521854531E-01 -0.64805753171E-02  0.10174034287E+01  0.10170575587E+01 0.  0.
     999903    2    3    3    0    0 -0.43521139569E-01  0.11629180755E-01 -0.11942232259E+00  0.12916138199E+00  0.19789998277E-01 0.  0.
         14    1    1    2    0    0  0.32087492395E-02 -0.25521854531E-01  0.64805753171E-02  0.26526571335E-01  0.00000000000E+00 0.  1.
     999901    1    3    3    0    0  0.40312390330E-01  0.13892673776E-01  0.11294174727E+00  0.88824204667E+00  0.88000000000E+00 0.  1.
        -11    1    4    4    0    0 -0.30238703979E-01  0.12215535582E-01 -0.10291227253E+00  0.10795737810E+00  0.51100000000E-03 0. -1.
         11    1    4    4    0    0 -0.13282435591E-01 -0.58635482678E-03 -0.16510050055E-01  0.21204003892E-01  0.51100000000E-03 0.  1.
</event>
<event>
 8    1  0.1119901E+005  0.1043930E+01  0.7957747E-01            NaN
         13   -1    0    0    0    0  0.00000000000E+00  0.00000000000E+00  0.74505805969E-08  0.10566000000E+00  0.10566000000E+00 0. -1.
     999900   -1    0    0    0    0 -0.00000000000E+00 -0.00000000000E+00 -0.74505805969E-08  0.93827000000E+00  0.93827000000E+00 0.  1.
     999902    2    1    2    0    0  0.19727761853E-01 -0.70825279927E-02 -0.10723361638E-01  0.10203856318E+01  0.10201139643E+01 0.  0.
     999903    2    3    3    0    0 -0.26649187119E-01  0.12440132054E+00 -0.13911536154E-01  0.12940359588E+00  0.19128305277E-01 0.  0.
         14    1    1    2    0    0 -0.19727761853E-01  0.70825279927E-02  0.10723361638E-01  0.23544368229E-01  0.00000000000E+00 0. -1.
     999901    1    3    3    0    0  0.46376948973E-01 -0.13148384853E+00  0.31881745168E-02  0.89098203589E+00  0.88000000000E+00 0.  1.
        -11    1    4    4    0    0 -0.17605370854E-01  0.11136730041E+00 -0.11278083916E-01  0.11331408113E+00  0.51100000000E-03 0.  1.
         11    1    4    4    0    0 -0.90438162651E-02  0.13034020127E-01 -0.26334522384E-02  0.16089514754E-01  0.51100000000E-03 0. -1.
</event>
<event>
 8    1  0.1119901E+005  0.1043930E+01  0.7957747E-01            NaN
         13   -1    0    0    0    0  0.00000000000E+00  0.00000000000E+00  0.74505805969E-08  0.10566000000E+00  0.10566000000E+00 0.  1.
     999900   -1    0    0    0    0 -0.00000000000E+00 -0.00000000000E+00 -0.74505805969E-08  0.93827000000E+00  0.93827000000E+00 0.  1.
     999902    2    1    2    0    0 -0.19245113699E-01  0.63023075749E-02  0.15846351657E-01  0.10182161838E+01  0.10178914464E+01 0.  0.
     999903    2    3    3    0    0  0.12062089253E+00  0.32127089701E-01  0.96056746626E-02  0.12677444981E+00  0.19948497003E-01 0.  0.
         14    1    1    2    0    0  0.19245113699E-01 -0.63023075749E-02 -0.15846351657E-01  0.25713816187E-01  0.00000000000E+00 0. -1.
     999901    1    3    3    0    0 -0.13986600623E+00 -0.25824782126E-01  0.62406769946E-02  0.89144173400E+00  0.88000000000E+00 0.  1.
        -11    1    4    4    0    0  0.56782791652E-01  0.18857018763E-01  0.13903072272E-01  0.61428243700E-01  0.51100000000E-03 0. -1.
         11    1    4    4    0    0  0.63838100875E-01  0.13270070938E-01 -0.42973976097E-02  0.65346206112E-01  0.51100000000E-03 0.  1.
</event>
<event>
 8    1  0.1119901E+005  0.1043930E+01  0.7957747E-01            NaN
         13   -1    0    0    0    0  0.00000000000E+00  0.00000000000E+00  0.74505805969E-08  0.10566000000E+00  0.10566000000E+00 0. -1.
     999900   -1    0    0    0    0 -0.00000000000E+00 -0.00000000000E+00 -0.74505805969E-08  0.93827000000E+00  0.93827000000E+00 0. -1.
     999902    2    1    2    0    0  0.16251026328E-01  0.16701615746E-01  0.28098969241E-03  0.10206250911E+01  0.10203589847E+01 0.  0.
     999903    2    3    3    0    0  0.40937492091E-01  0.12511757757E+00  0.11963158929E-01  0.13355129738E+00  0.19040624532E-01 0.  0.
         14    1    1    2    0    0 -0.16251026328E-01 -0.16701615746E-01 -0.28098969241E-03  0.23304908935E-01  0.00000000000E+00 0. -1.
     999901    1    3    3    0    0 -0.24686465763E-01 -0.10841596183E+00 -0.11682169236E-01  0.88707379369E+00  0.88000000000E+00 0.  1.
        -11    1    4    4    0    0  0.10074416755E-01  0.61110198385E-01  0.65967848200E-02  0.62287469932E-01  0.51100000000E-03 0. -1.
         11    1    4    4    0    0  0.30863075336E-01  0.64007379190E-01  0.53663741086E-02  0.71263827444E-01  0.51100000000E-03 0.  1.
</event>
<event>
 8    1  0.1119901E+005  0.1043930E+01  0.7957747E-01            NaN
         13   -1    0    0    0    0  0.00000000000E+00  0.00000000000E+00  0.74505805969E-08  0.10566000000E+00  0.10566000000E+00 0. -1.
     999900   -1    0    0    0    0 -0.00000000000E+00 -0.00000000000E+00 -0.74505805969E-08  0.93827000000E+00  0.93827000000E+00 0. -1.
     999902    2    1    2    0    0 -0.75698108700E-04  0.20154074613E-01 -0.15250587360E-01  0.10186560437E+01  0.10183424583E+01 0.  0.
     999903    2    3    3    0    0  0.16789404510E-01 -0.23139485990E-01 -0.12575792976E+00  0.13052844203E+00  0.20131998541E-01 0.  0.
         14    1    1    2    0    0  0.75698108700E-04 -0.20154074613E-01  0.15250587360E-01  0.25273956330E-01  0.00000000000E+00 0. -1.
     999901    1    3    3    0    0 -0.16865102619E-01  0.43293560604E-01  0.11050734240E+00  0.88812760164E+00  0.88000000000E+00 0.  1.
        -11    1    4    4    0    0  0.20562539552E-01 -0.14386124929E-01 -0.98481877878E-01  0.10163031051E+00  0.51100000000E-03 0.  1.
         11    1    4    4    0    0 -0.37731350421E-02 -0.87533610612E-02 -0.27276051881E-01  0.28898131516E-01  0.51100000000E-03 0. -1.
</event>
<event>
 8    1  0.1119901E+005  0.1043930E+01  0.7957747E-01            NaN
         13   -1    0    0    0    0  0.00000000000E+00  0.00000000000E+00  0.74505805969E-08  0.10566000000E+00  0.10566000000E+00 0. -1.
     999900   -1    0    0    0    0 -0.00000000000E+00 -0.00000000000E+00 -0.74505805969E-08  0.93827000000E+00  0.93827000000E+00 0. -1.
     999902    2    1    2    0    0 -0.15402322363E-01  0.82872770102E-02  0.26158230418E-01  0.10124631363E+01  0.10119740307E+01 0.  0.
     999903    2    3    3    0    0  0.25822335224E-01 -0.47879602764E-01  0.10943823388E+00  0.12578971851E+00  0.29783836082E-01 0.  0.
         14    1    1    2    0    0  0.15402322363E-01 -0.82872770102E-02 -0.26158230418E-01  0.31466863730E-01  0.00000000000E+00 0.  1.
     999901    1    3    3    0    0 -0.41224657586E-01  0.56166879774E-01 -0.83280003464E-01  0.88667341776E+00  0.88000000000E+00 0. -1.
        -11    1    4    4    0    0  0.16197695319E-01 -0.55727097023E-02  0.19693911152E-01  0.26106161811E-01  0.51100000000E-03 0. -1.
         11    1    4    4    0    0  0.96246399044E-02 -0.42306893062E-01  0.89744322730E-01  0.99683556703E-01  0.51100000000E-03 0.  1.
</event>
<event>
 8    1  0.1119901E+005  0.1043930E+01  0.7957747E-01            NaN
         13   -1    0    0    0    0  0.00000000000E+00  0.00000000000E+00  0.74505805969E-08  0.10566000000E+00  0.10566000000E+00 0. -1.
     999900   -1    0    0    0    0 -0.00000000000E+00 -0.00000000000E+00 -0.74505805969E-08  0.93827000000E+00  0.93827000000E+00 0.  1.
     999902    2    1    2    0    0  0.39704792282E-02 -0.25578832377E-02 -0.25232507385E-01  0.10182592598E+01  0.10179356234E+01 0.  0.
     999903    2    3    3    0    0  0.10117548853E+00  0.12323602612E-01 -0.79995895246E-01  0.13108999689E+00  0.19922182833E-01 0.  0.
         14    1    1    2    0    0 -0.39704792282E-02  0.25578832377E-02  0.25232507385E-01  0.25670740170E-01  0.00000000000E+00 0. -1.
     999901    1    3    3    0    0 -0.97205009298E-01 -0.14881485849E-01  0.54763387861E-01  0.88716926294E+00  0.88000000000E+00 0. -1.
        -11    1    4    4    0    0  0.69424172285E-01  0.15909628638E-01 -0.48147552679E-01  0.85972553358E-01  0.51100000000E-03 0. -1.
         11    1    4    4    0    0  0.31751316241E-01 -0.35860260268E-02 -0.31848342567E-01  0.45117443533E-01  0.51100000000E-03 0.  1.
</event>
<event>
 7    1  0.1119901E+005  0.1043930E+01  0.7957747E-01            NaN
         13   -1    0    0    0    0  0.00000000000E+00  0.00000000000E+00  0.74505805969E-08  0.10566000000E+00  0.10566000000E+00 0.  1.
     999900   -1    0    0    0    0 -0.00000000000E+00 -0.00000000000E+00 -0.74505805969E-08  0.93827000000E+00  0.93827000000E+00 0. -1.
     999903    2    1    2    0    0 -0.22997823482E-01 -0.81675406054E-01  0.75361124471E-01  0.11506603566E+00  0.19003200814E-01 0.  0.
         14    1    1    2    0    0  0.19376429333E-01 -0.47722554495E-03  0.33143386642E-01  0.38394763133E-01  0.00000000000E+00 0.  1.
     999901    1    1    2    0    0  0.36213941487E-02  0.82152631599E-01 -0.10850451111E+00  0.89046920121E+00  0.88000000000E+00 0. -1.
        -11    1    3    3    0    0  0.22676108342E-02 -0.19085830224E-01  0.20280039682E-01  0.27945520298E-01  0.51100000000E-03 0.  1.
         11    1    3    3    0    0 -0.25265434316E-01 -0.62589575830E-01  0.55081084789E-01  0.87120515358E-01  0.51100000000E-03 0. -1.
</event>
<event>
 8    1  0.1119901E+005  0.1043930E+01  0.7957747E-01            NaN
         13   -1    0    0    0    0  0.00000000000E+00  0.00000000000E+00  0.74505805969E-08  0.10566000000E+00  0.10566000000E+00 0.  1.
     999900   -1    0    0    0    0 -0.00000000000E+00 -0.00000000000E+00 -0.74505805969E-08  0.93827000000E+00  0.93827000000E+00 0. -1.
     999902    2    1    2    0    0 -0.15606554952E-01  0.13829828758E-01 -0.10972217522E-01  0.10203669298E+01  0.10200948255E+01 0.  0.
     999903    2    3    3    0    0  0.47862164870E-01  0.78306260791E-01 -0.93593213327E-01  0.13187848437E+00  0.14477145871E-01 0.  0.
         14    1    1    2    0    0  0.15606554952E-01 -0.13829828758E-01  0.10972217522E-01  0.23563070222E-01  0.00000000000E+00 0. -1.
     999901    1    3    3    0    0 -0.63468719821E-01 -0.64476432032E-01  0.82620995805E-01  0.88848844541E+00  0.88000000000E+00 0.  1.
        -11    1    4    4    0    0  0.15443978025E-01  0.23632264675E-01 -0.38611862087E-01  0.47834479257E-01  0.51100000000E-03 0. -1.
         11    1    4    4    0    0  0.32418186845E-01  0.54673996116E-01 -0.54981351240E-01  0.84044005109E-01  0.51100000000E-03 0.  1.
</event>
<event>
 8    1  0.1119901E+005  0.1043930E+01  0.7957747E-01            NaN
         13   -1    0    0    0    0  0.00000000000E+00  0.00000000000E+00  0.74505805969E-08  0.10566000000E+00  0.10566000000E+00 0.  1.
     999900   -1    0    0    0    0 -0.00000000000E+00 -0.00000000000E+00 -0.74505805969E-08  0.93827000000E+00  0.93827000000E+00 0.  1.
     999902    2    1    2    0    0  0.43799653240E-02 -0.12806681337E-01 -0.18546769314E-01  0.10209696465E+01  0.10207114387E+01 0.  0.
     999903    2    3    3    0    0  0.83633745586E-01 -0.85451347584E-01  0.51283295527E-01  0.13168080295E+00  0.20330304000E-01 0.  0.
         14    1    1    2    0    0 -0.43799653240E-02  0.12806681337E-01  0.18546769314E-01  0.22960353549E-01  0.00000000000E+00 0.  1.
     999901    1    3    3    0    0 -0.79253780262E-01  0.72644666247E-01 -0.69830064841E-01  0.88928884350E+00  0.88000000000E+00 0.  1.
        -11    1    4    4    0    0  0.33362235007E-01 -0.36760185184E-01  0.10724756599E-01  0.50790072500E-01  0.51100000000E-03 0.  1.
         11    1    4    4    0    0  0.50271510579E-01 -0.48691162400E-01  0.40558538928E-01  0.80890730450E-01  0.51100000000E-03 0. -1.
</event>
<event>
 8    1  0.1119901E+005  0.1043930E+01  0.7957747E-01            NaN
         13   -1    0    0    0    0  0.00000000000E+00  0.00000000000E+00  0.74505805969E-08  0.10566000000E+00  0.10566000000E+00 0. -1.
     999900   -1    0    0    0    0 -0.00000000000E+00 -0.00000000000E+00 -0.74505805969E-08  0.93827000000E+00  0.93827000000E+00 0.  1.
     999902    2    1    2    0    0 -0.22103286776E-01 -0.98838844706E-02 -0.26461168220E-02  0.10195733091E+01  0.10192823378E+01 0.  0.
     999903    2    3    3    0    0 -0.11898879167E+00 -0.42777440899E-01  0.35366076981E-01  0.13282998996E+00  0.20119762433E-01 0.  0.
         14    1    1    2    0    0  0.22103286776E-01  0.98838844706E-02  0.26461168220E-02  0.24356690924E-01  0.00000000000E+00 0.  1.
     999901    1    3    3    0    0  0.96885504891E-01  0.32893556429E-01 -0.38012193803E-01  0.88674331911E+00  0.88000000000E+00 0.  1.
        -11    1    4    4    0    0 -0.58819155573E-01 -0.11649824250E-01  0.21331368309E-01  0.63645108707E-01  0.51100000000E-03 0. -1.
         11    1    4    4    0    0 -0.60169636094E-01 -0.31127616649E-01  0.14034708673E-01  0.69184881257E-01  0.51100000000E-03 0.  1.
</event>
<event>
 8    1  0.1119901E+005  0.1043930E+01  0.7957747E-01            NaN
         13   -1    0    0    0    0  0.00000000000E+00  0.00000000000E+00  0.74505805969E-08  0.10566000000E+00  0.10566000000E+00 0. -1.
     999900   -1    0    0    0    0 -0.00000000000E+00 -0.00000000000E+00 -0.74505805969E-08  0.93827000000E+00  0.93827000000E+00 0. -1.
     999902    2    1    2    0    0  0.18146965217E-01 -0.31962917277E-02 -0.13681193129E-01  0.10209799744E+01  0.10207220016E+01 0.  0.
     999903    2    3    3    0    0  0.76538512013E-01 -0.10637469612E+00 -0.10882479990E-01  0.13302547749E+00  0.20090532506E-01 0.  0.
         14    1    1    2    0    0 -0.18146965217E-01  0.31962917277E-02  0.13681193129E-01  0.22950025551E-01  0.00000000000E+00 0. -1.
     999901    1    3    3    0    0 -0.58391546796E-01  0.10317840439E+00 -0.27987131386E-02  0.88795449696E+00  0.88000000000E+00 0.  1.
        -11    1    4    4    0    0  0.26761902940E-01 -0.43972533960E-01 -0.13282639969E-01  0.53164582547E-01  0.51100000000E-03 0. -1.
         11    1    4    4    0    0  0.49776609073E-01 -0.62402162156E-01  0.24001599790E-02  0.79860894945E-01  0.51100000000E-03 0.  1.
</event>
<event>
 8    1  0.1119901E+005  0.1043930E+01  0.7957747E-01            NaN
         13   -1    0    0    0    0  0.00000000000E+00  0.00000000000E+00  0.74505805969E-08  0.10566000000E+00  0.10566000000E+00 0.  1.
     999900   -1    0    0    0    0 -0.00000000000E+00 -0.00000000000E+00 -0.74505805969E-08  0.93827000000E+00  0.93827000000E+00 0. -1.
     999902    2    1    2    0    0  0.27339710316E-01 -0.81523285004E-02  0.15811280162E-01  0.10113122625E+01  0.10107861176E+01 0.  0.
     999903    2    3    3    0    0  0.53292018064E-01 -0.25727518077E-01 -0.10538523271E+00  0.12245287861E+00  0.19665091697E-01 0.  0.
         14    1    1    2    0    0 -0.27339710316E-01  0.81523285004E-02 -0.15811280162E-01  0.32617737514E-01  0.00000000000E+00 0. -1.
     999901    1    3    3    0    0 -0.25952307747E-01  0.17575189576E-01  0.12119651287E+00  0.88885938387E+00  0.88000000000E+00 0.  1.
        -11    1    4    4    0    0  0.42825123394E-01 -0.27275394211E-01 -0.77797460570E-01  0.92901261107E-01  0.51100000000E-03 0.  1.
         11    1    4    4    0    0  0.10466894670E-01  0.15478761345E-02 -0.27587772141E-01  0.29551617506E-01  0.51100000000E-03 0. -1.
</event>
<event>
 8    1  0.1119901E+005  0.1043930E+01  0.7957747E-01            NaN
         13   -1    0    0    0    0  0.00000000000E+00  0.00000000000E+00  0.74505805969E-08  0.10566000000E+00  0.10566000000E+00 0.  1.
     999900   -1    0    0    0    0 -0.00000000000E+00 -0.00000000000E+00 -0.74505805969E-08  0.93827000000E+00  0.93827000000E+00 0.  1.
     999902    2    1    2    0    0  0.91167131256E-02  0.18917864044E-01 -0.85886352176E-02  0.10212415736E+01  0.10209895136E+01 0.  0.
     999903    2    3    3    0    0 -0.11141216423E+00 -0.62166973507E-01  0.65602649511E-02  0.12920376591E+00  0.19317689158E-01 0.  0.
         14    1    1    2    0    0 -0.91167131256E-02 -0.18917864044E-01  0.85886352176E-02  0.22688426413E-01  0.00000000000E+00 0.  1.
     999901    1    3    3    0    0  0.12052887736E+00  0.81084837551E-01 -0.15148900169E-01  0.89203780768E+00  0.88000000000E+00 0.  1.
        -11    1    4    4    0    0 -0.55256804139E-01 -0.39340465570E-01 -0.26723663798E-02  0.67885118384E-01  0.51100000000E-03 0.  1.
         11    1    4    4    0    0 -0.56155360091E-01 -0.22826507937E-01  0.92326313308E-02  0.61318647522E-01  0.51100000000E-03 0. -1.
</event>
<event>
 8    1  0.1119901E+005  0.1043930E+01  0.7957747E-01            NaN
         13   -1    0    0    0    0  0.00000000000E+00  0.00000000000E+00  0.74505805969E-08  0.10566000000E+00  0.10566000000E+00 0. -1.
     999900   -1    0    0    0    0 -0.00000000000E+00 -0.00000000000E+00 -0.74505805969E-08  0.93827000000E+00  0.93827000000E+00 0.  1.
     999902    2    1    2    0    0 -0.38807397528E-02  0.23582320535E-01 -0.25784814242E-02  0.10198918106E+01  0.10196084890E+01 0.  0.
     999903    2    3    3    0    0 -0.47510491405E-01  0.66441573606E-01 -0.10202274846E+00  0.13218147888E+00  0.19788194981E-01 0.  0.
         14    1    1    2    0    0  0.38807397528E-02 -0.23582320535E-01  0.25784814242E-02  0.24038189393E-01  0.00000000000E+00 0.  1.
     999901    1    3    3    0    0  0.43629751652E-01 -0.42859253071E-01  0.99444267031E-01  0.88771033172E+00  0.88000000000E+00 0. -1.
        -11    1    4    4    0    0 -0.17184056804E-01  0.22728825030E-01 -0.51236554362E-01  0.58628806225E-01  0.51100000000E-03 0. -1.
         11    1    4    4    0    0 -0.30326434601E-01  0.43712748577E-01 -0.50786194094E-01  0.73552672659E-01  0.51100000000E-03 0.  1.
</event>
<event>
 8    1  0.1119901E+005  0.1043930E+01  0.7957747E-01            NaN
         13   -1    0    0    0    0  0.00000000000E+00  0.00000000000E+00  0.74505805969E-08  0.10566000000E+00  0.10566000000E+00 0.  1.
     999900   -1    0    0    0    0 -0.00000000000E+00 -0.00000000000E+00 -0.74505805969E-08  0.93827000000E+00  0.93827000000E+00 0.  1.
     999902    2    1    2    0    0 -0.13517177154E-02 -0.22070960829E-01  0.97314420033E-02  0.10197710386E+01  0.10194848286E+01 0.  0.
     999903    2    3    3    0    0  0.57434841194E-01 -0.32010087459E-01  0.11246695881E+00  0.13179061530E+00  0.19913381782E-01 0.  0.
         14    1    1    2    0    0  0.13517177154E-02  0.22070960829E-01 -0.97314420033E-02  0.24158961405E-01  0.00000000000E+00 0. -1.
     999901    1    3    3    0    0 -0.58786558909E-01  0.99391266298E-02 -0.10273551681E+00  0.88798042330E+00  0.88000000000E+00 0.  1.
        -11    1    4    4    0    0  0.39444259789E-01 -0.31814373647E-01  0.81410651109E-01  0.95895564214E-01  0.51100000000E-03 0. -1.
         11    1    4    4    0    0  0.17990581405E-01 -0.19571381192E-03  0.31056307702E-01  0.35895051083E-01  0.51100000000E-03 0.  1.
</event>
<event>
 8    1  0.1119901E+005  0.1043930E+01  0.7957747E-01            NaN
         13   -1    0    0    0    0  0.00000000000E+00  0.00000000000E+00  0.74505805969E-08  0.10566000000E+00  0.10566000000E+00 0.  1.
     999900   -1    0    0    0    0 -0.00000000000E+00 -0.00000000000E+00 -0.74505805969E-08  0.93827000000E+00  0.93827000000E+00 0.  1.
     999902    2    1    2    0    0  0.61578835111E-02 -0.22741099381E-01 -0.60040137793E-03  0.10203622760E+01  0.10200900631E+01 0.  0.
     999903    2    3    3    0    0 -0.80725970999E-01 -0.83270779686E-01  0.59428787244E-01  0.13198389391E+00  0.20910819067E-01 0.  0.
         14    1    1    2    0    0 -0.61578835111E-02  0.22741099381E-01  0.60040137793E-03  0.23567723951E-01  0.00000000000E+00 0. -1.
     999901    1    3    3    0    0  0.86883854510E-01  0.60529680305E-01 -0.60029188622E-01  0.88837838214E+00  0.88000000000E+00 0. -1.
        -11    1    4    4    0    0 -0.46035583642E-01 -0.37008542725E-01  0.21655610797E-01  0.62913701178E-01  0.51100000000E-03 0.  1.
         11    1    4    4    0    0 -0.34690387357E-01 -0.46262236961E-01  0.37773176448E-01  0.69070192728E-01  0.51100000000E-03 0. -1.
</event>
<event>
 8    1  0.1119901E+005  0.1043930E+01  0.7957747E-01            NaN
         13   -1    0    0    0    0  0.00000000000E+00  0.00000000000E+00  0.74505805969E-08  0.10566000000E+00  0.10566000000E+00 0.  1.
     999900   -1    0    0    0    0 -0.00000000000E+00 -0.00000000000E+00 -0.74505805969E-08  0.93827000000E+00  0.93827000000E+00 0.  1.
     999902    2    1    2    0    0 -0.33065992219E-02  0.19625774957E-01 -0.45143782653E-02  0.10235220542E+01  0.10233185776E+01 0.  0.
     999903    2    3    3    0    0 -0.90957774472E-01  0.63670847284E-01 -0.74789911121E-01  0.13528709235E+00  0.19539012766E-01 0.  0.
         14    1    1    2    0    0  0.33065992219E-02 -0.19625774957E-01  0.45143782653E-02  0.20407945810E-01  0.00000000000E+00 0. -1.
     999901    1    3    3    0    0  0.87651175250E-01 -0.44045072327E-01  0.70275532856E-01  0.88823496184E+00  0.88000000000E+00 0. -1.
        -11    1    4    4    0    0 -0.62408853234E-01  0.41463632045E-01 -0.60836365468E-01  0.96516435019E-01  0.51100000000E-03 0.  1.
         11    1    4    4    0    0 -0.28548921237E-01  0.22207215239E-01 -0.13953545653E-01  0.38770657330E-01  0.51100000000E-03 0. -1.
</event>
<event>
 8    1  0.1119901E+005  0.1043930E+01  0.7957747E-01            NaN
         13   -1    0    0    0    0  0.00000000000E+00  0.00000000000E+00  0.74505805969E-08  0.10566000000E+00  0.10566000000E+00 0.  1.
     999900   -1    0    0    0    0 -0.00000000000E+00 -0.00000000000E+00 -0.74505805969E-08  0.93827000000E+00  0.93827000000E+00 0.  1.
     999902    2    1    2    0    0 -0.84954870145E-02  0.22478835265E-01  0.85138095171E-03  0.10198842897E+01  0.10196007886E+01 0.  0.
     999903    2    3    3    0    0  0.71258698907E-02  0.57812820355E-01 -0.11605253758E+00  0.13131294002E+00  0.19539614071E-01 0.  0.
         14    1    1    2    0    0  0.84954870145E-02 -0.22478835265E-01 -0.85138095171E-03  0.24045710304E-01  0.00000000000E+00 0.  1.
     999901    1    3    3    0    0 -0.15621356905E-01 -0.35333985091E-01  0.11690391854E+00  0.88857134967E+00  0.88000000000E+00 0. -1.
        -11    1    4    4    0    0 -0.47882462954E-02  0.11517793933E-01 -0.14945578248E-01  0.19473528438E-01  0.51100000000E-03 0. -1.
         11    1    4    4    0    0  0.11914116186E-01  0.46295026423E-01 -0.10110695934E+00  0.11183941158E+00  0.51100000000E-03 0.  1.
</event>
<event>
 8    1  0.1119901E+005  0.1043930E+01  0.7957747E-01            NaN
         13   -1    0    0    0    0  0.00000000000E+00  0.00000000000E+00  0.74505805969E-08  0.10566000000E+00  0.10566000000E+00 0.  1.
     999900   -1    0    0    0    0 -0.00000000000E+00 -0.00000000000E+00 -0.74505805969E-08  0.93827000000E+00  0.93827000000E+00 0.  1.
     999902    2    1    2    0    0 -0.13044369387E-01  0.11669931893E-01 -0.13974207101E-01  0.10215330951E+01  0.10212875418E+01 0.  0.
     999903    2    3    3    0    0  0.27141415460E-01  0.59645463433E-01 -0.11461072566E+00  0.13358925807E+00  0.20401806104E-01 0.  0.
         14    1    1    2    0    0  0.13044369387E-01 -0.11669931893E-01  0.13974207101E-01  0.22396904858E-01  0.00000000000E+00 0.  1.
     999901    1    3    3    0    0 -0.40185784847E-01 -0.47975531540E-01  0.10063651856E+00  0.88794383707E+00  0.88000000000E+00 0. -1.
        -11    1    4    4    0    0  0.20761757362E-01  0.27485184577E-01 -0.72045864858E-01  0.79858335220E-01  0.51100000000E-03 0. -1.
         11    1    4    4    0    0  0.63796580978E-02  0.32160278856E-01 -0.42564860807E-01  0.53730922848E-01  0.51100000000E-03 0.  1.
</event>
<event>
 8    1  0.1119901E+005  0.1043930E+01  0.7957747E-01            NaN
         13   -1    0    0    0    0  0.00000000000E+00  0.00000000000E+00  0.74505805969E-08  0.10566000000E+00  0.10566000000E+00 0.  1.
     999900   -1    0    0    0    0 -0.00000000000E+00 -0.00000000000E+00 -0.74505805969E-08  0.93827000000E+00  0.93827000000E+00 0. -1.
     999902    2    1    2    0    0 -0.88140950751E-02  0.11028262782E-02 -0.22208534948E-01  0.10200108963E+01  0.10197304080E+01 0.  0.
     999903    2    3    3    0    0  0.28669089503E-01  0.10417230758E+00  0.66642505560E-01  0.12876299896E+00  0.21561539675E-01 0.  0.
         14    1    1    2    0    0  0.88140950751E-02 -0.11028262782E-02  0.22208534948E-01  0.23919103711E-01  0.00000000000E+00 0.  1.
     999901    1    3    3    0    0 -0.37483184578E-01 -0.10306948130E+00 -0.88851040508E-01  0.89124789733E+00  0.88000000000E+00 0. -1.
        -11    1    4    4    0    0  0.17555446850E-01  0.86033267485E-01  0.60440727723E-01  0.10659859060E+00  0.51100000000E-03 0.  1.
         11    1    4    4    0    0  0.11113642653E-01  0.18139040096E-01  0.62017778363E-02  0.22164408360E-01  0.51100000000E-03 0. -1.
</event>
<event>
 8    1  0.1119901E+005  0.1043930E+01  0.7957747E-01            NaN
         13   -1    0    0    0    0  0.00000000000E+00  0.00000000000E+00  0.74505805969E-08  0.10566000000E+00  0.10566000000E+00 0. -1.
     999900   -1    0    0    0    0 -0.00000000000E+00 -0.00000000000E+00 -0.74505805969E-08  0.93827000000E+00  0.93827000000E+00 0.  1.
     999902    2    1    2    0    0 -0.19969097618E-01 -0.10825957353E-01  0.46416182013E-02  0.10207457202E+01  0.10204823930E+01 0.  0.
     999903    2    3    3    0    0  0.52112924941E-01 -0.10861135511E+00  0.48040424823E-01  0.13134071769E+00  0.20744114897E-01 0.  0.
         14    1    1    2    0    0  0.19969097618E-01  0.10825957353E-01 -0.46416182013E-02  0.23184279842E-01  0.00000000000E+00 0. -1.
     999901    1    3    3    0    0 -0.72082022558E-01  0.97785397756E-01 -0.43398806622E-01  0.88940500246E+00  0.88000000000E+00 0.  1.
        -11    1    4    4    0    0  0.22831571034E-01 -0.70843238918E-01  0.30229582394E-01  0.80337624492E-01  0.51100000000E-03 0. -1.
         11    1    4    4    0    0  0.29281353906E-01 -0.37768116191E-01  0.17810842429E-01  0.51003093203E-01  0.51100000000E-03 0.  1.
</event>
<event>
 8    1  0.1119901E+005  0.1043930E+01  0.7957747E-01            NaN
         13   -1    0    0    0    0  0.00000000000E+00  0.00000000000E+00  0.74505805969E-08  0.10566000000E+00  0.10566000000E+00 0. -1.
     999900   -1    0    0    0    0 -0.00000000000E+00 -0.00000000000E+00 -0.74505805969E-08  0.93827000000E+00  0.93827000000E+00 0.  1.
     999902    2    1    2    0    0  0.11918011222E-02  0.21086541595E-01  0.58159427516E-02  0.10220236581E+01  0.10217888578E+01 0.  0.
     999903    2    3    3    0    0 -0.10895248862E+00 -0.23365254030E-01 -0.64460627452E-01  0.13126750569E+00  0.25678895757E-01 0.  0.
         14    1    1    2    0    0 -0.11918011222E-02 -0.21086541595E-01 -0.58159427516E-02  0.21906341923E-01  0.00000000000E+00 0.  1.
     999901    1    3    3    0    0  0.11014428974E+00  0.44451795625E-01  0.70276570203E-01  0.89075615239E+00  0.88000000000E+00 0.  1.
        -11    1    4    4    0    0 -0.38309951953E-01 -0.19294792522E-01 -0.31412214699E-01  0.53168879906E-01  0.51100000000E-03 0. -1.
         11    1    4    4    0    0 -0.70642536662E-01 -0.40704615073E-02 -0.33048412753E-01  0.78098625785E-01  0.51100000000E-03 0.  1.
</event>
<event>
 8    1  0.1119901E+005  0.1043930E+01  0.7957747E-01            NaN
         13   -1    0    0    0    0  0.00000000000E+00  0.00000000000E+00  0.74505805969E-08  0.10566000000E+00  0.10566000000E+00 0. -1.
     999900   -1    0    0    0    0 -0.00000000000E+00 -0.00000000000E+00 -0.74505805969E-08  0.93827000000E+00  0.93827000000E+00 0.  1.
     999902    2    1    2    0    0  0.12215108778E-01 -0.62345078789E-02  0.18679511388E-01  0.10207566939E+01  0.10204936188E+01 0.  0.
     999903    2    3    3    0    0  0.31931836923E-01 -0.11696626745E+00  0.50817423526E-01  0.13301623781E+00  0.20252383966E-01 0.  0.
         14    1    1    2    0    0 -0.12215108778E-01  0.62345078789E-02 -0.18679511388E-01  0.23173306122E-01  0.00000000000E+00 0. -1.
     999901    1    3    3    0    0 -0.19716728146E-01  0.11073175957E+00 -0.32137912138E-01  0.88774045607E+00  0.88000000000E+00 0. -1.
        -11    1    4    4    0    0  0.23831940269E-01 -0.55944097428E-01  0.31573173701E-01  0.68518828307E-01  0.51100000000E-03 0. -1.
         11    1    4    4    0    0  0.80998966542E-02 -0.61022170022E-01  0.19244249825E-01  0.64497409500E-01  0.51100000000E-03 0.  1.
</event>
<event>
 8    1  0.1119901E+005  0.1043930E+01  0.7957747E-01            NaN
         13   -1    0    0    0    0  0.00000000000E+00  0.00000000000E+00  0.74505805969E-08  0.10566000000E+00  0.10566000000E+00 0.  1.
     999900   -1    0    0    0    0 -0.00000000000E+00 -0.00000000000E+00 -0.74505805969E-08  0.93827000000E+00  0.93827000000E+00 0.  1.
     999902    2    1    2    0    0  0.11259906729E-01 -0.17635578748E-01 -0.72787377661E-02  0.10217764639E+01  0.10215362759E+01 0.  0.
     999903    2    3    3    0    0  0.12690189061E+00  0.25775920989E-01  0.21247473115E-01  0.13269189457E+00  0.19677292220E-01 0.  0.
         14    1    1    2    0    0 -0.11259906729E-01  0.17635578748E-01  0.72787377661E-02  0.22153536079E-01  0.00000000000E+00 0.  1.
     999901    1    3    3    0    0 -0.11564198388E+00 -0.43411499737E-01 -0.28526210881E-01  0.88908456935E+00  0.88000000000E+00 0.  1.
        -11    1    4    4    0    0  0.11102347058E+00  0.19944081611E-01  0.24567454902E-01  0.11544608426E+00  0.51100000000E-03 0. -1.
         11    1    4    4    0    0  0.15878420031E-01  0.58318393785E-02 -0.33199817872E-02  0.17245810311E-01  0.51100000000E-03 0.  1.
</event>
<event>
 8    1  0.1119901E+005  0.1043930E+01  0.7957747E-01            NaN
         13   -1    0    0    0    0  0.00000000000E+00  0.00000000000E+00  0.74505805969E-08  0.10566000000E+00  0.10566000000E+00 0. -1.
     999900   -1    0    0    0    0 -0.00000000000E+00 -0.00000000000E+00 -0.74505805969E-08  0.93827000000E+00  0.93827000000E+00 0. -1.
     999902    2    1    2    0    0 -0.66759182888E-02 -0.71136057052E-02 -0.29854594342E-01  0.10125219107E+01  0.10120346593E+01 0.  0.
     999903    2    3    3    0    0  0.37023093976E-01  0.15667168202E-01 -0.11850464600E+00  0.12669608187E+00  0.19808492873E-01 0.  0.
         14    1    1    2    0    0  0.66759182888E-02  0.71136057052E-02  0.29854594342E-01  0.31408089316E-01  0.00000000000E+00 0. -1.
     999901    1    3    3    0    0 -0.43699012265E-01 -0.22780773907E-01  0.88650051662E-01  0.88582582881E+00  0.88000000000E+00 0.  1.
        -11    1    4    4    0    0  0.22610884381E-01 -0.49411199263E-03 -0.70262532191E-01  0.73814502573E-01  0.51100000000E-03 0. -1.
         11    1    4    4    0    0  0.14412209595E-01  0.16161280195E-01 -0.48242113813E-01  0.52881579298E-01  0.51100000000E-03 0.  1.
</event>
<event>
 8    1  0.1119901E+005  0.1043930E+01  0.7957747E-01            NaN
         13   -1    0    0    0    0  0.00000000000E+00  0.00000000000E+00  0.74505805969E-08  0.10566000000E+00  0.10566000000E+00 0. -1.
     999900   -1    0    0    0    0 -0.00000000000E+00 -0.00000000000E+00 -0.74505805969E-08  0.93827000000E+00  0.93827000000E+00 0.  1.
     999902    2    1    2    0    0  0.12240799957E-01 -0.53714659986E-02  0.18817017319E-01  0.10208481896E+01  0.10205872115E+01 0.  0.
     999903    2    3    3    0    0  0.91387506469E-01 -0.87027278390E-01  0.37975550225E-01  0.13332414923E+00  0.20193138212E-01 0.  0.
         14    1    1    2    0    0 -0.12240799957E-01  0.53714659986E-02 -0.18817017319E-01  0.23081810400E-01  0.00000000000E+00 0.  1.
     999901    1    3    3    0    0 -0.79146706511E-01  0.81655812392E-01 -0.19158532906E-01  0.88752404037E+00  0.88000000000E+00 0. -1.
        -11    1    4    4    0    0  0.51702466165E-01 -0.59864757037E-01  0.29861347292E-01  0.84551140298E-01  0.51100000000E-03 0.  1.
         11    1    4    4    0    0  0.39685040304E-01 -0.27162521353E-01  0.81142029333E-02  0.48773008934E-01  0.51100000000E-03 0. -1.
</event>
<event>
 8    1  0.1119901E+005  0.1043930E+01  0.7957747E-01            NaN
         13   -1    0    0    0    0  0.00000000000E+00  0.00000000000E+00  0.74505805969E-08  0.10566000000E+00  0.10566000000E+00 0. -1.
     999900   -1    0    0    0    0 -0.00000000000E+00 -0.00000000000E+00 -0.74505805969E-08  0.93827000000E+00  0.93827000000E+00 0. -1.
     999902    2    1    2    0    0  0.52622242302E-02  0.19557807312E-01 -0.12255652784E-01  0.10202572339E+01  0.10199825604E+01 0.  0.
     999903    2    3    3    0    0 -0.43290019695E-02 -0.14542597273E-01 -0.12939058466E+00  0.13178921449E+00  0.19905935395E-01 0.  0.
         14    1    1    2    0    0 -0.52622242302E-02 -0.19557807312E-01  0.12255652784E-01  0.23672766122E-01  0.00000000000E+00 0. -1.
     999901    1    3    3    0    0  0.95912261996E-02  0.34100404586E-01  0.11713493187E+00  0.88846801939E+00  0.88000000000E+00 0.  1.
        -11    1    4    4    0    0 -0.89946496267E-02 -0.30840100077E-03 -0.31746519442E-01  0.33001537097E-01  0.51100000000E-03 0. -1.
         11    1    4    4    0    0  0.46656476572E-02 -0.14234196273E-01 -0.97644065216E-01  0.98787677392E-01  0.51100000000E-03 0.  1.
</event>
<event>
 8    1  0.1119901E+005  0.1043930E+01  0.7957747E-01            NaN
         13   -1    0    0    0    0  0.00000000000E+00  0.00000000000E+00  0.74505805969E-08  0.10566000000E+00  0.10566000000E+00 0. -1.
     999900   -1    0    0    0    0 -0.00000000000E+00 -0.00000000000E+00 -0.74505805969E-08  0.93827000000E+00  0.93827000000E+00 0. -1.
     999902    2    1    2    0    0 -0.10417035765E-01  0.28649381627E-03 -0.21271897929E-01  0.10202426541E+01  0.10199676382E+01 0.  0.
     999903    2    3    3    0    0 -0.57272503956E-01 -0.92833818770E-01  0.67304566175E-01  0.12967394959E+00  0.19676660211E-01 0.  0.
         14    1    1    2    0    0  0.10417035765E-01 -0.28649381627E-03  0.21271897929E-01  0.23687345870E-01  0.00000000000E+00 0. -1.
     999901    1    3    3    0    0  0.46855468191E-01  0.93120312587E-01 -0.88576464105E-01  0.89056870454E+00  0.88000000000E+00 0. -1.
        -11    1    4    4    0    0 -0.46307376374E-01 -0.66152417431E-01  0.57769548651E-01  0.99287951489E-01  0.51100000000E-03 0. -1.
         11    1    4    4    0    0 -0.10965127582E-01 -0.26681401339E-01  0.95350175244E-02  0.30385998099E-01  0.51100000000E-03 0.  1.
</event>
<event>
 8    1  0.1119901E+005  0.1043930E+01  0.7957747E-01            NaN
         13   -1    0    0    0    0  0.00000000000E+00  0.00000000000E+00  0.74505805969E-08  0.10566000000E+00  0.10566000000E+00 0.  1.
     999900   -1    0    0    0    0 -0.00000000000E+00 -0.00000000000E+00 -0.74505805969E-08  0.93827000000E+00  0.93827000000E+00 0.  1.
     999902    2    1    2    0    0 -0.14715718367E-01  0.54431180090E-02  0.18287872883E-01  0.10198338137E+01  0.10195491069E+01 0.  0.
     999903    2    3    3    0    0  0.53730466897E-01  0.51674801143E-01  0.10647129025E+00  0.13157790241E+00  0.20478296071E-01 0.  0.
         14    1    1    2    0    0  0.14715718367E-01 -0.54431180090E-02 -0.18287872883E-01  0.24096186323E-01  0.00000000000E+00 0. -1.
     999901    1    3    3    0    0 -0.68446185264E-01 -0.46231683134E-01 -0.88183417363E-01  0.88825591127E+00  0.88000000000E+00 0.  1.
        -11    1    4    4    0    0  0.25646591795E-01  0.37622018575E-01  0.69203460720E-01  0.82840473496E-01  0.51100000000E-03 0.  1.
         11    1    4    4    0    0  0.28083875102E-01  0.14052782568E-01  0.37267829525E-01  0.48737428914E-01  0.51100000000E-03 0. -1.
</event>
<event>
 8    1  0.1119901E+005  0.1043930E+01  0.7957747E-01            NaN
         13   -1    0    0    0    0  0.00000000000E+00  0.00000000000E+00  0.74505805969E-08  0.10566000000E+00  0.10566000000E+00 0.  1.
     999900   -1    0    0    0    0 -0.00000000000E+00 -0.00000000000E+00 -0.74505805969E-08  0.93827000000E+00  0.93827000000E+00 0.  1.
     999902    2    1    2    0    0  0.12311863969E-02  0.18989436670E-01 -0.10748560747E-01  0.10220748843E+01  0.10218411926E+01 0.  0.
     999903    2    3    3    0    0 -0.63992298863E-01 -0.86873158282E-02  0.11176515331E+00  0.13076701615E+00  0.20930342739E-01 0.  0.
         14    1    1    2    0    0 -0.12311863969E-02 -0.18989436670E-01  0.10748560747E-01  0.21855115720E-01  0.00000000000E+00 0.  1.
     999901    1    3    3    0    0  0.65223485259E-01  0.27676752499E-01 -0.12251371406E+00  0.89130786813E+00  0.88000000000E+00 0.  1.
        -11    1    4    4    0    0 -0.41536220877E-01 -0.70221733929E-02  0.90343166729E-01  0.99683085122E-01  0.51100000000E-03 0. -1.
         11    1    4    4    0    0 -0.22456077985E-01 -0.16651424354E-02  0.21421986586E-01  0.31083931027E-01  0.51100000000E-03 0.  1.
</event>
<event>
 8    1  0.1119901E+005  0.1043930E+01  0.7957747E-01            NaN
         13   -1    0    0    0    0  0.00000000000E+00  0.00000000000E+00  0.74505805969E-08  0.10566000000E+00  0.10566000000E+00 0. -1.
     999900   -1    0    0    0    0 -0.00000000000E+00 -0.00000000000E+00 -0.74505805969E-08  0.93827000000E+00  0.93827000000E+00 0. -1.
     999902    2    1    2    0    0  0.44617968446E-02  0.22028021700E-01  0.80144862558E-02  0.10200684543E+01  0.10197893303E+01 0.  0.
     999903    2    3    3    0    0  0.13634409105E-01  0.52646015331E-01  0.11901058568E+00  0.13252029653E+00  0.20990699080E-01 0.  0.
         14    1    1    2    0    0 -0.44617968446E-02 -0.22028021700E-01 -0.80144862558E-02  0.23861545655E-01  0.00000000000E+00 0.  1.
     999901    1    3    3    0    0 -0.91726122602E-02 -0.30617993631E-01 -0.11099609942E+00  0.88754815781E+00  0.88000000000E+00 0. -1.
        -11    1    4    4    0    0  0.10689166568E-02  0.27299609513E-01  0.78393712337E-01  0.83019555030E-01  0.51100000000E-03 0. -1.
         11    1    4    4    0    0  0.12565492448E-01  0.25346405817E-01  0.40616873341E-01  0.49500741502E-01  0.51100000000E-03 0.  1.
</event>
<event>
 8    1  0.1119901E+005  0.1043930E+01  0.7957747E-01            NaN
         13   -1    0    0    0    0  0.00000000000E+00  0.00000000000E+00  0.74505805969E-08  0.10566000000E+00  0.10566000000E+00 0.  1.
     999900   -1    0    0    0    0 -0.00000000000E+00 -0.00000000000E+00 -0.74505805969E-08  0.93827000000E+00  0.93827000000E+00 0. -1.
     999902    2    1    2    0    0  0.14684048923E-01  0.10276117133E-01 -0.14349886530E-01  0.10209704896E+01  0.10207123010E+01 0.  0.
     999903    2    3    3    0    0  0.11635774248E-01  0.60551958509E-01  0.11351661703E+00  0.13030400039E+00  0.17063975362E-01 0.  0.
         14    1    1    2    0    0 -0.14684048923E-01 -0.10276117133E-01  0.14349886530E-01  0.22959510437E-01  0.00000000000E+00 0.  1.
     999901    1    3    3    0    0  0.30482746752E-02 -0.50275841375E-01 -0.12786650355E+00  0.89066648917E+00  0.88000000000E+00 0. -1.
        -11    1    4    4    0    0  0.11785674390E-01  0.56943490352E-01  0.11229195779E+00  0.12645634867E+00  0.51100000000E-03 0.  1.
         11    1    4    4    0    0 -0.14990014233E-03  0.36084681571E-02  0.12246592348E-02  0.38476517169E-02  0.51100000000E-03 0. -1.
</event>
<event>
 8    1  0.1119901E+005  0.1043930E+01  0.7957747E-01            NaN
         13   -1    0    0    0    0  0.00000000000E+00  0.00000000000E+00  0.74505805969E-08  0.10566000000E+00  0.10566000000E+00 0. -1.
     999900   -1    0    0    0    0 -0.00000000000E+00 -0.00000000000E+00 -0.74505805969E-08  0.93827000000E+00  0.93827000000E+00 0. -1.
     999902    2    1    2    0    0  0.14825127209E-01  0.17308798171E-02 -0.17393234450E-01  0.10210104680E+01  0.10207531880E+01 0.  0.
     999903    2    3    3    0    0 -0.20210991871E-01 -0.12649229299E+00 -0.15391202460E-01  0.13102579409E+00  0.22849184392E-01 0.  0.
         14    1    1    2    0    0 -0.14825127209E-01 -0.17308798171E-02  0.17393234450E-01  0.22919531983E-01  0.00000000000E+00 0. -1.
     999901    1    3    3    0    0  0.35036119080E-01  0.12822317280E+00 -0.20020319893E-02  0.88998467392E+00  0.88000000000E+00 0. -1.
        -11    1    4    4    0    0  0.43731759883E-02 -0.35154422245E-01 -0.64831223709E-02  0.36017357875E-01  0.51100000000E-03 0. -1.
         11    1    4    4    0    0 -0.24584167859E-01 -0.91337870743E-01 -0.89080800896E-02  0.95008436220E-01  0.51100000000E-03 0.  1.
</event>
<event>
 8    1  0.1119901E+005  0.1043930E+01  0.7957747E-01            NaN
         13   -1    0    0    0    0  0.00000000000E+00  0.00000000000E+00  0.74505805969E-08  0.10566000000E+00  0.10566000000E+00 0.  1.
     999900   -1    0    0    0    0 -0.00000000000E+00 -0.00000000000E+00 -0.74505805969E-08  0.93827000000E+00  0.93827000000E+00 0. -1.
     999902    2    1    2    0    0  0.97918767647E-02  0.52134562781E-02 -0.20958516531E-01  0.10202167043E+01  0.10199410784E+01 0.  0.
     999903    2    3    3    0    0 -0.83222195579E-02 -0.11490002336E-01  0.12505493399E+00  0.12784511482E+00  0.22457902278E-01 0.  0.
         14    1    1    2    0    0 -0.97918767647E-02 -0.52134562781E-02  0.20958516531E-01  0.23713295682E-01  0.00000000000E+00 0.  1.
     999901    1    3    3    0    0  0.18114096323E-01  0.16703458614E-01 -0.14601345052E+00  0.89237158950E+00  0.88000000000E+00 0. -1.
        -11    1    4    4    0    0  0.27066383722E-02 -0.40632408502E-02  0.48319251958E-02  0.68879924204E-02  0.51100000000E-03 0. -1.
         11    1    4    4    0    0 -0.11028857930E-01 -0.74267614857E-02  0.12022300880E+00  0.12095712240E+00  0.51100000000E-03 0.  1.
</event>
<event>
 8    1  0.1119901E+005  0.1043930E+01  0.7957747E-01            NaN
         13   -1    0    0    0    0  0.00000000000E+00  0.00000000000E+00  0.74505805969E-08  0.10566000000E+00  0.10566000000E+00 0.  1.
     999900   -1    0    0    0    0 -0.00000000000E+00 -0.00000000000E+00 -0.74505805969E-08  0.93827000000E+00  0.93827000000E+00 0. -1.
     999902    2    1    2    0    0  0.14005230642E-01 -0.29351281938E-02  0.19233640336E-01  0.10199572158E+01  0.10196754521E+01 0.  0.
     999903    2    3    3    0    0  0.95116962936E-01 -0.47408190785E-02  0.91028326707E-01  0.13331362863E+00  0.20412136384E-01 0.  0.
         14    1    1    2    0    0 -0.14005230642E-01  0.29351281938E-02 -0.19233640336E-01  0.23972784224E-01  0.00000000000E+00 0.  1.
     999901    1    3    3    0    0 -0.81111732294E-01  0.18056908847E-02 -0.71794686371E-01  0.88664358715E+00  0.88000000000E+00 0. -1.
        -11    1    4    4    0    0  0.30726259958E-01  0.47019248550E-02  0.19939749485E-01  0.36933262500E-01  0.51100000000E-03 0.  1.
         11    1    4    4    0    0  0.64390702978E-01 -0.94427439335E-02  0.71088577222E-01  0.96380366131E-01  0.51100000000E-03 0. -1.
</event>
<event>
 8    1  0.1119901E+005  0.1043930E+01  0.7957747E-01            NaN
         13   -1    0    0    0    0  0.00000000000E+00  0.00000000000E+00  0.74505805969E-08  0.10566000000E+00  0.10566000000E+00 0. -1.
     999900   -1    0    0    0    0 -0.00000000000E+00 -0.00000000000E+00 -0.74505805969E-08  0.93827000000E+00  0.93827000000E+00 0. -1.
     999902    2    1    2    0    0  0.45504611777E-02 -0.21265017693E-01  0.83534092203E-02  0.10206343541E+01  0.10203684617E+01 0.  0.
     999903    2    3    3    0    0 -0.55362534420E-01 -0.39240101633E-01 -0.10980227789E+00  0.13053692283E+00  0.19456417906E-01 0.  0.
         14    1    1    2    0    0 -0.45504611777E-02  0.21265017693E-01 -0.83534092203E-02  0.23295645945E-01  0.00000000000E+00 0.  1.
     999901    1    3    3    0    0  0.59912995598E-01  0.17975083940E-01  0.11815568711E+00  0.89009743123E+00  0.88000000000E+00 0.  1.
        -11    1    4    4    0    0 -0.12902703118E-01 -0.13557137509E-02 -0.28273873572E-01  0.31112549804E-01  0.51100000000E-03 0.  1.
         11    1    4    4    0    0 -0.42459831302E-01 -0.37884387882E-01 -0.81528404316E-01  0.99424373022E-01  0.51100000000E-03 0. -1.
</event>
<event>
 8    1  0.1119901E+005  0.1043930E+01  0.7957747E-01            NaN
         13   -1    0    0    0    0  0.00000000000E+00  0.00000000000E+00  0.74505805969E-08  0.10566000000E+00  0.10566000000E+00 0. -1.
     999900   -1    0    0    0    0 -0.00000000000E+00 -0.00000000000E+00 -0.74505805969E-08  0.93827000000E+00  0.93827000000E+00 0. -1.
     999902    2    1    2    0    0  0.10658751499E-01  0.19431992807E-02 -0.21166568957E-01  0.10201516769E+01  0.10198745194E+01 0.  0.
     999903    2    3    3    0    0  0.93244613446E-01  0.91655616896E-01 -0.56609333277E-02  0.13160839311E+00  0.13907297590E-01 0.  0.
         14    1    1    2    0    0 -0.10658751499E-01 -0.19431992807E-02  0.21166568957E-01  0.23778323077E-01  0.00000000000E+00 0.  1.
     999901    1    3    3    0    0 -0.82585861947E-01 -0.89712417615E-01 -0.15505635629E-01  0.88854328381E+00  0.88000000000E+00 0. -1.
        -11    1    4    4    0    0  0.63532016497E-01  0.66655268740E-01 -0.95576746039E-02  0.92578897357E-01  0.51100000000E-03 0. -1.
         11    1    4    4    0    0  0.29712596949E-01  0.25000348157E-01  0.38967412762E-02  0.39029495756E-01  0.51100000000E-03 0.  1.
</event>
<event>
 8    1  0.1119901E+005  0.1043930E+01  0.7957747E-01            NaN
         13   -1    0    0    0    0  0.00000000000E+00  0.00000000000E+00  0.74505805969E-08  0.10566000000E+00  0.10566000000E+00 0.  1.
     999900   -1    0    0    0    0 -0.00000000000E+00 -0.00000000000E+00 -0.74505805969E-08  0.93827000000E+00  0.93827000000E+00 0.  1.
     999902    2    1    2    0    0  0.63400575764E-02  0.36136591492E-02 -0.23320262169E-01  0.10194945853E+01  0.10192017072E+01 0.  0.
     999903    2    3    3    0    0  0.17614949080E-01 -0.86372248492E-01 -0.95936740299E-01  0.13185854525E+00  0.20306798745E-01 0.  0.
         14    1    1    2    0    0 -0.63400575764E-02 -0.36136591492E-02  0.23320262169E-01  0.24435414672E-01  0.00000000000E+00 0.  1.
     999901    1    3    3    0    0 -0.11274891504E-01  0.89985907641E-01  0.72616478129E-01  0.88763604008E+00  0.88000000000E+00 0. -1.
        -11    1    4    4    0    0  0.14144152745E-01 -0.31653974687E-01 -0.28081793989E-01  0.44619272125E-01  0.51100000000E-03 0. -1.
         11    1    4    4    0    0  0.34707963356E-02 -0.54718273806E-01 -0.67854946310E-01  0.87239273124E-01  0.51100000000E-03 0.  1.
</event>
<event>
 8    1  0.1212062E+005  0.1043930E+01  0.7957747E-01            NaN
         13   -1    0    0    0    0  0.00000000000E+00  0.00000000000E+00  0.74505805969E-08  0.10566000000E+00  0.10566000000E+00 0. -1.
     999900   -1    0    0    0    0 -0.00000000000E+00 -0.00000000000E+00 -0.74505805969E-08  0.93827000000E+00  0.93827000000E+00 0.  1.
     999902    2    1    2    0    0 -0.10682708981E-01  0.39219685770E-02 -0.20609440757E-01  0.10203874607E+01  0.10201158360E+01 0.  0.
     999903    2    3    3    0    0 -0.91008546757E-01  0.89739019288E-01  0.23860889205E-01  0.13145865778E+00  0.19400760436E-01 0.  0.
         14    1    1    2    0    0  0.10682708981E-01 -0.39219685770E-02  0.20609440757E-01  0.23542539307E-01  0.00000000000E+00 0. -1.
     999901    1    3    3    0    0  0.80325837775E-01 -0.85817050711E-01 -0.44470329962E-01  0.88892880292E+00  0.88000000000E+00 0. -1.
        -11    1    4    4    0    0 -0.52194824997E-01  0.46715297124E-01  0.22220048073E-01  0.73488845407E-01  0.51100000000E-03 0. -1.
         11    1    4    4    0    0 -0.38813721759E-01  0.43023722164E-01  0.16408411319E-02  0.57969812370E-01  0.51100000000E-03 0.  1.
</event>
<event>
 8    1  0.1119901E+005  0.1043930E+01  0.7957747E-01            NaN
         13   -1    0    0    0    0  0.00000000000E+00  0.00000000000E+00  0.74505805969E-08  0.10566000000E+00  0.10566000000E+00 0. -1.
     999900   -1    0    0    0    0 -0.00000000000E+00 -0.00000000000E+00 -0.74505805969E-08  0.93827000000E+00  0.93827000000E+00 0.  1.
     999902    2    1    2    0    0 -0.11889342494E-01 -0.15490766379E-01  0.13696242323E-01  0.10200782210E+01  0.10197993281E+01 0.  0.
     999903    2    3    3    0    0 -0.82605686457E-01  0.38506943077E-01 -0.91272891614E-01  0.12938463002E+00  0.10156655006E-01 0.  0.
         14    1    1    2    0    0  0.11889342494E-01  0.15490766379E-01 -0.13696242323E-01  0.23851779005E-01  0.00000000000E+00 0.  1.
     999901    1    3    3    0    0  0.70716343962E-01 -0.53997709456E-01  0.10496913394E+00  0.89069359098E+00  0.88000000000E+00 0. -1.
        -11    1    4    4    0    0 -0.28648672383E-01  0.81563295272E-02 -0.30155803371E-01  0.42389924966E-01  0.51100000000E-03 0.  1.
         11    1    4    4    0    0 -0.53957014073E-01  0.30350613550E-01 -0.61117088242E-01  0.86994705050E-01  0.51100000000E-03 0. -1.
</event>
<event>
 8    1  0.1119901E+005  0.1043930E+01  0.7957747E-01            NaN
         13   -1    0    0    0    0  0.00000000000E+00  0.00000000000E+00  0.74505805969E-08  0.10566000000E+00  0.10566000000E+00 0. -1.
     999900   -1    0    0    0    0 -0.00000000000E+00 -0.00000000000E+00 -0.74505805969E-08  0.93827000000E+00  0.93827000000E+00 0. -1.
     999902    2    1    2    0    0  0.34325967170E-02  0.17333438171E-01 -0.14928944022E-01  0.10207976813E+01  0.10205355466E+01 0.  0.
     999903    2    3    3    0    0 -0.73720318432E-01 -0.96454553510E-01 -0.40801951497E-01  0.12974791171E+00  0.20773904395E-01 0.  0.
         14    1    1    2    0    0 -0.34325967170E-02 -0.17333438171E-01  0.14928944022E-01  0.23132318705E-01  0.00000000000E+00 0. -1.
     999901    1    3    3    0    0  0.77152915149E-01  0.11378799168E+00  0.25873007475E-01  0.89104976959E+00  0.88000000000E+00 0.  1.
        -11    1    4    4    0    0 -0.62962665623E-01 -0.74883825015E-01 -0.39783312730E-01  0.10561655933E+00  0.51100000000E-03 0. -1.
         11    1    4    4    0    0 -0.10757652809E-01 -0.21570728495E-01 -0.10186387673E-02  0.24131352380E-01  0.51100000000E-03 0.  1.
</event>
<event>
 8    1  0.1119901E+005  0.1043930E+01  0.7957747E-01            NaN
         13   -1    0    0    0    0  0.00000000000E+00  0.00000000000E+00  0.74505805969E-08  0.10566000000E+00  0.10566000000E+00 0.  1.
     999900   -1    0    0    0    0 -0.00000000000E+00 -0.00000000000E+00 -0.74505805969E-08  0.93827000000E+00  0.93827000000E+00 0.  1.
     999902    2    1    2    0    0 -0.62398836044E-02 -0.22339216050E-01 -0.73403920669E-02  0.10196018666E+01  0.10193115854E+01 0.  0.
     999903    2    3    3    0    0 -0.10067368091E+00  0.48640078236E-01 -0.63221921845E-01  0.12995106559E+00  0.19728679810E-01 0.  0.
         14    1    1    2    0    0  0.62398836044E-02  0.22339216050E-01  0.73403920669E-02  0.24328133443E-01  0.00000000000E+00 0.  1.
     999901    1    3    3    0    0  0.94433797307E-01 -0.70979294286E-01  0.55881529778E-01  0.88965080097E+00  0.88000000000E+00 0.  1.
        -11    1    4    4    0    0 -0.76092866834E-01  0.41261850172E-01 -0.56658659444E-01  0.10345593010E+00  0.51100000000E-03 0.  1.
         11    1    4    4    0    0 -0.24580814077E-01  0.73782280637E-02 -0.65632624011E-02  0.26495135486E-01  0.51100000000E-03 0. -1.
</event>
<event>
 8    1  0.1119901E+005  0.1043930E+01  0.7957747E-01            NaN
         13   -1    0    0    0    0  0.00000000000E+00  0.00000000000E+00  0.74505805969E-08  0.10566000000E+00  0.10566000000E+00 0. -1.
     999900   -1    0    0    0    0 -0.00000000000E+00 -0.00000000000E+00 -0.74505805969E-08  0.93827000000E+00  0.93827000000E+00 0. -1.
     999902    2    1    2    0    0  0.80602827139E-02  0.18890966585E-01  0.12183772257E-01  0.10200494413E+01  0.10197698670E+01 0.  0.
     999903    2    3    3    0    0  0.11330051346E+00 -0.18500061944E-02  0.63959109577E-01  0.13202557922E+00  0.22350771760E-01 0.  0.
         14    1    1    2    0    0 -0.80602827139E-02 -0.18890966585E-01 -0.12183772257E-01  0.23880558669E-01  0.00000000000E+00 0.  1.
     999901    1    3    3    0    0 -0.10524023074E+00  0.20740972780E-01 -0.51775337320E-01  0.88802386211E+00  0.88000000000E+00 0.  1.
        -11    1    4    4    0    0  0.48551456251E-01  0.97800226154E-02  0.31155756416E-01  0.58513545657E-01  0.51100000000E-03 0. -1.
         11    1    4    4    0    0  0.64749057207E-01 -0.11630028810E-01  0.32803353161E-01  0.73512033566E-01  0.51100000000E-03 0.  1.
</event>
<event>
 8    1  0.1119901E+005  0.1043930E+01  0.7957747E-01            NaN
         13   -1    0    0    0    0  0.00000000000E+00  0.00000000000E+00  0.74505805969E-08  0.10566000000E+00  0.10566000000E+00 0. -1.
     999900   -1    0    0    0    0 -0.00000000000E+00 -0.00000000000E+00 -0.74505805969E-08  0.93827000000E+00  0.93827000000E+00 0. -1.
     999902    2    1    2    0    0  0.10193941073E-01 -0.87835586657E-02 -0.19020502973E-01  0.10206309255E+01  0.10203649540E+01 0.  0.
     999903    2    3    3    0    0 -0.11148334700E+00  0.35483506936E-01 -0.54183133391E-01  0.13046164607E+00  0.19920171418E-01 0.  0.
         14    1    1    2    0    0 -0.10193941073E-01  0.87835586657E-02  0.19020502973E-01  0.23299074462E-01  0.00000000000E+00 0. -1.
     999901    1    3    3    0    0  0.12167728807E+00 -0.44267065602E-01  0.35162630418E-01  0.89016927947E+00  0.88000000000E+00 0.  1.
        -11    1    4    4    0    0 -0.70954728720E-01  0.27455478886E-01 -0.25822569376E-01  0.80345771878E-01  0.51100000000E-03 0.  1.
         11    1    4    4    0    0 -0.40528618278E-01  0.80280280503E-02 -0.28360564015E-01  0.50115874193E-01  0.51100000000E-03 0. -1.
</event>
<event>
 8    1  0.1119901E+005  0.1043930E+01  0.7957747E-01            NaN
         13   -1    0    0    0    0  0.00000000000E+00  0.00000000000E+00  0.74505805969E-08  0.10566000000E+00  0.10566000000E+00 0. -1.
     999900   -1    0    0    0    0 -0.00000000000E+00 -0.00000000000E+00 -0.74505805969E-08  0.93827000000E+00  0.93827000000E+00 0.  1.
     999902    2    1    2    0    0  0.12872116332E-01 -0.15740740805E-01  0.41169404588E-02  0.10231836389E+01  0.10229732877E+01 0.  0.
     999903    2    3    3    0    0  0.11048440650E+00  0.52031232211E-01 -0.50544623853E-01  0.13351567493E+00  0.18910929242E-01 0.  0.
         14    1    1    2    0    0 -0.12872116332E-01  0.15740740805E-01 -0.41169404588E-02  0.20746361095E-01  0.00000000000E+00 0. -1.
     999901    1    3    3    0    0 -0.97612290170E-01 -0.67771973016E-01  0.54661564311E-01  0.88966796398E+00  0.88000000000E+00 0. -1.
        -11    1    4    4    0    0  0.53924833569E-01  0.29169266754E-01 -0.15823220518E-01  0.63319580123E-01  0.51100000000E-03 0.  1.
         11    1    4    4    0    0  0.56559572933E-01  0.22861965457E-01 -0.34721403335E-01  0.70196094802E-01  0.51100000000E-03 0. -1.
</event>
<event>
 8    1  0.1119901E+005  0.1043930E+01  0.7957747E-01            NaN
         13   -1    0    0    0    0  0.00000000000E+00  0.00000000000E+00  0.74505805969E-08  0.10566000000E+00  0.10566000000E+00 0. -1.
     999900   -1    0    0    0    0 -0.00000000000E+00 -0.00000000000E+00 -0.74505805969E-08  0.93827000000E+00  0.93827000000E+00 0. -1.
     999902    2    1    2    0    0  0.13390981182E-01 -0.19868191640E-01 -0.32456762115E-02  0.10197515420E+01  0.10194648643E+01 0.  0.
     999903    2    3    3    0    0  0.78775335285E-01  0.98909726988E-01 -0.17326095852E-01  0.12925641799E+00  0.20453372608E-01 0.  0.
         14    1    1    2    0    0 -0.13390981182E-01  0.19868191640E-01  0.32456762115E-02  0.24178457977E-01  0.00000000000E+00 0. -1.
     999901    1    3    3    0    0 -0.65384354103E-01 -0.11877791863E+00  0.14080419641E-01  0.89049512404E+00  0.88000000000E+00 0. -1.
        -11    1    4    4    0    0  0.21806320485E-01  0.30144573211E-01  0.40675046112E-02  0.37430156585E-01  0.51100000000E-03 0. -1.
         11    1    4    4    0    0  0.56969014800E-01  0.68765153778E-01 -0.21393600464E-01  0.91826261402E-01  0.51100000000E-03 0.  1.
</event>
<event>
 8    1  0.1119901E+005  0.1043930E+01  0.7957747E-01            NaN
         13   -1    0    0    0    0  0.00000000000E+00  0.00000000000E+00  0.74505805969E-08  0.10566000000E+00  0.10566000000E+00 0. -1.
     999900   -1    0    0    0    0 -0.00000000000E+00 -0.00000000000E+00 -0.74505805969E-08  0.93827000000E+00  0.93827000000E+00 0.  1.
     999902    2    1    2    0    0  0.19861491578E-01 -0.33405890803E-02 -0.10833373389E-01  0.10210607988E+01  0.10208046603E+01 0.  0.
     999903    2    3    3    0    0  0.50333701650E-01  0.11539182899E+00 -0.35348866187E-01  0.13222619550E+00  0.19633357230E-01 0.  0.
         14    1    1    2    0    0 -0.19861491578E-01  0.33405890803E-02  0.10833373389E-01  0.22869201169E-01  0.00000000000E+00 0.  1.
     999901    1    3    3    0    0 -0.30472210072E-01 -0.11873241807E+00  0.24515492798E-01  0.88883460333E+00  0.88000000000E+00 0. -1.
        -11    1    4    4    0    0  0.28928819474E-01  0.68980365642E-01 -0.30856622594E-01  0.80916992772E-01  0.51100000000E-03 0. -1.
         11    1    4    4    0    0  0.21404882176E-01  0.46411463351E-01 -0.44922435925E-02  0.51309202730E-01  0.51100000000E-03 0.  1.
</event>
<event>
 8    1  0.1119901E+005  0.1043930E+01  0.7957747E-01            NaN
         13   -1    0    0    0    0  0.00000000000E+00  0.00000000000E+00  0.74505805969E-08  0.10566000000E+00  0.10566000000E+00 0.  1.
     999900   -1    0    0    0    0 -0.00000000000E+00 -0.00000000000E+00 -0.74505805969E-08  0.93827000000E+00  0.93827000000E+00 0.  1.
     999902    2    1    2    0    0 -0.18084190254E-01  0.79046464118E-02 -0.20962503508E-03  0.10241925910E+01  0.10240023917E+01 0.  0.
     999903    2    3    3    0    0  0.74965266108E-01  0.88066294812E-01 -0.63269950580E-01  0.13342848312E+00  0.20606068428E-01 0.  0.
         14    1    1    2    0    0  0.18084190254E-01 -0.79046464118E-02  0.20962503508E-03  0.19737409017E-01  0.00000000000E+00 0.  1.
     999901    1    3    3    0    0 -0.93049456363E-01 -0.80161648400E-01  0.63060325545E-01  0.89076410787E+00  0.88000000000E+00 0.  1.
        -11    1    4    4    0    0  0.54012731935E-01  0.76127153767E-01 -0.50962749158E-01  0.10634933791E+00  0.51100000000E-03 0.  1.
         11    1    4    4    0    0  0.20952534173E-01  0.11939141045E-01 -0.12307201422E-01  0.27079145205E-01  0.51100000000E-03 0. -1.
</event>
<event>
 7    1  0.1119901E+005  0.1043930E+01  0.7957747E-01            NaN
         13   -1    0    0    0    0  0.00000000000E+00  0.00000000000E+00  0.74505805969E-08  0.10566000000E+00  0.10566000000E+00 0.  1.
     999900   -1    0    0    0    0 -0.00000000000E+00 -0.00000000000E+00 -0.74505805969E-08  0.93827000000E+00  0.93827000000E+00 0. -1.
     999903    2    1    2    0    0 -0.35908703161E-01 -0.10824147848E+00  0.11460569206E-02  0.11554974739E+00  0.18568199941E-01 0.  0.
         14    1    1    2    0    0  0.12297724928E-01 -0.10093463743E-01  0.36011023222E-01  0.39368843547E-01  0.00000000000E+00 0.  1.
     999901    1    1    2    0    0  0.23610978233E-01  0.11833494222E+00 -0.37157080142E-01  0.88901140907E+00  0.88000000000E+00 0. -1.
        -11    1    3    3    0    0 -0.18109760587E-01 -0.41121041707E-01 -0.75507436725E-02  0.45565100138E-01  0.51100000000E-03 0.  1.
         11    1    3    3    0    0 -0.17798942575E-01 -0.67120436771E-01  0.86968005931E-02  0.69984647250E-01  0.51100000000E-03 0. -1.
</event>
<event>
 8    1  0.1119901E+005  0.1043930E+01  0.7957747E-01            NaN
         13   -1    0    0    0    0  0.00000000000E+00  0.00000000000E+00  0.74505805969E-08  0.10566000000E+00  0.10566000000E+00 0.  1.
     999900   -1    0    0    0    0 -0.00000000000E+00 -0.00000000000E+00 -0.74505805969E-08  0.93827000000E+00  0.93827000000E+00 0.  1.
     999902    2    1    2    0    0 -0.20821621036E-01  0.90336546136E-02  0.75611187508E-03  0.10212205631E+01  0.10209680308E+01 0.  0.
     999903    2    3    3    0    0  0.14216320653E-01 -0.93764603135E-01 -0.87415735835E-01  0.13017094953E+00  0.17580121027E-01 0.  0.
         14    1    1    2    0    0  0.20821621036E-01 -0.90336546136E-02 -0.75611187508E-03  0.22709436880E-01  0.00000000000E+00 0. -1.
     999901    1    3    3    0    0 -0.35037941689E-01  0.10279825775E+00  0.88171847710E-01  0.89104961359E+00  0.88000000000E+00 0. -1.
        -11    1    4    4    0    0  0.11428746607E-01 -0.23856702625E-01 -0.25414335542E-01  0.36686619920E-01  0.51100000000E-03 0.  1.
         11    1    4    4    0    0  0.27875740460E-02 -0.69907900511E-01 -0.62001400293E-01  0.93484329608E-01  0.51100000000E-03 0. -1.
</event>
<event>
 8    1  0.1119901E+005  0.1043930E+01  0.7957747E-01            NaN
         13   -1    0    0    0    0  0.00000000000E+00  0.00000000000E+00  0.74505805969E-08  0.10566000000E+00  0.10566000000E+00 0.  1.
     999900   -1    0    0    0    0 -0.00000000000E+00 -0.00000000000E+00 -0.74505805969E-08  0.93827000000E+00  0.93827000000E+00 0. -1.
     999902    2    1    2    0    0  0.20777062594E-01 -0.10590562160E-01  0.32127137909E-02  0.10203892297E+01  0.10201176463E+01 0.  0.
     999903    2    3    3    0    0 -0.11918270220E+00 -0.33148672241E-02 -0.42419478764E-01  0.12813143707E+00  0.20068585821E-01 0.  0.
         14    1    1    2    0    0 -0.20777062594E-01  0.10590562160E-01 -0.32127137909E-02  0.23540770310E-01  0.00000000000E+00 0. -1.
     999901    1    3    3    0    0  0.13995976480E+00 -0.72756949355E-02  0.45632192555E-01  0.89225779262E+00  0.88000000000E+00 0.  1.
        -11    1    4    4    0    0 -0.28296457301E-01 -0.65779573875E-02 -0.37154029532E-02  0.29292052835E-01  0.51100000000E-03 0. -1.
         11    1    4    4    0    0 -0.90886244903E-01  0.32630901634E-02 -0.38704075811E-01  0.98839384232E-01  0.51100000000E-03 0.  1.
</event>
<event>
 8    1  0.1119901E+005  0.1043930E+01  0.7957747E-01            NaN
         13   -1    0    0    0    0  0.00000000000E+00  0.00000000000E+00  0.74505805969E-08  0.10566000000E+00  0.10566000000E+00 0.  1.
     999900   -1    0    0    0    0 -0.00000000000E+00 -0.00000000000E+00 -0.74505805969E-08  0.93827000000E+00  0.93827000000E+00 0.  1.
     999902    2    1    2    0    0  0.12473539043E-01 -0.20740063415E-01  0.12182075024E-02  0.10196973065E+01  0.10194093257E+01 0.  0.
     999903    2    3    3    0    0  0.19617510616E-01 -0.16993360390E-01 -0.12628145465E+00  0.13047222924E+00  0.20059306878E-01 0.  0.
         14    1    1    2    0    0 -0.12473539043E-01  0.20740063415E-01 -0.12182075024E-02  0.24232693540E-01  0.00000000000E+00 0.  1.
     999901    1    3    3    0    0 -0.71439715734E-02 -0.37467030252E-02  0.12749966216E+00  0.88922507722E+00  0.88000000000E+00 0. -1.
        -11    1    4    4    0    0  0.18170317165E-01 -0.51314188439E-02 -0.54003144938E-01  0.57210948859E-01  0.51100000000E-03 0. -1.
         11    1    4    4    0    0  0.14471934511E-02 -0.11861941546E-01 -0.72278309716E-01  0.73261280377E-01  0.51100000000E-03 0.  1.
</event>
<event>
 8    1  0.1119901E+005  0.1043930E+01  0.7957747E-01            NaN
         13   -1    0    0    0    0  0.00000000000E+00  0.00000000000E+00  0.74505805969E-08  0.10566000000E+00  0.10566000000E+00 0. -1.
     999900   -1    0    0    0    0 -0.00000000000E+00 -0.00000000000E+00 -0.74505805969E-08  0.93827000000E+00  0.93827000000E+00 0.  1.
     999902    2    1    2    0    0 -0.13333522662E-01 -0.17627467585E-01  0.42592459909E-02  0.10214210770E+01  0.10211730337E+01 0.  0.
     999903    2    3    3    0    0  0.10250821736E+00  0.42764797713E-01 -0.63394251316E-01  0.12920836121E+00  0.18417572019E-01 0.  0.
         14    1    1    2    0    0  0.13333522662E-01  0.17627467585E-01 -0.42592459909E-02  0.22508923041E-01  0.00000000000E+00 0.  1.
     999901    1    3    3    0    0 -0.11584174002E+00 -0.60392265298E-01  0.67653497306E-01  0.89221271574E+00  0.88000000000E+00 0.  1.
        -11    1    4    4    0    0  0.19161470036E-01  0.95343886008E-02 -0.20926845878E-01  0.29937610114E-01  0.51100000000E-03 0.  1.
         11    1    4    4    0    0  0.83346747319E-01  0.33230409112E-01 -0.42467405438E-01  0.99270751100E-01  0.51100000000E-03 0. -1.
</event>
<event>
 8    1  0.1119901E+005  0.1043930E+01  0.7957747E-01            NaN
         13   -1    0    0    0    0  0.00000000000E+00  0.00000000000E+00  0.74505805969E-08  0.10566000000E+00  0.10566000000E+00 0.  1.
     999900   -1    0    0    0    0 -0.00000000000E+00 -0.00000000000E+00 -0.74505805969E-08  0.93827000000E+00  0.93827000000E+00 0. -1.
     999902    2    1    2    0    0 -0.22249628573E-01  0.47266136223E-02 -0.58960523744E-02  0.10204321218E+01  0.10201615386E+01 0.  0.
     999903    2    3    3    0    0  0.69197227832E-01 -0.10343146454E+00 -0.23932099863E-01  0.12892441208E+00  0.23715700078E-01 0.  0.
         14    1    1    2    0    0  0.22249628573E-01 -0.47266136223E-02  0.58960523744E-02  0.23497878235E-01  0.00000000000E+00 0. -1.
     999901    1    3    3    0    0 -0.91446856405E-01  0.10815807816E+00  0.18036047489E-01  0.89150770968E+00  0.88000000000E+00 0. -1.
        -11    1    4    4    0    0  0.72383332079E-02 -0.27696467040E-01 -0.84761782936E-02  0.29859579260E-01  0.51100000000E-03 0. -1.
         11    1    4    4    0    0  0.61958894624E-01 -0.75734997499E-01 -0.15455921570E-01  0.99064832820E-01  0.51100000000E-03 0.  1.
</event>
<event>
 8    1  0.1119901E+005  0.1043930E+01  0.7957747E-01            NaN
         13   -1    0    0    0    0  0.00000000000E+00  0.00000000000E+00  0.74505805969E-08  0.10566000000E+00  0.10566000000E+00 0.  1.
     999900   -1    0    0    0    0 -0.00000000000E+00 -0.00000000000E+00 -0.74505805969E-08  0.93827000000E+00  0.93827000000E+00 0. -1.
     999902    2    1    2    0    0 -0.17420914575E-03  0.18862762066E-01 -0.12177861367E-01  0.10214770615E+01  0.10212302643E+01 0.  0.
     999903    2    3    3    0    0  0.29402300772E-01 -0.47818628111E-01  0.11487026576E+00  0.12936585520E+00  0.19728914067E-01 0.  0.
         14    1    1    2    0    0  0.17420914575E-03 -0.18862762066E-01  0.12177861367E-01  0.22452938540E-01  0.00000000000E+00 0.  1.
     999901    1    3    3    0    0 -0.29576509918E-01  0.66681390177E-01 -0.12704812713E+00  0.89211120626E+00  0.88000000000E+00 0. -1.
        -11    1    4    4    0    0  0.49901430269E-02 -0.25762973724E-01  0.44084124893E-01  0.51305979487E-01  0.51100000000E-03 0.  1.
         11    1    4    4    0    0  0.24412157746E-01 -0.22055654387E-01  0.70786140865E-01  0.78059875710E-01  0.51100000000E-03 0. -1.
</event>
<event>
 8    1  0.1119901E+005  0.1043930E+01  0.7957747E-01            NaN
         13   -1    0    0    0    0  0.00000000000E+00  0.00000000000E+00  0.74505805969E-08  0.10566000000E+00  0.10566000000E+00 0. -1.
     999900   -1    0    0    0    0 -0.00000000000E+00 -0.00000000000E+00 -0.74505805969E-08  0.93827000000E+00  0.93827000000E+00 0.  1.
     999902    2    1    2    0    0 -0.19425683814E-01  0.12318335512E-01  0.78670543272E-02  0.10196197321E+01  0.10193298823E+01 0.  0.
     999903    2    3    3    0    0  0.30618918637E-01  0.86542491778E-01  0.91211035957E-01  0.13116044385E+00  0.21365577197E-01 0.  0.
         14    1    1    2    0    0  0.19425683814E-01 -0.12318335512E-01 -0.78670543272E-02  0.24310267897E-01  0.00000000000E+00 0.  1.
     999901    1    3    3    0    0 -0.50044602451E-01 -0.74224156266E-01 -0.83343981630E-01  0.88845928825E+00  0.88000000000E+00 0.  1.
        -11    1    4    4    0    0  0.86444454298E-02  0.32663025591E-01  0.47905520026E-01  0.58624224067E-01  0.51100000000E-03 0. -1.
         11    1    4    4    0    0  0.21974473208E-01  0.53879466187E-01  0.43305515932E-01  0.72536219783E-01  0.51100000000E-03 0.  1.
</event>
<event>
 8    1  0.1119901E+005  0.1043930E+01  0.7957747E-01            NaN
         13   -1    0    0    0    0  0.00000000000E+00  0.00000000000E+00  0.74505805969E-08  0.10566000000E+00  0.10566000000E+00 0.  1.
     999900   -1    0    0    0    0 -0.00000000000E+00 -0.00000000000E+00 -0.74505805969E-08  0.93827000000E+00  0.93827000000E+00 0.  1.
     999902    2    1    2    0    0 -0.59127041880E-03  0.13686476025E-02  0.23622272010E-01  0.10202607260E+01  0.10199861345E+01 0.  0.
     999903    2    3    3    0    0  0.26146218982E-01 -0.63921206902E-01  0.11197608186E+00  0.13302679171E+00  0.19696165698E-01 0.  0.
         14    1    1    2    0    0  0.59127041880E-03 -0.13686476025E-02 -0.23622272010E-01  0.23669274004E-01  0.00000000000E+00 0. -1.
     999901    1    3    3    0    0 -0.26737489401E-01  0.65289854504E-01 -0.88353809853E-01  0.88723393429E+00  0.88000000000E+00 0.  1.
        -11    1    4    4    0    0  0.15600080624E-01 -0.19047688968E-01  0.28481934151E-01  0.37651808249E-01  0.51100000000E-03 0. -1.
         11    1    4    4    0    0  0.10546138359E-01 -0.44873517933E-01  0.83494147712E-01  0.95374983456E-01  0.51100000000E-03 0.  1.
</event>
<event>
 8    1  0.1119901E+005  0.1043930E+01  0.7957747E-01            NaN
         13   -1    0    0    0    0  0.00000000000E+00  0.00000000000E+00  0.74505805969E-08  0.10566000000E+00  0.10566000000E+00 0. -1.
     999900   -1    0    0    0    0 -0.00000000000E+00 -0.00000000000E+00 -0.74505805969E-08  0.93827000000E+00  0.93827000000E+00 0. -1.
     999902    2    1    2    0    0 -0.53577688955E-02 -0.46361751525E-02 -0.22235440276E-01  0.10205930205E+01  0.10203261728E+01 0.  0.
     999903    2    3    3    0    0  0.12773010370E+00 -0.12320072870E-01 -0.13128897501E-01  0.13050630943E+00  0.19818306335E-01 0.  0.
         14    1    1    2    0    0  0.53577688955E-02  0.46361751525E-02  0.22235440276E-01  0.23336979492E-01  0.00000000000E+00 0. -1.
     999901    1    3    3    0    0 -0.13308787259E+00  0.76838977175E-02 -0.91065427745E-02  0.89008671108E+00  0.88000000000E+00 0.  1.
        -11    1    4    4    0    0  0.87892724548E-01 -0.38645400161E-02 -0.16958372859E-01  0.89598622919E-01  0.51100000000E-03 0.  1.
         11    1    4    4    0    0  0.39837379147E-01 -0.84555328539E-02  0.38294753577E-02  0.40907686511E-01  0.51100000000E-03 0. -1.
</event>
<event>
 8    1  0.1119901E+005  0.1043930E+01  0.7957747E-01            NaN
         13   -1    0    0    0    0  0.00000000000E+00  0.00000000000E+00  0.74505805969E-08  0.10566000000E+00  0.10566000000E+00 0. -1.
     999900   -1    0    0    0    0 -0.00000000000E+00 -0.00000000000E+00 -0.74505805969E-08  0.93827000000E+00  0.93827000000E+00 0.  1.
     999902    2    1    2    0    0 -0.48203719607E-02  0.17764117660E-01 -0.14615101814E-01  0.10204267861E+01  0.10201560786E+01 0.  0.
     999903    2    3    3    0    0 -0.18498253633E-01 -0.12532528506E+00 -0.12305328951E-01  0.12876149203E+00  0.19480458062E-01 0.  0.
         14    1    1    2    0    0  0.48203719607E-02 -0.17764117660E-01  0.14615101814E-01  0.23503213889E-01  0.00000000000E+00 0. -1.
     999901    1    3    3    0    0  0.13677881672E-01  0.14308940272E+00 -0.23097728631E-02  0.89166529408E+00  0.88000000000E+00 0.  1.
        -11    1    4    4    0    0 -0.23169019190E-02 -0.66328530394E-01 -0.63534772784E-04  0.66370981132E-01  0.51100000000E-03 0.  1.
         11    1    4    4    0    0 -0.16181351714E-01 -0.58996754667E-01 -0.12241794178E-01  0.62390510898E-01  0.51100000000E-03 0. -1.
</event>
<event>
 8    1  0.1119901E+005  0.1043930E+01  0.7957747E-01            NaN
         13   -1    0    0    0    0  0.00000000000E+00  0.00000000000E+00  0.74505805969E-08  0.10566000000E+00  0.10566000000E+00 0.  1.
     999900   -1    0    0    0    0 -0.00000000000E+00 -0.00000000000E+00 -0.74505805969E-08  0.93827000000E+00  0.93827000000E+00 0.  1.
     999902    2    1    2    0    0 -0.40822782561E-02 -0.11236912480E-01 -0.20654122149E-01  0.10200652570E+01  0.10197860572E+01 0.  0.
     999903    2    3    3    0    0 -0.10686087158E+00 -0.12861210907E-02  0.69878260358E-01  0.12941461291E+00  0.21077731897E-01 0.  0.
         14    1    1    2    0    0  0.40822782561E-02  0.11236912480E-01  0.20654122149E-01  0.23864743023E-01  0.00000000000E+00 0.  1.
     999901    1    3    3    0    0  0.10277859332E+00 -0.99507913889E-02 -0.90532382507E-01  0.89065064407E+00  0.88000000000E+00 0. -1.
        -11    1    4    4    0    0 -0.41108737100E-01 -0.10739358700E-01  0.27909189731E-01  0.50837447651E-01  0.51100000000E-03 0. -1.
         11    1    4    4    0    0 -0.65752134479E-01  0.94532376093E-02  0.41969070627E-01  0.78577165259E-01  0.51100000000E-03 0.  1.
</event>
<event>
 8    1  0.1119901E+005  0.1043930E+01  0.7957747E-01            NaN
         13   -1    0    0    0    0  0.00000000000E+00  0.00000000000E+00  0.74505805969E-08  0.10566000000E+00  0.10566000000E+00 0.  1.
     999900   -1    0    0    0    0 -0.00000000000E+00 -0.00000000000E+00 -0.74505805969E-08  0.93827000000E+00  0.93827000000E+00 0. -1.
     999902    2    1    2    0    0  0.21957976333E-01  0.70270066727E-02  0.68674323486E-02  0.10198739576E+01  0.10195902100E+01 0.  0.
     999903    2    3    3    0    0 -0.45885204919E-02  0.11973758243E+00 -0.47735326813E-01  0.13061030062E+00  0.20548626106E-01 0.  0.
         14    1    1    2    0    0 -0.21957976333E-01 -0.70270066727E-02 -0.68674323486E-02  0.24056042369E-01  0.00000000000E+00 0. -1.
     999901    1    3    3    0    0  0.26546496824E-01 -0.11271057576E+00  0.54602759161E-01  0.88926365702E+00  0.88000000000E+00 0.  1.
        -11    1    4    4    0    0  0.38587565389E-02  0.57434444454E-01 -0.31722183630E-01  0.65727950425E-01  0.51100000000E-03 0.  1.
         11    1    4    4    0    0 -0.84472770307E-02  0.62303137974E-01 -0.16013143183E-01  0.64882350190E-01  0.51100000000E-03 0. -1.
</event>
<event>
 8    1  0.1119901E+005  0.1043930E+01  0.7957747E-01            NaN
         13   -1    0    0    0    0  0.00000000000E+00  0.00000000000E+00  0.74505805969E-08  0.10566000000E+00  0.10566000000E+00 0. -1.
     999900   -1    0    0    0    0 -0.00000000000E+00 -0.00000000000E+00 -0.74505805969E-08  0.93827000000E+00  0.93827000000E+00 0. -1.
     999902    2    1    2    0    0  0.15326495982E-01  0.14410570831E-01  0.10277290762E-01  0.10205165693E+01  0.10202479500E+01 0.  0.
     999903    2    3    3    0    0  0.32074483417E-01  0.11075745002E+00 -0.61389479078E-01  0.13220393173E+00  0.20327965967E-01 0.  0.
         14    1    1    2    0    0 -0.15326495982E-01 -0.14410570831E-01 -0.10277290762E-01  0.23413430679E-01  0.00000000000E+00 0. -1.
     999901    1    3    3    0    0 -0.16747987435E-01 -0.96346879191E-01  0.71666769841E-01  0.88831263760E+00  0.88000000000E+00 0.  1.
        -11    1    4    4    0    0 -0.10109243509E-02  0.24388807216E-01 -0.98869503779E-02  0.26341009742E-01  0.51100000000E-03 0. -1.
         11    1    4    4    0    0  0.33085407768E-01  0.86368642805E-01 -0.51502528700E-01  0.10586292198E+00  0.51100000000E-03 0.  1.
</event>
<event>
 8    1  0.1119901E+005  0.1043930E+01  0.7957747E-01            NaN
         13   -1    0    0    0    0  0.00000000000E+00  0.00000000000E+00  0.74505805969E-08  0.10566000000E+00  0.10566000000E+00 0. -1.
     999900   -1    0    0    0    0 -0.00000000000E+00 -0.00000000000E+00 -0.74505805969E-08  0.93827000000E+00  0.93827000000E+00 0. -1.
     999902    2    1    2    0    0 -0.54769638184E-02 -0.11685108578E-01  0.18896906767E-01  0.10210469936E+01  0.10207905423E+01 0.  0.
     999903    2    3    3    0    0 -0.93633409990E-01 -0.99726939453E-02 -0.87747378125E-01  0.13023416544E+00  0.19866187090E-01 0.  0.
         14    1    1    2    0    0  0.54769638184E-02  0.11685108578E-01 -0.18896906767E-01  0.22883006370E-01  0.00000000000E+00 0.  1.
     999901    1    3    3    0    0  0.88156446172E-01 -0.17124146327E-02  0.10664428489E+00  0.89081282819E+00  0.88000000000E+00 0.  1.
        -11    1    4    4    0    0 -0.27445899490E-01 -0.11481229730E-01 -0.22756631998E-01  0.37459597646E-01  0.51100000000E-03 0.  1.
         11    1    4    4    0    0 -0.66187510500E-01  0.15085357847E-02 -0.64990746127E-01  0.92774567795E-01  0.51100000000E-03 0. -1.
</event>
<event>
 8    1  0.1119901E+005  0.1043930E+01  0.7957747E-01            NaN
         13   -1    0    0    0    0  0.00000000000E+00  0.00000000000E+00  0.74505805969E-08  0.10566000000E+00  0.10566000000E+00 0.  1.
     999900   -1    0    0    0    0 -0.00000000000E+00 -0.00000000000E+00 -0.74505805969E-08  0.93827000000E+00  0.93827000000E+00 0.  1.
     999902    2    1    2    0    0  0.49860098012E-02  0.94102683293E-02  0.21575879577E-01  0.10198689937E+01  0.10195851276E+01 0.  0.
     999903    2    3    3    0    0 -0.52011875865E-01  0.11598897106E+00  0.27724732043E-01  0.13158661337E+00  0.19690084113E-01 0.  0.
         14    1    1    2    0    0 -0.49860098012E-02 -0.94102683293E-02 -0.21575879577E-01  0.24061006282E-01  0.00000000000E+00 0. -1.
     999901    1    3    3    0    0  0.56997885666E-01 -0.10657870273E+00 -0.61488524660E-02  0.88828238035E+00  0.88000000000E+00 0. -1.
        -11    1    4    4    0    0 -0.40919562280E-01  0.87004700300E-01  0.12316194298E-01  0.96933885791E-01  0.51100000000E-03 0.  1.
         11    1    4    4    0    0 -0.11092313585E-01  0.28984270763E-01  0.15408537745E-01  0.34652727581E-01  0.51100000000E-03 0. -1.
</event>
<event>
 8    1  0.1119901E+005  0.1043930E+01  0.7957747E-01            NaN
         13   -1    0    0    0    0  0.00000000000E+00  0.00000000000E+00  0.74505805969E-08  0.10566000000E+00  0.10566000000E+00 0.  1.
     999900   -1    0    0    0    0 -0.00000000000E+00 -0.00000000000E+00 -0.74505805969E-08  0.93827000000E+00  0.93827000000E+00 0.  1.
     999902    2    1    2    0    0  0.51540726558E-02 -0.15738001146E-01  0.17086032972E-01  0.10201354278E+01  0.10198578868E+01 0.  0.
     999903    2    3    3    0    0 -0.10019841260E+00 -0.17631126375E-01 -0.76515235105E-01  0.12892056733E+00  0.20380210339E-01 0.  0.
         14    1    1    2    0    0 -0.51540726558E-02  0.15738001146E-01 -0.17086032972E-01  0.23794572232E-01  0.00000000000E+00 0. -1.
     999901    1    3    3    0    0  0.10535248526E+00  0.18931252287E-02  0.93601268076E-01  0.89121486043E+00  0.88000000000E+00 0. -1.
        -11    1    4    4    0    0 -0.75697543526E-01 -0.14707646730E-01 -0.46453276389E-01  0.90025557352E-01  0.51100000000E-03 0. -1.
         11    1    4    4    0    0 -0.24500869075E-01 -0.29234796451E-02 -0.30061958716E-01  0.38895009982E-01  0.51100000000E-03 0.  1.
</event>
<event>
 8    1  0.1119901E+005  0.1043930E+01  0.7957747E-01            NaN
         13   -1    0    0    0    0  0.00000000000E+00  0.00000000000E+00  0.74505805969E-08  0.10566000000E+00  0.10566000000E+00 0. -1.
     999900   -1    0    0    0    0 -0.00000000000E+00 -0.00000000000E+00 -0.74505805969E-08  0.93827000000E+00  0.93827000000E+00 0. -1.
     999902    2    1    2    0    0 -0.13664009591E-02 -0.45185641275E-03  0.26366337055E-01  0.10175244143E+01  0.10171817334E+01 0.  0.
     999903    2    3    3    0    0 -0.87480470869E-01 -0.91427398922E-01  0.10446735573E-01  0.12851056960E+00  0.19850192910E-01 0.  0.
         14    1    1    2    0    0  0.13664009591E-02  0.45185641275E-03 -0.26366337055E-01  0.26405585688E-01  0.00000000000E+00 0.  1.
     999901    1    3    3    0    0  0.86114069910E-01  0.90975542510E-01  0.15919601482E-01  0.88901384471E+00  0.88000000000E+00 0. -1.
        -11    1    4    4    0    0 -0.67041898270E-01 -0.69370282529E-01  0.16384742769E-01  0.97854857511E-01  0.51100000000E-03 0. -1.
         11    1    4    4    0    0 -0.20438572599E-01 -0.22057116393E-01 -0.59380071964E-02  0.30655712093E-01  0.51100000000E-03 0.  1.
</event>
<event>
 8    1  0.1119901E+005  0.1043930E+01  0.7957747E-01            NaN
         13   -1    0    0    0    0  0.00000000000E+00  0.00000000000E+00  0.74505805969E-08  0.10566000000E+00  0.10566000000E+00 0.  1.
     999900   -1    0    0    0    0 -0.00000000000E+00 -0.00000000000E+00 -0.74505805969E-08  0.93827000000E+00  0.93827000000E+00 0. -1.
     999902    2    1    2    0    0 -0.10951208325E-01 -0.11659558138E-01 -0.17753686708E-01  0.10200329782E+01  0.10197530137E+01 0.  0.
     999903    2    3    3    0    0 -0.53513151695E-01 -0.33152921038E-01 -0.11581859361E+00  0.13330291236E+00  0.19822871683E-01 0.  0.
         14    1    1    2    0    0  0.10951208325E-01  0.11659558138E-01  0.17753686708E-01  0.23897021812E-01  0.00000000000E+00 0.  1.
     999901    1    3    3    0    0  0.42561943370E-01  0.21493362900E-01  0.98064906899E-01  0.88673006582E+00  0.88000000000E+00 0.  1.
        -11    1    4    4    0    0 -0.44036697454E-02 -0.11877890596E-02 -0.14788036510E-02  0.48219426909E-02  0.51100000000E-03 0. -1.
         11    1    4    4    0    0 -0.49109481950E-01 -0.31965131978E-01 -0.11433978996E+00  0.12848096967E+00  0.51100000000E-03 0.  1.
</event>
<event>
 8    1  0.1119901E+005  0.1043930E+01  0.7957747E-01            NaN
         13   -1    0    0    0    0  0.00000000000E+00  0.00000000000E+00  0.74505805969E-08  0.10566000000E+00  0.10566000000E+00 0. -1.
     999900   -1    0    0    0    0 -0.00000000000E+00 -0.00000000000E+00 -0.74505805969E-08  0.93827000000E+00  0.93827000000E+00 0.  1.
     999902    2    1    2    0    0  0.20013105587E-01 -0.10741288672E-01  0.92244714682E-02  0.10194148914E+01  0.10191200764E+01 0.  0.
     999903    2    3    3    0    0 -0.99541920813E-01 -0.34256828625E-01  0.71579955028E-01  0.12883384997E+00  0.19807741677E-01 0.  0.
         14    1    1    2    0    0 -0.20013105587E-01  0.10741288672E-01 -0.92244714682E-02  0.24515108636E-01  0.00000000000E+00 0.  1.
     999901    1    3    3    0    0  0.11955502640E+00  0.23515539953E-01 -0.62355483559E-01  0.89058104139E+00  0.88000000000E+00 0.  1.
        -11    1    4    4    0    0 -0.50010290398E-01 -0.13409637675E-01  0.24063614093E-01  0.57097864868E-01  0.51100000000E-03 0. -1.
         11    1    4    4    0    0 -0.49531630415E-01 -0.20847190950E-01  0.47516340935E-01  0.71735985104E-01  0.51100000000E-03 0.  1.
</event>
<event>
 8    1  0.1119901E+005  0.1043930E+01  0.7957747E-01            NaN
         13   -1    0    0    0    0  0.00000000000E+00  0.00000000000E+00  0.74505805969E-08  0.10566000000E+00  0.10566000000E+00 0.  1.
     999900   -1    0    0    0    0 -0.00000000000E+00 -0.00000000000E+00 -0.74505805969E-08  0.93827000000E+00  0.93827000000E+00 0.  1.
     999902    2    1    2    0    0  0.12432421415E-01  0.18950230157E-01 -0.90825868771E-03  0.10212473798E+01  0.10209954503E+01 0.  0.
     999903    2    3    3    0    0 -0.26757167935E-01 -0.27270686143E-01 -0.12345715765E+00  0.13069113247E+00  0.19464479802E-01 0.  0.
         14    1    1    2    0    0 -0.12432421415E-01 -0.18950230157E-01  0.90825868771E-03  0.22682620199E-01  0.00000000000E+00 0.  1.
     999901    1    3    3    0    0  0.39189589350E-01  0.46220916300E-01  0.12254889896E+00  0.89055624733E+00  0.88000000000E+00 0. -1.
        -11    1    4    4    0    0 -0.23219775275E-01 -0.18218714519E-01 -0.64468525405E-01  0.70905087346E-01  0.51100000000E-03 0. -1.
         11    1    4    4    0    0 -0.35373926601E-02 -0.90519716235E-02 -0.58988632244E-01  0.59786045128E-01  0.51100000000E-03 0.  1.
</event>
<event>
 8    1  0.1178735E+005  0.1043930E+01  0.7957747E-01            NaN
         13   -1    0    0    0    0  0.00000000000E+00  0.00000000000E+00  0.74505805969E-08  0.10566000000E+00  0.10566000000E+00 0. -1.
     999900   -1    0    0    0    0 -0.00000000000E+00 -0.00000000000E+00 -0.74505805969E-08  0.93827000000E+00  0.93827000000E+00 0.  1.
     999902    2    1    2    0    0  0.11269118246E-01  0.30065092072E-01  0.11227771959E-01  0.10099158022E+01  0.10093428367E+01 0.  0.
     999903    2    3    3    0    0 -0.66332294653E-01  0.84186558120E-01 -0.55787746583E-01  0.12231105229E+00  0.18983439154E-01 0.  0.
         14    1    1    2    0    0 -0.11269118246E-01 -0.30065092072E-01 -0.11227771959E-01  0.34014197778E-01  0.00000000000E+00 0.  1.
     999901    1    3    3    0    0  0.77601412899E-01 -0.54121466048E-01  0.67015518543E-01  0.88760474993E+00  0.88000000000E+00 0.  1.
        -11    1    4    4    0    0 -0.25847954079E-01  0.47601362575E-01 -0.25044483327E-01  0.59678251610E-01  0.51100000000E-03 0. -1.
         11    1    4    4    0    0 -0.40484340574E-01  0.36585195545E-01 -0.30743263256E-01  0.62632800683E-01  0.51100000000E-03 0.  1.
</event>
<event>
 8    1  0.1119901E+005  0.1043930E+01  0.7957747E-01            NaN
         13   -1    0    0    0    0  0.00000000000E+00  0.00000000000E+00  0.74505805969E-08  0.10566000000E+00  0.10566000000E+00 0. -1.
     999900   -1    0    0    0    0 -0.00000000000E+00 -0.00000000000E+00 -0.74505805969E-08  0.93827000000E+00  0.93827000000E+00 0.  1.
     999902    2    1    2    0    0  0.18144553092E-01 -0.13746964941E-01 -0.27567540409E-02  0.10209995934E+01  0.10207420665E+01 0.  0.
     999903    2    3    3    0    0 -0.99065273861E-01 -0.46758861819E-01 -0.67771204402E-01  0.13023879074E+00  0.19206426651E-01 0.  0.
         14    1    1    2    0    0 -0.18144553092E-01  0.13746964941E-01  0.27567540409E-02  0.22930406557E-01  0.00000000000E+00 0. -1.
     999901    1    3    3    0    0  0.11720982695E+00  0.33011896877E-01  0.65014450361E-01  0.89076080270E+00  0.88000000000E+00 0. -1.
        -11    1    4    4    0    0 -0.61971232263E-01 -0.34274797880E-01 -0.52780299840E-01  0.88324495867E-01  0.51100000000E-03 0.  1.
         11    1    4    4    0    0 -0.37094041598E-01 -0.12484063939E-01 -0.14990904562E-01  0.41914294877E-01  0.51100000000E-03 0. -1.
</event>
<event>
 8    1  0.1119901E+005  0.1043930E+01  0.7957747E-01            NaN
         13   -1    0    0    0    0  0.00000000000E+00  0.00000000000E+00  0.74505805969E-08  0.10566000000E+00  0.10566000000E+00 0.  1.
     999900   -1    0    0    0    0 -0.00000000000E+00 -0.00000000000E+00 -0.74505805969E-08  0.93827000000E+00  0.93827000000E+00 0. -1.
     999902    2    1    2    0    0  0.67683526684E-02  0.12839269194E-01  0.19437404694E-01  0.10196715967E+01  0.10193829972E+01 0.  0.
     999903    2    3    3    0    0  0.11094695993E+00  0.66945337151E-01  0.13738045942E-01  0.13185791605E+00  0.20171019667E-01 0.  0.
         14    1    1    2    0    0 -0.67683526684E-02 -0.12839269194E-01 -0.19437404694E-01  0.24258403338E-01  0.00000000000E+00 0. -1.
     999901    1    3    3    0    0 -0.10417860726E+00 -0.54106067957E-01  0.56993587526E-02  0.88781368062E+00  0.88000000000E+00 0.  1.
        -11    1    4    4    0    0  0.84579247013E-01  0.53789988943E-01  0.23532544142E-02  0.10026370661E+00  0.51100000000E-03 0.  1.
         11    1    4    4    0    0  0.26367712913E-01  0.13155348208E-01  0.11384791527E-01  0.31594209435E-01  0.51100000000E-03 0. -1.
</event>
<event>
 7    1  0.1119901E+005  0.1043930E+01  0.7957747E-01            NaN
         13   -1    0    0    0    0  0.00000000000E+00  0.00000000000E+00  0.74505805969E-08  0.10566000000E+00  0.10566000000E+00 0.  1.
     999900   -1    0    0    0    0 -0.00000000000E+00 -0.00000000000E+00 -0.74505805969E-08  0.93827000000E+00  0.93827000000E+00 0.  1.
     999903    2    1    2    0    0 -0.35135103556E-01  0.14373404034E-01 -0.10427588590E+00  0.11282264233E+00  0.20357259049E-01 0.  0.
         14    1    1    2    0    0 -0.32107164069E-02 -0.16888849884E-01 -0.35314389396E-01  0.39276558513E-01  0.00000000000E+00 0. -1.
     999901    1    1    2    0    0  0.38345819962E-01  0.25154458497E-02  0.13959027529E+00  0.89183079916E+00  0.88000000000E+00 0. -1.
        -11    1    3    3    0    0 -0.36931552093E-01  0.16317575967E-01 -0.97869829097E-01  0.10587241092E+00  0.51100000000E-03 0. -1.
         11    1    3    3    0    0  0.17964485371E-02 -0.19441719332E-02 -0.64060568008E-02  0.69502314053E-02  0.51100000000E-03 0.  1.
</event>
<event>
 8    1  0.1119901E+005  0.1043930E+01  0.7957747E-01            NaN
         13   -1    0    0    0    0  0.00000000000E+00  0.00000000000E+00  0.74505805969E-08  0.10566000000E+00  0.10566000000E+00 0. -1.
     999900   -1    0    0    0    0 -0.00000000000E+00 -0.00000000000E+00 -0.74505805969E-08  0.93827000000E+00  0.93827000000E+00 0.  1.
     999902    2    1    2    0    0 -0.20491742954E-01  0.82433871755E-02  0.78330324776E-02  0.10204945278E+01  0.10202253966E+01 0.  0.
     999903    2    3    3    0    0  0.11247609734E+00  0.60084391043E-01  0.30638361973E-02  0.12898419048E+00  0.19144915319E-01 0.  0.
         14    1    1    2    0    0  0.20491742954E-01 -0.82433871755E-02 -0.78330324776E-02  0.23435472242E-01  0.00000000000E+00 0.  1.
     999901    1    3    3    0    0 -0.13296784029E+00 -0.51841003867E-01  0.47691962803E-02  0.89151033727E+00  0.88000000000E+00 0.  1.
        -11    1    4    4    0    0  0.74355573657E-01  0.39426418584E-01 -0.70537137221E-02  0.84458331824E-01  0.51100000000E-03 0.  1.
         11    1    4    4    0    0  0.38120523683E-01  0.20657972459E-01  0.10117549919E-01  0.44525858660E-01  0.51100000000E-03 0. -1.
</event>
<event>
 8    1  0.1119901E+005  0.1043930E+01  0.7957747E-01            NaN
         13   -1    0    0    0    0  0.00000000000E+00  0.00000000000E+00  0.74505805969E-08  0.10566000000E+00  0.10566000000E+00 0. -1.
     999900   -1    0    0    0    0 -0.00000000000E+00 -0.00000000000E+00 -0.74505805969E-08  0.93827000000E+00  0.93827000000E+00 0.  1.
     999902    2    1    2    0    0  0.26855187165E-02  0.22950869359E-01  0.21534444677E-01  0.10123438207E+01  0.10118509399E+01 0.  0.
     999903    2    3    3    0    0  0.62114311543E-01 -0.35239968361E-01 -0.95351148929E-01  0.12072720073E+00  0.19574788023E-01 0.  0.
         14    1    1    2    0    0 -0.26855187165E-02 -0.22950869359E-01 -0.21534444677E-01  0.31586179299E-01  0.00000000000E+00 0.  1.
     999901    1    3    3    0    0 -0.59428792826E-01  0.58190837720E-01  0.11688559361E+00  0.89161661997E+00  0.88000000000E+00 0. -1.
        -11    1    4    4    0    0  0.51343114462E-01 -0.32941466550E-01 -0.89306342347E-01  0.10815331491E+00  0.51100000000E-03 0.  1.
         11    1    4    4    0    0  0.10771197081E-01 -0.22985018111E-02 -0.60448065824E-02  0.12573885825E-01  0.51100000000E-03 0. -1.
</event>
<event>
 8    1  0.1119901E+005  0.1043930E+01  0.7957747E-01            NaN
         13   -1    0    0    0    0  0.00000000000E+00  0.00000000000E+00  0.74505805969E-08  0.10566000000E+00  0.10566000000E+00 0.  1.
     999900   -1    0    0    0    0 -0.00000000000E+00 -0.00000000000E+00 -0.74505805969E-08  0.93827000000E+00  0.93827000000E+00 0.  1.
     999902    2    1    2    0    0  0.20264532146E-01 -0.10282496388E-01  0.56051789301E-02  0.10205248932E+01  0.10202564670E+01 0.  0.
     999903    2    3    3    0    0  0.96032606692E-01  0.50343293661E-01 -0.71952725292E-01  0.13180023612E+00  0.20914081358E-01 0.  0.
         14    1    1    2    0    0 -0.20264532146E-01  0.10282496388E-01 -0.56051789301E-02  0.23405106833E-01  0.00000000000E+00 0.  1.
     999901    1    3    3    0    0 -0.75768074547E-01 -0.60625790048E-01  0.77557904222E-01  0.88872465705E+00  0.88000000000E+00 0. -1.
        -11    1    4    4    0    0  0.70136862265E-01  0.33115238270E-01 -0.61491494046E-01  0.98981126560E-01  0.51100000000E-03 0. -1.
         11    1    4    4    0    0  0.25895744427E-01  0.17228055390E-01 -0.10461231246E-01  0.32819109558E-01  0.51100000000E-03 0.  1.
</event>
<event>
 8    1  0.1119901E+005  0.1043930E+01  0.7957747E-01            NaN
         13   -1    0    0    0    0  0.00000000000E+00  0.00000000000E+00  0.74505805969E-08  0.10566000000E+00  0.10566000000E+00 0. -1.
     999900   -1    0    0    0    0 -0.00000000000E+00 -0.00000000000E+00 -0.74505805969E-08  0.93827000000E+00  0.93827000000E+00 0. -1.
     999902    2    1    2    0    0 -0.59674929930E-02  0.65777720224E-02 -0.23046125162E-01  0.10192317826E+01  0.10189324927E+01 0.  0.
     999903    2    3    3    0    0 -0.96894919173E-01  0.83075801913E-01  0.17394345473E-01  0.13032505124E+00  0.19794986751E-01 0.  0.
         14    1    1    2    0    0  0.59674929930E-02 -0.65777720224E-02  0.23046125162E-01  0.24698217393E-01  0.00000000000E+00 0. -1.
     999901    1    3    3    0    0  0.90927426180E-01 -0.76498029891E-01 -0.40440470635E-01  0.88890673137E+00  0.88000000000E+00 0. -1.
        -11    1    4    4    0    0 -0.88927453192E-01  0.68896045759E-01  0.18539216221E-01  0.11401193232E+00  0.51100000000E-03 0.  1.
         11    1    4    4    0    0 -0.79674659810E-02  0.14179756154E-01 -0.11448707478E-02  0.16313118916E-01  0.51100000000E-03 0. -1.
</event>
<event>
 8    1  0.1119901E+005  0.1043930E+01  0.7957747E-01            NaN
         13   -1    0    0    0    0  0.00000000000E+00  0.00000000000E+00  0.74505805969E-08  0.10566000000E+00  0.10566000000E+00 0.  1.
     999900   -1    0    0    0    0 -0.00000000000E+00 -0.00000000000E+00 -0.74505805969E-08  0.93827000000E+00  0.93827000000E+00 0.  1.
     999902    2    1    2    0    0 -0.71784800703E-02  0.20943060192E-01 -0.90845221996E-02  0.10199994570E+01  0.10197186972E+01 0.  0.
     999903    2    3    3    0    0 -0.89268213409E-01  0.91147941508E-01 -0.32255605197E-01  0.13309227537E+00  0.19909006249E-01 0.  0.
         14    1    1    2    0    0  0.71784800703E-02 -0.20943060192E-01  0.90845221996E-02  0.23930543035E-01  0.00000000000E+00 0. -1.
     999901    1    3    3    0    0  0.82089733338E-01 -0.70204881316E-01  0.23171082998E-01  0.88690718160E+00  0.88000000000E+00 0. -1.
        -11    1    4    4    0    0 -0.37156466515E-01  0.47003558670E-01 -0.22950570814E-01  0.64163286646E-01  0.51100000000E-03 0.  1.
         11    1    4    4    0    0 -0.52111746893E-01  0.44144382838E-01 -0.93050343830E-02  0.68928988723E-01  0.51100000000E-03 0. -1.
</event>
<event>
 8    1  0.1119901E+005  0.1043930E+01  0.7957747E-01            NaN
         13   -1    0    0    0    0  0.00000000000E+00  0.00000000000E+00  0.74505805969E-08  0.10566000000E+00  0.10566000000E+00 0. -1.
     999900   -1    0    0    0    0 -0.00000000000E+00 -0.00000000000E+00 -0.74505805969E-08  0.93827000000E+00  0.93827000000E+00 0.  1.
     999902    2    1    2    0    0 -0.19253561801E-01  0.12691206284E-01 -0.37728627482E-02  0.10205633389E+01  0.10202958041E+01 0.  0.
     999903    2    3    3    0    0  0.28214757911E-01  0.12496245553E+00 -0.24269909191E-01  0.13192494014E+00  0.20086649399E-01 0.  0.
         14    1    1    2    0    0  0.19253561801E-01 -0.12691206284E-01  0.37728627482E-02  0.23366661128E-01  0.00000000000E+00 0. -1.
     999901    1    3    3    0    0 -0.47468319712E-01 -0.11227124924E+00  0.20497046442E-01  0.88863839873E+00  0.88000000000E+00 0.  1.
        -11    1    4    4    0    0  0.25739202365E-01  0.76326150796E-01 -0.20250575308E-01  0.83057418423E-01  0.51100000000E-03 0.  1.
         11    1    4    4    0    0  0.24755555459E-02  0.48636304731E-01 -0.40193338826E-02  0.48867521720E-01  0.51100000000E-03 0. -1.
</event>
<event>
 8    1  0.1119901E+005  0.1043930E+01  0.7957747E-01            NaN
         13   -1    0    0    0    0  0.00000000000E+00  0.00000000000E+00  0.74505805969E-08  0.10566000000E+00  0.10566000000E+00 0.  1.
     999900   -1    0    0    0    0 -0.00000000000E+00 -0.00000000000E+00 -0.74505805969E-08  0.93827000000E+00  0.93827000000E+00 0.  1.
     999902    2    1    2    0    0 -0.81969586005E-03 -0.24855688159E-01  0.41980025811E-02  0.10187089699E+01  0.10183967129E+01 0.  0.
     999903    2    3    3    0    0  0.94916117394E-01  0.52398607720E-01 -0.64136637844E-01  0.12752818279E+00  0.19880786214E-01 0.  0.
         14    1    1    2    0    0  0.81969586005E-03  0.24855688159E-01 -0.41980025811E-02  0.25221030131E-01  0.00000000000E+00 0.  1.
     999901    1    3    3    0    0 -0.95735813254E-01 -0.77254295879E-01  0.68334640425E-01  0.89118078708E+00  0.88000000000E+00 0. -1.
        -11    1    4    4    0    0  0.61250064252E-01  0.29023881305E-01 -0.49785859532E-01  0.84100231790E-01  0.51100000000E-03 0. -1.
         11    1    4    4    0    0  0.33666053143E-01  0.23374726415E-01 -0.14350778312E-01  0.43427951003E-01  0.51100000000E-03 0.  1.
</event>
<event>
 8    1  0.1119901E+005  0.1043930E+01  0.7957747E-01            NaN
         13   -1    0    0    0    0  0.00000000000E+00  0.00000000000E+00  0.74505805969E-08  0.10566000000E+00  0.10566000000E+00 0. -1.
     999900   -1    0    0    0    0 -0.00000000000E+00 -0.00000000000E+00 -0.74505805969E-08  0.93827000000E+00  0.93827000000E+00 0. -1.
     999902    2    1    2    0    0 -0.15633516167E-01 -0.14797662199E-01 -0.32139081804E-02  0.10221651926E+01  0.10219334490E+01 0.  0.
     999903    2    3    3    0    0  0.10832632504E+00  0.60646069686E-01 -0.32678911561E-01  0.12979420176E+00  0.19133350086E-01 0.  0.
         14    1    1    2    0    0  0.15633516167E-01  0.14797662199E-01  0.32139081804E-02  0.21764807375E-01  0.00000000000E+00 0.  1.
     999901    1    3    3    0    0 -0.12395984120E+00 -0.75443731885E-01  0.29465003380E-01  0.89237099086E+00  0.88000000000E+00 0.  1.
        -11    1    4    4    0    0  0.25458650668E-01  0.21054807997E-01 -0.25578662271E-02  0.33139879817E-01  0.51100000000E-03 0. -1.
         11    1    4    4    0    0  0.82867674369E-01  0.39591261688E-01 -0.30121045334E-01  0.96654321944E-01  0.51100000000E-03 0.  1.
</event>
<event>
 8    1  0.1119901E+005  0.1043930E+01  0.7957747E-01            NaN
         13   -1    0    0    0    0  0.00000000000E+00  0.00000000000E+00  0.74505805969E-08  0.10566000000E+00  0.10566000000E+00 0. -1.
     999900   -1    0    0    0    0 -0.00000000000E+00 -0.00000000000E+00 -0.74505805969E-08  0.93827000000E+00  0.93827000000E+00 0.  1.
     999902    2    1    2    0    0  0.15921272459E-01  0.15572924026E-01  0.36645617430E-02  0.10213594020E+01  0.10211099824E+01 0.  0.
     999903    2    3    3    0    0  0.49013938752E-01 -0.10850842578E+00  0.49495741245E-01  0.13085853009E+00  0.22308783902E-01 0.  0.
         14    1    1    2    0    0 -0.15921272459E-01 -0.15572924026E-01 -0.36645617430E-02  0.22570597958E-01  0.00000000000E+00 0.  1.
     999901    1    3    3    0    0 -0.33092666294E-01  0.12408134980E+00 -0.45831179502E-01  0.89050087195E+00  0.88000000000E+00 0.  1.
        -11    1    4    4    0    0  0.29434944121E-01 -0.86940145649E-01  0.40849374649E-01  0.10046858908E+00  0.51100000000E-03 0. -1.
         11    1    4    4    0    0  0.19578994631E-01 -0.21568280129E-01  0.86463665962E-02  0.30389941014E-01  0.51100000000E-03 0.  1.
</event>
<event>
 8    1  0.1119901E+005  0.1043930E+01  0.7957747E-01            NaN
         13   -1    0    0    0    0  0.00000000000E+00  0.00000000000E+00  0.74505805969E-08  0.10566000000E+00  0.10566000000E+00 0.  1.
     999900   -1    0    0    0    0 -0.00000000000E+00 -0.00000000000E+00 -0.74505805969E-08  0.93827000000E+00  0.93827000000E+00 0. -1.
     999902    2    1    2    0    0 -0.50410682738E-02  0.21191708711E-01 -0.95710953638E-02  0.10201370020E+01  0.10198594982E+01 0.  0.
     999903    2    3    3    0    0  0.27942703523E-01 -0.73758308747E-01 -0.10140020329E+00  0.12966745166E+00  0.17622826183E-01 0.  0.
         14    1    1    2    0    0  0.50410682738E-02 -0.21191708711E-01  0.95710953638E-02  0.23792998001E-01  0.00000000000E+00 0. -1.
     999901    1    3    3    0    0 -0.32983771797E-01  0.94950017457E-01  0.91829107930E-01  0.89046955034E+00  0.88000000000E+00 0. -1.
        -11    1    4    4    0    0  0.11071722139E-01 -0.34423293432E-01 -0.32878499904E-01  0.48875382749E-01  0.51100000000E-03 0. -1.
         11    1    4    4    0    0  0.16870981384E-01 -0.39335015314E-01 -0.68521703389E-01  0.80792068912E-01  0.51100000000E-03 0.  1.
</event>
<event>
 8    1  0.1119901E+005  0.1043930E+01  0.7957747E-01            NaN
         13   -1    0    0    0    0  0.00000000000E+00  0.00000000000E+00  0.74505805969E-08  0.10566000000E+00  0.10566000000E+00 0.  1.
     999900   -1    0    0    0    0 -0.00000000000E+00 -0.00000000000E+00 -0.74505805969E-08  0.93827000000E+00  0.93827000000E+00 0. -1.
     999902    2    1    2    0    0  0.28256354087E-02 -0.14613513061E-01 -0.19345331741E-01  0.10195213778E+01  0.10192291493E+01 0.  0.
     999903    2    3    3    0    0  0.92886050031E-01 -0.76690313787E-01 -0.50582252256E-01  0.13219947863E+00  0.20221656412E-01 0.  0.
         14    1    1    2    0    0 -0.28256354087E-02  0.14613513061E-01  0.19345331741E-01  0.24408622239E-01  0.00000000000E+00 0. -1.
     999901    1    3    3    0    0 -0.90060414623E-01  0.62076800726E-01  0.31236920515E-01  0.88732189913E+00  0.88000000000E+00 0. -1.
        -11    1    4    4    0    0  0.43815489306E-01 -0.35243764720E-01 -0.12778869597E-01  0.57666980881E-01  0.51100000000E-03 0. -1.
         11    1    4    4    0    0  0.49070560725E-01 -0.41446549067E-01 -0.37803382660E-01  0.74532497751E-01  0.51100000000E-03 0.  1.
</event>
<event>
 8    1  0.1119901E+005  0.1043930E+01  0.7957747E-01            NaN
         13   -1    0    0    0    0  0.00000000000E+00  0.00000000000E+00  0.74505805969E-08  0.10566000000E+00  0.10566000000E+00 0.  1.
     999900   -1    0    0    0    0 -0.00000000000E+00 -0.00000000000E+00 -0.74505805969E-08  0.93827000000E+00  0.93827000000E+00 0.  1.
     999902    2    1    2    0    0 -0.20426002234E-01 -0.20882774350E-01  0.50812001902E-03  0.10147140794E+01  0.10142933959E+01 0.  0.
     999903    2    3    3    0    0 -0.81141728967E-01  0.92984028038E-01 -0.85002087830E-02  0.12525739232E+00  0.19676156444E-01 0.  0.
         14    1    1    2    0    0  0.20426002234E-01  0.20882774350E-01 -0.50812001902E-03  0.29215920621E-01  0.00000000000E+00 0.  1.
     999901    1    3    3    0    0  0.60715726734E-01 -0.11386680239E+00  0.90083288020E-02  0.88945668705E+00  0.88000000000E+00 0. -1.
        -11    1    4    4    0    0 -0.20117673776E-01  0.36389769326E-01  0.11192575157E-03  0.41583767965E-01  0.51100000000E-03 0. -1.
         11    1    4    4    0    0 -0.61024055191E-01  0.56594258712E-01 -0.86121345345E-02  0.83673624359E-01  0.51100000000E-03 0.  1.
</event>
<event>
 8    1  0.1119901E+005  0.1043930E+01  0.7957747E-01            NaN
         13   -1    0    0    0    0  0.00000000000E+00  0.00000000000E+00  0.74505805969E-08  0.10566000000E+00  0.10566000000E+00 0. -1.
     999900   -1    0    0    0    0 -0.00000000000E+00 -0.00000000000E+00 -0.74505805969E-08  0.93827000000E+00  0.93827000000E+00 0. -1.
     999902    2    1    2    0    0 -0.12219012278E-01 -0.66925277371E-02  0.19467207612E-01  0.10199911955E+01  0.10197102395E+01 0.  0.
     999903    2    3    3    0    0 -0.13308153456E-01 -0.12081712427E+00 -0.44016699043E-01  0.13035317014E+00  0.16750961346E-01 0.  0.
         14    1    1    2    0    0  0.12219012278E-01  0.66925277371E-02 -0.19467207612E-01  0.23938804498E-01  0.00000000000E+00 0.  1.
     999901    1    3    3    0    0  0.10891411776E-02  0.11412459653E+00  0.63483906655E-01  0.88963802536E+00  0.88000000000E+00 0.  1.
        -11    1    4    4    0    0 -0.10675843651E-02 -0.31979442097E-01 -0.43574372432E-02  0.32296638116E-01  0.51100000000E-03 0. -1.
         11    1    4    4    0    0 -0.12240569091E-01 -0.88837682173E-01 -0.39659261800E-01  0.98056532027E-01  0.51100000000E-03 0.  1.
</event>
<event>
 8    1  0.1119901E+005  0.1043930E+01  0.7957747E-01            NaN
         13   -1    0    0    0    0  0.00000000000E+00  0.00000000000E+00  0.74505805969E-08  0.10566000000E+00  0.10566000000E+00 0. -1.
     999900   -1    0    0    0    0 -0.00000000000E+00 -0.00000000000E+00 -0.74505805969E-08  0.93827000000E+00  0.93827000000E+00 0. -1.
     999902    2    1    2    0    0  0.17331099291E-01 -0.15041390758E-01  0.44798154955E-03  0.10209776335E+01  0.10207196075E+01 0.  0.
     999903    2    3    3    0    0  0.10936527904E+00 -0.22525104562E-01  0.70437316613E-01  0.13338267905E+00  0.19009968559E-01 0.  0.
         14    1    1    2    0    0 -0.17331099291E-01  0.15041390758E-01 -0.44798154955E-03  0.22952366458E-01  0.00000000000E+00 0. -1.
     999901    1    3    3    0    0 -0.92034179747E-01  0.74837138039E-02 -0.69989335063E-01  0.88759495449E+00  0.88000000000E+00 0. -1.
        -11    1    4    4    0    0  0.18427640779E-01 -0.79419615736E-02  0.59032069062E-02  0.20922754864E-01  0.51100000000E-03 0. -1.
         11    1    4    4    0    0  0.90937638260E-01 -0.14583142989E-01  0.64534109707E-01  0.11245992419E+00  0.51100000000E-03 0.  1.
</event>
<event>
 8    1  0.1119901E+005  0.1043930E+01  0.7957747E-01            NaN
         13   -1    0    0    0    0  0.00000000000E+00  0.00000000000E+00  0.74505805969E-08  0.10566000000E+00  0.10566000000E+00 0. -1.
     999900   -1    0    0    0    0 -0.00000000000E+00 -0.00000000000E+00 -0.74505805969E-08  0.93827000000E+00  0.93827000000E+00 0. -1.
     999902    2    1    2    0    0  0.10347688117E-01  0.10991604106E-01 -0.20004266602E-01  0.10188688609E+01  0.10185605996E+01 0.  0.
     999903    2    3    3    0    0 -0.71024677485E-01 -0.80333043299E-01  0.64030299242E-01  0.12644325540E+00  0.19751328018E-01 0.  0.
         14    1    1    2    0    0 -0.10347688117E-01 -0.10991604106E-01  0.20004266602E-01  0.25061139090E-01  0.00000000000E+00 0. -1.
     999901    1    3    3    0    0  0.81372365602E-01  0.91324647406E-01 -0.84034565844E-01  0.89242560551E+00  0.88000000000E+00 0.  1.
        -11    1    4    4    0    0 -0.61413054262E-01 -0.71266457780E-01  0.47852441221E-01  0.10554898621E+00  0.51100000000E-03 0.  1.
         11    1    4    4    0    0 -0.96116232228E-02 -0.90665855199E-02  0.16177858021E-01  0.20894269193E-01  0.51100000000E-03 0. -1.
</event>
<event>
 8    1  0.1119901E+005  0.1043930E+01  0.7957747E-01            NaN
         13   -1    0    0    0    0  0.00000000000E+00  0.00000000000E+00  0.74505805969E-08  0.10566000000E+00  0.10566000000E+00 0. -1.
     999900   -1    0    0    0    0 -0.00000000000E+00 -0.00000000000E+00 -0.74505805969E-08  0.93827000000E+00  0.93827000000E+00 0. -1.
     999902    2    1    2    0    0  0.12723701575E-01 -0.20910820848E-01 -0.19193913558E-01  0.10128243522E+01  0.10123465844E+01 0.  0.
     999903    2    3    3    0    0 -0.29401815746E-01 -0.10415196280E+00 -0.62771575895E-01  0.12682059394E+00  0.20762807663E-01 0.  0.
         14    1    1    2    0    0 -0.12723701575E-01  0.20910820848E-01  0.19193913558E-01  0.31105647846E-01  0.00000000000E+00 0. -1.
     999901    1    3    3    0    0  0.42125517320E-01  0.83241141949E-01  0.43577662337E-01  0.88600375822E+00  0.88000000000E+00 0.  1.
        -11    1    4    4    0    0 -0.17715774423E-01 -0.27963991773E-01 -0.18155136491E-01  0.37758490453E-01  0.51100000000E-03 0. -1.
         11    1    4    4    0    0 -0.11686041323E-01 -0.76187971024E-01 -0.44616439404E-01  0.89062103482E-01  0.51100000000E-03 0.  1.
</event>
<event>
 8    1  0.1119901E+005  0.1043930E+01  0.7957747E-01            NaN
         13   -1    0    0    0    0  0.00000000000E+00  0.00000000000E+00  0.74505805969E-08  0.10566000000E+00  0.10566000000E+00 0. -1.
     999900   -1    0    0    0    0 -0.00000000000E+00 -0.00000000000E+00 -0.74505805969E-08  0.93827000000E+00  0.93827000000E+00 0.  1.
     999902    2    1    2    0    0 -0.21273341153E-01 -0.10237084619E-01 -0.17224159843E-02  0.10202589277E+01  0.10199842940E+01 0.  0.
     999903    2    3    3    0    0  0.84731394794E-01 -0.59201009256E-01  0.74823497107E-01  0.12925177470E+00  0.20574177552E-01 0.  0.
         14    1    1    2    0    0  0.21273341153E-01  0.10237084619E-01  0.17224159843E-02  0.23671072264E-01  0.00000000000E+00 0. -1.
     999901    1    3    3    0    0 -0.10600473595E+00  0.48963924637E-01 -0.76545913091E-01  0.89100715304E+00  0.88000000000E+00 0.  1.
        -11    1    4    4    0    0  0.26245911332E-01 -0.93627198568E-02  0.13652203525E-01  0.31034692956E-01  0.51100000000E-03 0.  1.
         11    1    4    4    0    0  0.58485483462E-01 -0.49838289399E-01  0.61171293581E-01  0.98217081740E-01  0.51100000000E-03 0. -1.
</event>
<event>
 8    1  0.1119901E+005  0.1043930E+01  0.7957747E-01            NaN
         13   -1    0    0    0    0  0.00000000000E+00  0.00000000000E+00  0.74505805969E-08  0.10566000000E+00  0.10566000000E+00 0. -1.
     999900   -1    0    0    0    0 -0.00000000000E+00 -0.00000000000E+00 -0.74505805969E-08  0.93827000000E+00  0.93827000000E+00 0. -1.
     999902    2    1    2    0    0 -0.10640070266E-01  0.90044213517E-02 -0.19053675756E-01  0.10203220933E+01  0.10200489404E+01 0.  0.
     999903    2    3    3    0    0 -0.22646739954E-01  0.11340594898E+00  0.57653472521E-01  0.13075600487E+00  0.19985640342E-01 0.  0.
         14    1    1    2    0    0  0.10640070266E-01 -0.90044213517E-02  0.19053675756E-01  0.23607906704E-01  0.00000000000E+00 0.  1.
     999901    1    3    3    0    0  0.12006669688E-01 -0.10440152763E+00 -0.76707148277E-01  0.88956608843E+00  0.88000000000E+00 0. -1.
        -11    1    4    4    0    0 -0.14268629627E-01  0.40156306164E-01  0.12993327747E-01  0.44555700007E-01  0.51100000000E-03 0.  1.
         11    1    4    4    0    0 -0.83781103267E-02  0.73249642817E-01  0.44660144774E-01  0.86200304858E-01  0.51100000000E-03 0. -1.
</event>
<event>
 8    1  0.1119901E+005  0.1043930E+01  0.7957747E-01            NaN
         13   -1    0    0    0    0  0.00000000000E+00  0.00000000000E+00  0.74505805969E-08  0.10566000000E+00  0.10566000000E+00 0.  1.
     999900   -1    0    0    0    0 -0.00000000000E+00 -0.00000000000E+00 -0.74505805969E-08  0.93827000000E+00  0.93827000000E+00 0. -1.
     999902    2    1    2    0    0  0.18586149085E-01 -0.13766724907E-01  0.24389808177E-02  0.10206723931E+01  0.10204073783E+01 0.  0.
     999903    2    3    3    0    0  0.31064997446E-01 -0.18408466754E-01 -0.12485045385E+00  0.13141434976E+00  0.19447102097E-01 0.  0.
         14    1    1    2    0    0 -0.18586149085E-01  0.13766724907E-01 -0.24389808177E-02  0.23257606926E-01  0.00000000000E+00 0.  1.
     999901    1    3    3    0    0 -0.12478848361E-01  0.46417418470E-02  0.12728943467E+00  0.88925804332E+00  0.88000000000E+00 0.  1.
        -11    1    4    4    0    0  0.84569801805E-02  0.32914876069E-03 -0.54871996032E-01  0.55523201657E-01  0.51100000000E-03 0.  1.
         11    1    4    4    0    0  0.22608017265E-01 -0.18737615515E-01 -0.69978457823E-01  0.75891148101E-01  0.51100000000E-03 0. -1.
</event>
<event>
 8    1  0.1119901E+005  0.1043930E+01  0.7957747E-01            NaN
         13   -1    0    0    0    0  0.00000000000E+00  0.00000000000E+00  0.74505805969E-08  0.10566000000E+00  0.10566000000E+00 0. -1.
     999900   -1    0    0    0    0 -0.00000000000E+00 -0.00000000000E+00 -0.74505805969E-08  0.93827000000E+00  0.93827000000E+00 0. -1.
     999902    2    1    2    0    0  0.17735528314E-01 -0.15319375415E-01  0.20143027730E-02  0.10204078903E+01  0.10201367423E+01 0.  0.
     999903    2    3    3    0    0 -0.85988894476E-01 -0.95343413029E-01  0.99184504823E-02  0.13067474043E+00  0.22204858598E-01 0.  0.
         14    1    1    2    0    0 -0.17735528314E-01  0.15319375415E-01 -0.20143027730E-02  0.23522109670E-01  0.00000000000E+00 0. -1.
     999901    1    3    3    0    0  0.10372442279E+00  0.80024037614E-01 -0.79041477094E-02  0.88973314990E+00  0.88000000000E+00 0.  1.
        -11    1    4    4    0    0 -0.50749230030E-01 -0.47086100778E-01 -0.39034505896E-02  0.69340343831E-01  0.51100000000E-03 0.  1.
         11    1    4    4    0    0 -0.35239664446E-01 -0.48257312251E-01  0.13821901072E-01  0.61334396599E-01  0.51100000000E-03 0. -1.
</event>
<event>
 8    1  0.1119901E+005  0.1043930E+01  0.7957747E-01            NaN
         13   -1    0    0    0    0  0.00000000000E+00  0.00000000000E+00  0.74505805969E-08  0.10566000000E+00  0.10566000000E+00 0. -1.
     999900   -1    0    0    0    0 -0.00000000000E+00 -0.00000000000E+00 -0.74505805969E-08  0.93827000000E+00  0.93827000000E+00 0. -1.
     999902    2    1    2    0    0 -0.12785453569E-01 -0.21000334563E-01 -0.18480020745E-02  0.10192744330E+01  0.10189761885E+01 0.  0.
     999903    2    3    3    0    0  0.71071371708E-01  0.66291347976E-01 -0.81114719100E-01  0.12745885930E+00  0.14848584647E-01 0.  0.
         14    1    1    2    0    0  0.12785453569E-01  0.21000334563E-01  0.18480020745E-02  0.24655567047E-01  0.00000000000E+00 0. -1.
     999901    1    3    3    0    0 -0.83856825278E-01 -0.87291682539E-01  0.79266717025E-01  0.89181557366E+00  0.88000000000E+00 0.  1.
        -11    1    4    4    0    0  0.23154923395E-01  0.25423045341E-01 -0.20440235095E-01  0.40006824962E-01  0.51100000000E-03 0. -1.
         11    1    4    4    0    0  0.47916448313E-01  0.40868302635E-01 -0.60674484005E-01  0.87452034336E-01  0.51100000000E-03 0.  1.
</event>
<event>
 8    1  0.1119901E+005  0.1043930E+01  0.7957747E-01            NaN
         13   -1    0    0    0    0  0.00000000000E+00  0.00000000000E+00  0.74505805969E-08  0.10566000000E+00  0.10566000000E+00 0. -1.
     999900   -1    0    0    0    0 -0.00000000000E+00 -0.00000000000E+00 -0.74505805969E-08  0.93827000000E+00  0.93827000000E+00 0.  1.
     999902    2    1    2    0    0 -0.22246312308E-01  0.61909841043E-02 -0.31469333180E-02  0.10206248528E+01  0.10203587410E+01 0.  0.
     999903    2    3    3    0    0  0.13247407953E-01  0.98474732187E-01 -0.83681619971E-01  0.13143312429E+00  0.19982140617E-01 0.  0.
         14    1    1    2    0    0  0.22246312308E-01 -0.61909841043E-02  0.31469333180E-02  0.23305147174E-01  0.00000000000E+00 0.  1.
     999901    1    3    3    0    0 -0.35493720261E-01 -0.92283748083E-01  0.80534686653E-01  0.88919172853E+00  0.88000000000E+00 0. -1.
        -11    1    4    4    0    0  0.12210707166E-01  0.60428497391E-01 -0.39986691819E-01  0.73484020781E-01  0.51100000000E-03 0. -1.
         11    1    4    4    0    0  0.10367007868E-02  0.38046234796E-01 -0.43694928152E-01  0.57949103512E-01  0.51100000000E-03 0.  1.
</event>
<event>
 8    1  0.1119901E+005  0.1043930E+01  0.7957747E-01            NaN
         13   -1    0    0    0    0  0.00000000000E+00  0.00000000000E+00  0.74505805969E-08  0.10566000000E+00  0.10566000000E+00 0. -1.
     999900   -1    0    0    0    0 -0.00000000000E+00 -0.00000000000E+00 -0.74505805969E-08  0.93827000000E+00  0.93827000000E+00 0. -1.
     999902    2    1    2    0    0 -0.13255856631E-01 -0.16673077433E-01 -0.10220469665E-01  0.10203044366E+01  0.10200308702E+01 0.  0.
     999903    2    3    3    0    0 -0.94716051105E-01  0.79695909803E-01 -0.37642919736E-01  0.13088061425E+00  0.19752908747E-01 0.  0.
         14    1    1    2    0    0  0.13255856631E-01  0.16673077433E-01  0.10220469665E-01  0.23625563406E-01  0.00000000000E+00 0.  1.
     999901    1    3    3    0    0  0.81460194474E-01 -0.96368987236E-01  0.27422450072E-01  0.88942382234E+00  0.88000000000E+00 0. -1.
        -11    1    4    4    0    0 -0.45850659663E-01  0.51371868751E-01 -0.21416985300E-01  0.72113107483E-01  0.51100000000E-03 0. -1.
         11    1    4    4    0    0 -0.48865391442E-01  0.28324041052E-01 -0.16225934436E-01  0.58767506767E-01  0.51100000000E-03 0.  1.
</event>
<event>
 8    1  0.1119901E+005  0.1043930E+01  0.7957747E-01            NaN
         13   -1    0    0    0    0  0.00000000000E+00  0.00000000000E+00  0.74505805969E-08  0.10566000000E+00  0.10566000000E+00 0. -1.
     999900   -1    0    0    0    0 -0.00000000000E+00 -0.00000000000E+00 -0.74505805969E-08  0.93827000000E+00  0.93827000000E+00 0.  1.
     999902    2    1    2    0    0 -0.24381325974E-01  0.21295301625E-02  0.82323774660E-02  0.10181083813E+01  0.10177808802E+01 0.  0.
     999903    2    3    3    0    0 -0.35150330354E-01  0.16401012629E-01  0.12306939341E+00  0.13046701963E+00  0.19262104733E-01 0.  0.
         14    1    1    2    0    0  0.24381325974E-01 -0.21295301625E-02 -0.82323774660E-02  0.25821618728E-01  0.00000000000E+00 0.  1.
     999901    1    3    3    0    0  0.10769004380E-01 -0.14271482466E-01 -0.11483701594E+00  0.88764136164E+00  0.88000000000E+00 0.  1.
        -11    1    4    4    0    0 -0.13557051310E-01  0.13601431465E-01  0.37065076413E-01  0.41747737527E-01  0.51100000000E-03 0.  1.
         11    1    4    4    0    0 -0.21593279044E-01  0.27995811640E-02  0.86004316992E-01  0.88719282103E-01  0.51100000000E-03 0. -1.
</event>
<event>
 8    1  0.1119901E+005  0.1043930E+01  0.7957747E-01            NaN
         13   -1    0    0    0    0  0.00000000000E+00  0.00000000000E+00  0.74505805969E-08  0.10566000000E+00  0.10566000000E+00 0. -1.
     999900   -1    0    0    0    0 -0.00000000000E+00 -0.00000000000E+00 -0.74505805969E-08  0.93827000000E+00  0.93827000000E+00 0. -1.
     999902    2    1    2    0    0 -0.17766341231E-01 -0.33454861747E-02 -0.15359328777E-01  0.10202077712E+01  0.10199319351E+01 0.  0.
     999903    2    3    3    0    0  0.95095512857E-01  0.64606856560E-01  0.53180778857E-01  0.12776557961E+00  0.16692681394E-01 0.  0.
         14    1    1    2    0    0  0.17766341231E-01  0.33454861747E-02  0.15359328777E-01  0.23722228795E-01  0.00000000000E+00 0. -1.
     999901    1    3    3    0    0 -0.11286185409E+00 -0.67952342735E-01 -0.68540107635E-01  0.89244219160E+00  0.88000000000E+00 0. -1.
        -11    1    4    4    0    0  0.28576960649E-01  0.24629187548E-01  0.10354993128E-01  0.39124500801E-01  0.51100000000E-03 0.  1.
         11    1    4    4    0    0  0.66518552208E-01  0.39977669012E-01  0.42825785729E-01  0.88641078806E-01  0.51100000000E-03 0. -1.
</event>
<event>
 8    1  0.1119901E+005  0.1043930E+01  0.7957747E-01            NaN
         13   -1    0    0    0    0  0.00000000000E+00  0.00000000000E+00  0.74505805969E-08  0.10566000000E+00  0.10566000000E+00 0. -1.
     999900   -1    0    0    0    0 -0.00000000000E+00 -0.00000000000E+00 -0.74505805969E-08  0.93827000000E+00  0.93827000000E+00 0.  1.
     999902    2    1    2    0    0 -0.17958069438E-01  0.82178793062E-02 -0.74191199339E-02  0.10228333382E+01  0.10226157483E+01 0.  0.
     999903    2    3    3    0    0 -0.10897569902E+00  0.17143845319E-01 -0.75757229981E-01  0.13545857011E+00  0.20982180876E-01 0.  0.
         14    1    1    2    0    0  0.17958069438E-01 -0.82178793062E-02  0.74191199339E-02  0.21096661793E-01  0.00000000000E+00 0. -1.
     999901    1    3    3    0    0  0.91017629579E-01 -0.89259660132E-02  0.68338110047E-01  0.88737476809E+00  0.88000000000E+00 0. -1.
        -11    1    4    4    0    0 -0.17745926708E-01  0.74727205154E-02 -0.58935050228E-02  0.20143336096E-01  0.51100000000E-03 0. -1.
         11    1    4    4    0    0 -0.91229772309E-01  0.96711248040E-02 -0.69863724958E-01  0.11531523402E+00  0.51100000000E-03 0.  1.
</event>
<event>
 8    1  0.1119901E+005  0.1043930E+01  0.7957747E-01            NaN
         13   -1    0    0    0    0  0.00000000000E+00  0.00000000000E+00  0.74505805969E-08  0.10566000000E+00  0.10566000000E+00 0.  1.
     999900   -1    0    0    0    0 -0.00000000000E+00 -0.00000000000E+00 -0.74505805969E-08  0.93827000000E+00  0.93827000000E+00 0.  1.
     999902    2    1    2    0    0 -0.22907055895E-01 -0.56306521131E-02  0.98530196896E-02  0.10183659735E+01  0.10180450563E+01 0.  0.
     999903    2    3    3    0    0 -0.83585636558E-01  0.95495716082E-01 -0.19761812205E-01  0.13000485845E+00  0.20118239736E-01 0.  0.
         14    1    1    2    0    0  0.22907055895E-01  0.56306521131E-02 -0.98530196896E-02  0.25564026483E-01  0.00000000000E+00 0. -1.
     999901    1    3    3    0    0  0.60678580663E-01 -0.10112636820E+00  0.29614831895E-01  0.88836111507E+00  0.88000000000E+00 0.  1.
        -11    1    4    4    0    0  0.28157887892E-03  0.43713442222E-02  0.74739290306E-03  0.44729916304E-02  0.51100000000E-03 0.  1.
         11    1    4    4    0    0 -0.83867215437E-01  0.91124371860E-01 -0.20509205108E-01  0.12553186682E+00  0.51100000000E-03 0. -1.
</event>
<event>
 8    1  0.1119901E+005  0.1043930E+01  0.7957747E-01            NaN
         13   -1    0    0    0    0  0.00000000000E+00  0.00000000000E+00  0.74505805969E-08  0.10566000000E+00  0.10566000000E+00 0. -1.
     999900   -1    0    0    0    0 -0.00000000000E+00 -0.00000000000E+00 -0.74505805969E-08  0.93827000000E+00  0.93827000000E+00 0. -1.
     999902    2    1    2    0    0 -0.16015157081E-01  0.14478629553E-01  0.72899428959E-02  0.10211427396E+01  0.10208884539E+01 0.  0.
     999903    2    3    3    0    0 -0.48192223983E-02 -0.28493442941E-02  0.13062320192E+00  0.13230265249E+00  0.20254068986E-01 0.  0.
         14    1    1    2    0    0  0.16015157081E-01 -0.14478629553E-01 -0.72899428959E-02  0.22787260421E-01  0.00000000000E+00 0.  1.
     999901    1    3    3    0    0 -0.11195934683E-01  0.17327973847E-01 -0.12333325902E+00  0.88884008709E+00  0.88000000000E+00 0. -1.
        -11    1    4    4    0    0  0.10502160961E-02  0.42188900495E-02  0.10475791347E+00  0.10484933735E+00  0.51100000000E-03 0.  1.
         11    1    4    4    0    0 -0.58694384944E-02 -0.70682343436E-02  0.25865288448E-01  0.27453315145E-01  0.51100000000E-03 0. -1.
</event>
<event>
 8    1  0.1119901E+005  0.1043930E+01  0.7957747E-01            NaN
         13   -1    0    0    0    0  0.00000000000E+00  0.00000000000E+00  0.74505805969E-08  0.10566000000E+00  0.10566000000E+00 0.  1.
     999900   -1    0    0    0    0 -0.00000000000E+00 -0.00000000000E+00 -0.74505805969E-08  0.93827000000E+00  0.93827000000E+00 0. -1.
     999902    2    1    2    0    0 -0.14925307891E-01  0.14639204922E-01 -0.13587164918E-01  0.10189964446E+01  0.10186913526E+01 0.  0.
     999903    2    3    3    0    0  0.10019412043E+00  0.16651590750E-01  0.73950815294E-01  0.12718960984E+00  0.19807486578E-01 0.  0.
         14    1    1    2    0    0  0.14925307891E-01 -0.14639204922E-01  0.13587164918E-01  0.24933555441E-01  0.00000000000E+00 0. -1.
     999901    1    3    3    0    0 -0.11511942832E+00 -0.20123858277E-02 -0.87537980212E-01  0.89180683472E+00  0.88000000000E+00 0.  1.
        -11    1    4    4    0    0  0.63819757396E-01  0.79652709354E-02  0.35138680414E-01  0.73289801182E-01  0.51100000000E-03 0. -1.
         11    1    4    4    0    0  0.36374363038E-01  0.86863198147E-02  0.38812134880E-01  0.53899808657E-01  0.51100000000E-03 0.  1.
</event>
<event>
 8    1  0.1119901E+005  0.1043930E+01  0.7957747E-01            NaN
         13   -1    0    0    0    0  0.00000000000E+00  0.00000000000E+00  0.74505805969E-08  0.10566000000E+00  0.10566000000E+00 0.  1.
     999900   -1    0    0    0    0 -0.00000000000E+00 -0.00000000000E+00 -0.74505805969E-08  0.93827000000E+00  0.93827000000E+00 0. -1.
     999902    2    1    2    0    0 -0.11036793630E-01 -0.15707826486E-01  0.12085242157E-01  0.10212452098E+01  0.10209932316E+01 0.  0.
     999903    2    3    3    0    0  0.10439633090E+00 -0.77068822295E-01  0.62949656853E-02  0.13156914219E+00  0.20799406442E-01 0.  0.
         14    1    1    2    0    0  0.11036793630E-01  0.15707826486E-01 -0.12085242157E-01  0.22684790159E-01  0.00000000000E+00 0.  1.
     999901    1    3    3    0    0 -0.11543312453E+00  0.61360995809E-01  0.57902764718E-02  0.88967606765E+00  0.88000000000E+00 0.  1.
        -11    1    4    4    0    0  0.42036576784E-01 -0.18846411584E-01  0.83425375714E-03  0.46078391005E-01  0.51100000000E-03 0.  1.
         11    1    4    4    0    0  0.62359754119E-01 -0.58222410711E-01  0.54607119282E-02  0.85490751187E-01  0.51100000000E-03 0. -1.
</event>
<event>
 8    1  0.1119901E+005  0.1043930E+01  0.7957747E-01            NaN
         13   -1    0    0    0    0  0.00000000000E+00  0.00000000000E+00  0.74505805969E-08  0.10566000000E+00  0.10566000000E+00 0.  1.
     999900   -1    0    0    0    0 -0.00000000000E+00 -0.00000000000E+00 -0.74505805969E-08  0.93827000000E+00  0.93827000000E+00 0. -1.
     999902    2    1    2    0    0 -0.11766210532E-01  0.11859688987E-01 -0.16982737381E-01  0.10201075463E+01  0.10198293468E+01 0.  0.
     999903    2    3    3    0    0  0.96351410578E-01 -0.13536742597E-01 -0.84742817680E-01  0.13054258112E+00  0.19828832944E-01 0.  0.
         14    1    1    2    0    0  0.11766210532E-01 -0.11859688987E-01  0.16982737381E-01  0.23822453738E-01  0.00000000000E+00 0. -1.
     999901    1    3    3    0    0 -0.10811762111E+00  0.25396431583E-01  0.67760080299E-01  0.88956496515E+00  0.88000000000E+00 0. -1.
        -11    1    4    4    0    0  0.61498689709E-01 -0.88387307563E-02 -0.66168752389E-01  0.90767708526E-01  0.51100000000E-03 0. -1.
         11    1    4    4    0    0  0.34852720869E-01 -0.46980118403E-02 -0.18574065290E-01  0.39774872591E-01  0.51100000000E-03 0.  1.
</event>
<event>
 8    1  0.1119901E+005  0.1043930E+01  0.7957747E-01            NaN
         13   -1    0    0    0    0  0.00000000000E+00  0.00000000000E+00  0.74505805969E-08  0.10566000000E+00  0.10566000000E+00 0. -1.
     999900   -1    0    0    0    0 -0.00000000000E+00 -0.00000000000E+00 -0.74505805969E-08  0.93827000000E+00  0.93827000000E+00 0.  1.
     999902    2    1    2    0    0 -0.17123915381E-01  0.11099095462E-01 -0.12374615317E-01  0.10200647637E+01  0.10197855523E+01 0.  0.
     999903    2    3    3    0    0  0.10887726950E+00 -0.61064913204E-01  0.17428866673E-01  0.12766788438E+00  0.20301228245E-01 0.  0.
         14    1    1    2    0    0  0.17123915381E-01 -0.11099095462E-01  0.12374615317E-01  0.23865236272E-01  0.00000000000E+00 0.  1.
     999901    1    3    3    0    0 -0.12600118489E+00  0.72164008666E-01 -0.29803481990E-01  0.89239687935E+00  0.88000000000E+00 0.  1.
        -11    1    4    4    0    0  0.80661825012E-01 -0.34948421785E-01  0.96347953965E-02  0.88435358329E-01  0.51100000000E-03 0. -1.
         11    1    4    4    0    0  0.28215444492E-01 -0.26116491419E-01  0.77940712767E-02  0.39232526047E-01  0.51100000000E-03 0.  1.
</event>
<event>
 8    1  0.1119901E+005  0.1043930E+01  0.7957747E-01            NaN
         13   -1    0    0    0    0  0.00000000000E+00  0.00000000000E+00  0.74505805969E-08  0.10566000000E+00  0.10566000000E+00 0. -1.
     999900   -1    0    0    0    0 -0.00000000000E+00 -0.00000000000E+00 -0.74505805969E-08  0.93827000000E+00  0.93827000000E+00 0. -1.
     999902    2    1    2    0    0  0.51885487316E-02  0.61030808541E-02  0.21898413775E-01  0.10206124281E+01  0.10203460292E+01 0.  0.
     999903    2    3    3    0    0 -0.89078424202E-01  0.93578125939E-01 -0.57235676849E-02  0.13083654645E+00  0.19839640777E-01 0.  0.
         14    1    1    2    0    0 -0.51885487316E-02 -0.61030808541E-02 -0.21898413775E-01  0.23317571909E-01  0.00000000000E+00 0.  1.
     999901    1    3    3    0    0  0.94266972934E-01 -0.87475045085E-01  0.27621981460E-01  0.88977588165E+00  0.88000000000E+00 0.  1.
        -11    1    4    4    0    0 -0.64590990265E-01  0.79307700431E-01 -0.63753838086E-02  0.10248226193E+00  0.51100000000E-03 0.  1.
         11    1    4    4    0    0 -0.24487433937E-01  0.14270425508E-01  0.65181612365E-03  0.28354284513E-01  0.51100000000E-03 0. -1.
</event>
<event>
 8    1  0.1119901E+005  0.1043930E+01  0.7957747E-01            NaN
         13   -1    0    0    0    0  0.00000000000E+00  0.00000000000E+00  0.74505805969E-08  0.10566000000E+00  0.10566000000E+00 0.  1.
     999900   -1    0    0    0    0 -0.00000000000E+00 -0.00000000000E+00 -0.74505805969E-08  0.93827000000E+00  0.93827000000E+00 0.  1.
     999902    2    1    2    0    0  0.23299693851E-02  0.72888299448E-03  0.23498554250E-01  0.10203049692E+01  0.10200314153E+01 0.  0.
     999903    2    3    3    0    0 -0.10377253060E+00 -0.62866047437E-01  0.46150449764E-01  0.13136449649E+00  0.20146684508E-01 0.  0.
         14    1    1    2    0    0 -0.23299693851E-02 -0.72888299448E-03 -0.23498554250E-01  0.23625030785E-01  0.00000000000E+00 0. -1.
     999901    1    3    3    0    0  0.10610249999E+00  0.63594930431E-01 -0.22651895514E-01  0.88894047273E+00  0.88000000000E+00 0. -1.
        -11    1    4    4    0    0 -0.47330124710E-01 -0.23945719430E-01  0.10451833977E-01  0.54065147170E-01  0.51100000000E-03 0.  1.
         11    1    4    4    0    0 -0.56442405891E-01 -0.38920328007E-01  0.35698615787E-01  0.77299349319E-01  0.51100000000E-03 0. -1.
</event>
<event>
 8    1  0.1119901E+005  0.1043930E+01  0.7957747E-01            NaN
         13   -1    0    0    0    0  0.00000000000E+00  0.00000000000E+00  0.74505805969E-08  0.10566000000E+00  0.10566000000E+00 0.  1.
     999900   -1    0    0    0    0 -0.00000000000E+00 -0.00000000000E+00 -0.74505805969E-08  0.93827000000E+00  0.93827000000E+00 0. -1.
     999902    2    1    2    0    0  0.20874847536E-01 -0.59176535719E-02  0.11535040975E-01  0.10193569446E+01  0.10190607172E+01 0.  0.
     999903    2    3    3    0    0 -0.48043440305E-01 -0.11302949959E+00 -0.33014305008E-01  0.12907197772E+00  0.22040670625E-01 0.  0.
         14    1    1    2    0    0 -0.20874847536E-01  0.59176535719E-02 -0.11535040975E-01  0.24573055441E-01  0.00000000000E+00 0. -1.
     999901    1    3    3    0    0  0.68918287841E-01  0.10711184602E+00  0.44549345983E-01  0.89028496684E+00  0.88000000000E+00 0.  1.
        -11    1    4    4    0    0 -0.29649078413E-01 -0.61293014375E-01 -0.29018928807E-01  0.74015274180E-01  0.51100000000E-03 0.  1.
         11    1    4    4    0    0 -0.18394361892E-01 -0.51736485219E-01 -0.39953762010E-02  0.55056703536E-01  0.51100000000E-03 0. -1.
</event>
<event>
 8    1  0.1119901E+005  0.1043930E+01  0.7957747E-01            NaN
         13   -1    0    0    0    0  0.00000000000E+00  0.00000000000E+00  0.74505805969E-08  0.10566000000E+00  0.10566000000E+00 0. -1.
     999900   -1    0    0    0    0 -0.00000000000E+00 -0.00000000000E+00 -0.74505805969E-08  0.93827000000E+00  0.93827000000E+00 0. -1.
     999902    2    1    2    0    0 -0.16340945167E-01  0.49797903003E-03  0.16573597889E-01  0.10206499953E+01  0.10203844640E+01 0.  0.
     999903    2    3    3    0    0 -0.20687191071E-01 -0.11426437553E+00  0.59792972234E-01  0.13213595365E+00  0.20010080718E-01 0.  0.
         14    1    1    2    0    0  0.16340945167E-01 -0.49797903003E-03 -0.16573597889E-01  0.23280004705E-01  0.00000000000E+00 0.  1.
     999901    1    3    3    0    0  0.43462459043E-02  0.11476235456E+00 -0.43219374345E-01  0.88851404164E+00  0.88000000000E+00 0. -1.
        -11    1    4    4    0    0 -0.58180694102E-02 -0.78310752972E-01  0.34825322622E-01  0.85903947403E-01  0.51100000000E-03 0.  1.
         11    1    4    4    0    0 -0.14869121661E-01 -0.35953622555E-01  0.24967649612E-01  0.46232006250E-01  0.51100000000E-03 0. -1.
</event>
<event>
 8    1  0.1119901E+005  0.1043930E+01  0.7957747E-01            NaN
         13   -1    0    0    0    0  0.00000000000E+00  0.00000000000E+00  0.74505805969E-08  0.10566000000E+00  0.10566000000E+00 0.  1.
     999900   -1    0    0    0    0 -0.00000000000E+00 -0.00000000000E+00 -0.74505805969E-08  0.93827000000E+00  0.93827000000E+00 0.  1.
     999902    2    1    2    0    0  0.13447081205E-01  0.17728135700E-01  0.94255330726E-02  0.10197649123E+01  0.10194785554E+01 0.  0.
     999903    2    3    3    0    0  0.10549732420E+00 -0.38041639248E-01  0.65907250179E-01  0.13141042261E+00  0.18656950832E-01 0.  0.
         14    1    1    2    0    0 -0.13447081205E-01 -0.17728135700E-01 -0.94255330726E-02  0.24165087669E-01  0.00000000000E+00 0. -1.
     999901    1    3    3    0    0 -0.92050243000E-01  0.55769774947E-01 -0.56481717107E-01  0.88835448972E+00  0.88000000000E+00 0. -1.
        -11    1    4    4    0    0  0.81997728447E-01 -0.36998251386E-01  0.55335575802E-01  0.10561621630E+00  0.51100000000E-03 0.  1.
         11    1    4    4    0    0  0.23499595757E-01 -0.10433878618E-02  0.10571674378E-01  0.25794206310E-01  0.51100000000E-03 0. -1.
</event>
<event>
 8    1  0.1119901E+005  0.1043930E+01  0.7957747E-01            NaN
         13   -1    0    0    0    0  0.00000000000E+00  0.00000000000E+00  0.74505805969E-08  0.10566000000E+00  0.10566000000E+00 0.  1.
     999900   -1    0    0    0    0 -0.00000000000E+00 -0.00000000000E+00 -0.74505805969E-08  0.93827000000E+00  0.93827000000E+00 0. -1.
     999902    2    1    2    0    0 -0.39578833515E-02  0.10325079024E-01 -0.20130862195E-01  0.10209621157E+01  0.10207037366E+01 0.  0.
     999903    2    3    3    0    0 -0.11334422425E+00  0.32484427030E-01  0.53361426964E-01  0.13087362297E+00  0.19450247635E-01 0.  0.
         14    1    1    2    0    0  0.39578833515E-02 -0.10325079024E-01  0.20130862195E-01  0.22967884321E-01  0.00000000000E+00 0.  1.
     999901    1    3    3    0    0  0.10938634090E+00 -0.22159348005E-01 -0.73492289159E-01  0.89008849270E+00  0.88000000000E+00 0. -1.
        -11    1    4    4    0    0 -0.75308607827E-01  0.25812565268E-01  0.26798022616E-01  0.84000417116E-01  0.51100000000E-03 0.  1.
         11    1    4    4    0    0 -0.38035616421E-01  0.66718617615E-02  0.26563404349E-01  0.46873205859E-01  0.51100000000E-03 0. -1.
</event>
<event>
 8    1  0.1119901E+005  0.1043930E+01  0.7957747E-01            NaN
         13   -1    0    0    0    0  0.00000000000E+00  0.00000000000E+00  0.74505805969E-08  0.10566000000E+00  0.10566000000E+00 0. -1.
     999900   -1    0    0    0    0 -0.00000000000E+00 -0.00000000000E+00 -0.74505805969E-08  0.93827000000E+00  0.93827000000E+00 0.  1.
     999902    2    1    2    0    0 -0.52024662322E-02  0.15416933698E-01  0.18602600161E-01  0.10192155461E+01  0.10189158577E+01 0.  0.
     999903    2    3    3    0    0  0.10120742815E+00  0.39756003884E-01  0.70454367765E-01  0.13095654007E+00  0.19034549986E-01 0.  0.
         14    1    1    2    0    0  0.52024662322E-02 -0.15416933698E-01 -0.18602600161E-01  0.24714453915E-01  0.00000000000E+00 0.  1.
     999901    1    3    3    0    0 -0.10640989438E+00 -0.24339070185E-01 -0.51851767604E-01  0.88825900601E+00  0.88000000000E+00 0. -1.
        -11    1    4    4    0    0  0.69157629493E-02  0.56859618802E-02  0.10733476769E-02  0.90316740369E-02  0.51100000000E-03 0.  1.
         11    1    4    4    0    0  0.94291665200E-01  0.34070042003E-01  0.69381020088E-01  0.12192486604E+00  0.51100000000E-03 0. -1.
</event>
<event>
 8    1  0.1119901E+005  0.1043930E+01  0.7957747E-01            NaN
         13   -1    0    0    0    0  0.00000000000E+00  0.00000000000E+00  0.74505805969E-08  0.10566000000E+00  0.10566000000E+00 0.  1.
     999900   -1    0    0    0    0 -0.00000000000E+00 -0.00000000000E+00 -0.74505805969E-08  0.93827000000E+00  0.93827000000E+00 0.  1.
     999902    2    1    2    0    0 -0.76146026490E-02  0.20088217071E-01 -0.10053369592E-01  0.10202110439E+01  0.10199352848E+01 0.  0.
     999903    2    3    3    0    0  0.28678301135E-01  0.60155798698E-01  0.11022126351E+00  0.13038601990E+00  0.20263814571E-01 0.  0.
         14    1    1    2    0    0  0.76146026490E-02 -0.20088217071E-01  0.10053369592E-01  0.23718956106E-01  0.00000000000E+00 0.  1.
     999901    1    3    3    0    0 -0.36292903784E-01 -0.40067581626E-01 -0.12027463311E+00  0.88982502400E+00  0.88000000000E+00 0.  1.
        -11    1    4    4    0    0  0.28514592680E-01  0.48383358712E-01  0.78306042434E-01  0.96364561944E-01  0.51100000000E-03 0. -1.
         11    1    4    4    0    0  0.16370845529E-03  0.11772439986E-01  0.31915221080E-01  0.34021457953E-01  0.51100000000E-03 0.  1.
</event>
<event>
 8    1  0.1119901E+005  0.1043930E+01  0.7957747E-01            NaN
         13   -1    0    0    0    0  0.00000000000E+00  0.00000000000E+00  0.74505805969E-08  0.10566000000E+00  0.10566000000E+00 0.  1.
     999900   -1    0    0    0    0 -0.00000000000E+00 -0.00000000000E+00 -0.74505805969E-08  0.93827000000E+00  0.93827000000E+00 0.  1.
     999902    2    1    2    0    0  0.17434723757E-01  0.96166905032E-02  0.11480239654E-01  0.10209463921E+01  0.10206876551E+01 0.  0.
     999903    2    3    3    0    0  0.11215210844E+00 -0.14153661708E-01  0.66706246316E-01  0.13382389527E+00  0.26090037960E-01 0.  0.
         14    1    1    2    0    0 -0.17434723757E-01 -0.96166905032E-02 -0.11480239654E-01  0.22983607881E-01  0.00000000000E+00 0. -1.
     999901    1    3    3    0    0 -0.94717384681E-01  0.23770352212E-01 -0.55226006663E-01  0.88712249685E+00  0.88000000000E+00 0. -1.
        -11    1    4    4    0    0  0.22342596144E-01 -0.22297950303E-02  0.21176626937E-02  0.22559016038E-01  0.51100000000E-03 0.  1.
         11    1    4    4    0    0  0.89809512294E-01 -0.11923866678E-01  0.64588583623E-01  0.11126487923E+00  0.51100000000E-03 0. -1.
</event>
<event>
 8    1  0.1119901E+005  0.1043930E+01  0.7957747E-01            NaN
         13   -1    0    0    0    0  0.00000000000E+00  0.00000000000E+00  0.74505805969E-08  0.10566000000E+00  0.10566000000E+00 0. -1.
     999900   -1    0    0    0    0 -0.00000000000E+00 -0.00000000000E+00 -0.74505805969E-08  0.93827000000E+00  0.93827000000E+00 0. -1.
     999902    2    1    2    0    0 -0.19259695122E-01 -0.11666869779E-01  0.11386896586E-01  0.10186968250E+01  0.10183842635E+01 0.  0.
     999903    2    3    3    0    0  0.88750945396E-01 -0.32674880674E-01 -0.80181577427E-01  0.12712942967E+00  0.28078967105E-01 0.  0.
         14    1    1    2    0    0  0.19259695122E-01  0.11666869779E-01 -0.11386896586E-01  0.25233174998E-01  0.00000000000E+00 0.  1.
     999901    1    3    3    0    0 -0.10801064052E+00  0.21008010895E-01  0.91568474012E-01  0.89156739533E+00  0.88000000000E+00 0. -1.
        -11    1    4    4    0    0  0.30499198888E-01 -0.20870830809E-01 -0.44328466930E-01  0.57715394938E-01  0.51100000000E-03 0. -1.
         11    1    4    4    0    0  0.58251746507E-01 -0.11804049865E-01 -0.35853110496E-01  0.69414034731E-01  0.51100000000E-03 0.  1.
</event>
<event>
 8    1  0.1119901E+005  0.1043930E+01  0.7957747E-01            NaN
         13   -1    0    0    0    0  0.00000000000E+00  0.00000000000E+00  0.74505805969E-08  0.10566000000E+00  0.10566000000E+00 0. -1.
     999900   -1    0    0    0    0 -0.00000000000E+00 -0.00000000000E+00 -0.74505805969E-08  0.93827000000E+00  0.93827000000E+00 0. -1.
     999902    2    1    2    0    0 -0.96210248063E-02  0.16903492144E-01 -0.12376371552E-01  0.10208764376E+01  0.10206161052E+01 0.  0.
     999903    2    3    3    0    0  0.57039477954E-01  0.11735289998E+00 -0.12615954508E-01  0.13265700328E+00  0.20335019820E-01 0.  0.
         14    1    1    2    0    0  0.96210248063E-02 -0.16903492144E-01  0.12376371552E-01  0.23053562366E-01  0.00000000000E+00 0.  1.
     999901    1    3    3    0    0 -0.66660502760E-01 -0.10044940784E+00  0.23958295538E-03  0.88821943435E+00  0.88000000000E+00 0.  1.
        -11    1    4    4    0    0  0.16283365459E-01  0.19315963216E-01  0.25902323593E-02  0.25401276549E-01  0.51100000000E-03 0.  1.
         11    1    4    4    0    0  0.40756112495E-01  0.98036936768E-01 -0.15206186867E-01  0.10725572673E+00  0.51100000000E-03 0. -1.
</event>
<event>
 8    1  0.1119901E+005  0.1043930E+01  0.7957747E-01            NaN
         13   -1    0    0    0    0  0.00000000000E+00  0.00000000000E+00  0.74505805969E-08  0.10566000000E+00  0.10566000000E+00 0.  1.
     999900   -1    0    0    0    0 -0.00000000000E+00 -0.00000000000E+00 -0.74505805969E-08  0.93827000000E+00  0.93827000000E+00 0.  1.
     999902    2    1    2    0    0  0.22508033484E-01 -0.40039879012E-02  0.56172516003E-02  0.10203886108E+01  0.10201170129E+01 0.  0.
     999903    2    3    3    0    0  0.91569541180E-01 -0.94252114843E-01  0.62902651929E-02  0.13308107154E+00  0.20063951297E-01 0.  0.
         14    1    1    2    0    0 -0.22508033484E-01  0.40039879012E-02 -0.56172516003E-02  0.23541389210E-01  0.00000000000E+00 0. -1.
     999901    1    3    3    0    0 -0.69061507697E-01  0.90248126942E-01 -0.67301359259E-03  0.88730753925E+00  0.88000000000E+00 0.  1.
        -11    1    4    4    0    0  0.69419845963E-01 -0.79177523142E-01 -0.10109853125E-02  0.10530659237E+00  0.51100000000E-03 0.  1.
         11    1    4    4    0    0  0.22149695218E-01 -0.15074591701E-01  0.73012505054E-02  0.27774479170E-01  0.51100000000E-03 0. -1.
</event>
<event>
 8    1  0.1119901E+005  0.1043930E+01  0.7957747E-01            NaN
         13   -1    0    0    0    0  0.00000000000E+00  0.00000000000E+00  0.74505805969E-08  0.10566000000E+00  0.10566000000E+00 0. -1.
     999900   -1    0    0    0    0 -0.00000000000E+00 -0.00000000000E+00 -0.74505805969E-08  0.93827000000E+00  0.93827000000E+00 0. -1.
     999902    2    1    2    0    0 -0.43781924197E-02  0.19637583412E-01  0.95851861172E-02  0.10216437028E+01  0.10214005954E+01 0.  0.
     999903    2    3    3    0    0  0.20299052065E-01  0.11413332687E+00  0.65189064277E-01  0.13449647531E+00  0.20030475580E-01 0.  0.
         14    1    1    2    0    0  0.43781924197E-02 -0.19637583412E-01 -0.95851861172E-02  0.22286297226E-01  0.00000000000E+00 0.  1.
     999901    1    3    3    0    0 -0.24677244485E-01 -0.94495743462E-01 -0.55603878160E-01  0.88714722746E+00  0.88000000000E+00 0.  1.
        -11    1    4    4    0    0  0.15124277078E-01  0.32969456060E-01  0.21638339955E-01  0.42239882422E-01  0.51100000000E-03 0.  1.
         11    1    4    4    0    0  0.51747749874E-02  0.81163870814E-01  0.43550724322E-01  0.92256592890E-01  0.51100000000E-03 0. -1.
</event>
<event>
 8    1  0.1119901E+005  0.1043930E+01  0.7957747E-01            NaN
         13   -1    0    0    0    0  0.00000000000E+00  0.00000000000E+00  0.74505805969E-08  0.10566000000E+00  0.10566000000E+00 0. -1.
     999900   -1    0    0    0    0 -0.00000000000E+00 -0.00000000000E+00 -0.74505805969E-08  0.93827000000E+00  0.93827000000E+00 0.  1.
     999902    2    1    2    0    0  0.20097360592E-01  0.51069458444E-02 -0.10728361622E-01  0.10205829972E+01  0.10203159175E+01 0.  0.
     999903    2    3    3    0    0  0.10302019596E+00 -0.79863941618E-02  0.79435874476E-01  0.13200141866E+00  0.20913467103E-01 0.  0.
         14    1    1    2    0    0 -0.20097360592E-01 -0.51069458444E-02  0.10728361622E-01  0.23347002842E-01  0.00000000000E+00 0. -1.
     999901    1    3    3    0    0 -0.82922835369E-01  0.13093340006E-01 -0.90164236098E-01  0.88858157850E+00  0.88000000000E+00 0.  1.
        -11    1    4    4    0    0  0.87358045433E-01 -0.56045422063E-02  0.75666858295E-01  0.11570900380E+00  0.51100000000E-03 0. -1.
         11    1    4    4    0    0  0.15662150529E-01 -0.23818519555E-02  0.37690161812E-02  0.16292414858E-01  0.51100000000E-03 0.  1.
</event>
<event>
 8    1  0.1119901E+005  0.1043930E+01  0.7957747E-01            NaN
         13   -1    0    0    0    0  0.00000000000E+00  0.00000000000E+00  0.74505805969E-08  0.10566000000E+00  0.10566000000E+00 0. -1.
     999900   -1    0    0    0    0 -0.00000000000E+00 -0.00000000000E+00 -0.74505805969E-08  0.93827000000E+00  0.93827000000E+00 0.  1.
     999902    2    1    2    0    0  0.22575553596E-01 -0.62665647338E-02 -0.15691512598E-02  0.10204483542E+01  0.10201781491E+01 0.  0.
     999903    2    3    3    0    0 -0.88822819072E-01 -0.87263515724E-01  0.28855592776E-01  0.12921563008E+00  0.18963635117E-01 0.  0.
         14    1    1    2    0    0 -0.22575553596E-01  0.62665647338E-02  0.15691512598E-02  0.23481645799E-01  0.00000000000E+00 0.  1.
     999901    1    3    3    0    0  0.11139837267E+00  0.80996950990E-01 -0.30424744036E-01  0.89123272413E+00  0.88000000000E+00 0. -1.
        -11    1    4    4    0    0 -0.64497315357E-01 -0.63638939194E-01  0.12180630887E-01  0.91424543531E-01  0.51100000000E-03 0.  1.
         11    1    4    4    0    0 -0.24325503716E-01 -0.23624576530E-01  0.16674961889E-01  0.37791086545E-01  0.51100000000E-03 0. -1.
</event>
<event>
 8    1  0.1119901E+005  0.1043930E+01  0.7957747E-01            NaN
         13   -1    0    0    0    0  0.00000000000E+00  0.00000000000E+00  0.74505805969E-08  0.10566000000E+00  0.10566000000E+00 0.  1.
     999900   -1    0    0    0    0 -0.00000000000E+00 -0.00000000000E+00 -0.74505805969E-08  0.93827000000E+00  0.93827000000E+00 0. -1.
     999902    2    1    2    0    0  0.15623157988E-01  0.57046984645E-02  0.17385249601E-01  0.10198702088E+01  0.10195863716E+01 0.  0.
     999903    2    3    3    0    0 -0.61471475995E-01 -0.82588175521E-01 -0.72564168268E-01  0.12755293787E+00  0.20115773543E-01 0.  0.
         14    1    1    2    0    0 -0.15623157988E-01 -0.57046984645E-02 -0.17385249601E-01  0.24059791225E-01  0.00000000000E+00 0. -1.
     999901    1    3    3    0    0  0.77094633983E-01  0.88292873986E-01  0.89949417869E-01  0.89231727091E+00  0.88000000000E+00 0.  1.
        -11    1    4    4    0    0 -0.35019674045E-01 -0.61499135665E-01 -0.44551872685E-01  0.83628055929E-01  0.51100000000E-03 0.  1.
         11    1    4    4    0    0 -0.26451801950E-01 -0.21089039856E-01 -0.28012295583E-01  0.43924881938E-01  0.51100000000E-03 0. -1.
</event>
<event>
 8    1  0.1119901E+005  0.1043930E+01  0.7957747E-01            NaN
         13   -1    0    0    0    0  0.00000000000E+00  0.00000000000E+00  0.74505805969E-08  0.10566000000E+00  0.10566000000E+00 0. -1.
     999900   -1    0    0    0    0 -0.00000000000E+00 -0.00000000000E+00 -0.74505805969E-08  0.93827000000E+00  0.93827000000E+00 0. -1.
     999902    2    1    2    0    0  0.21843492045E-01 -0.47845882242E-02  0.57634884805E-02  0.10208378319E+01  0.10205766168E+01 0.  0.
     999903    2    3    3    0    0  0.13063016635E+00  0.21396562009E-01 -0.84917234344E-03  0.13372807518E+00  0.18984830084E-01 0.  0.
         14    1    1    2    0    0 -0.21843492045E-01  0.47845882242E-02 -0.57634884805E-02  0.23092168124E-01  0.00000000000E+00 0. -1.
     999901    1    3    3    0    0 -0.10878667430E+00 -0.26181150233E-01  0.66126608239E-02  0.88710975669E+00  0.88000000000E+00 0.  1.
        -11    1    4    4    0    0  0.90777523095E-01  0.14154775040E-01 -0.93068909695E-02  0.92346064866E-01  0.51100000000E-03 0. -1.
         11    1    4    4    0    0  0.39852643252E-01  0.72417869685E-02  0.84577186261E-02  0.41382010319E-01  0.51100000000E-03 0.  1.
</event>
<event>
 8    1  0.1119901E+005  0.1043930E+01  0.7957747E-01            NaN
         13   -1    0    0    0    0  0.00000000000E+00  0.00000000000E+00  0.74505805969E-08  0.10566000000E+00  0.10566000000E+00 0. -1.
     999900   -1    0    0    0    0 -0.00000000000E+00 -0.00000000000E+00 -0.74505805969E-08  0.93827000000E+00  0.93827000000E+00 0. -1.
     999902    2    1    2    0    0  0.20290260249E-01 -0.81299563458E-02  0.63248743193E-02  0.10211748932E+01  0.10209213327E+01 0.  0.
     999903    2    3    3    0    0  0.79936817659E-01 -0.41375124314E-01  0.97056376041E-01  0.13387834838E+00  0.20041863850E-01 0.  0.
         14    1    1    2    0    0 -0.20290260249E-01  0.81299563458E-02 -0.63248743193E-02  0.22755106818E-01  0.00000000000E+00 0.  1.
     999901    1    3    3    0    0 -0.59646557410E-01  0.33245167969E-01 -0.90731501722E-01  0.88729654480E+00  0.88000000000E+00 0. -1.
        -11    1    4    4    0    0  0.33179339481E-01 -0.25123180189E-01  0.54649594647E-01  0.68694119597E-01  0.51100000000E-03 0. -1.
         11    1    4    4    0    0  0.46757478177E-01 -0.16251944125E-01  0.42406781394E-01  0.65184228787E-01  0.51100000000E-03 0.  1.
</event>
<event>
 8    1  0.1119901E+005  0.1043930E+01  0.7957747E-01            NaN
         13   -1    0    0    0    0  0.00000000000E+00  0.00000000000E+00  0.74505805969E-08  0.10566000000E+00  0.10566000000E+00 0.  1.
     999900   -1    0    0    0    0 -0.00000000000E+00 -0.00000000000E+00 -0.74505805969E-08  0.93827000000E+00  0.93827000000E+00 0.  1.
     999902    2    1    2    0    0 -0.11166826558E-02 -0.23325140409E-01 -0.54361737651E-02  0.10199537380E+01  0.10196718916E+01 0.  0.
     999903    2    3    3    0    0 -0.61783741738E-01 -0.99229453034E-01  0.58744655241E-01  0.13228198809E+00  0.19592722176E-01 0.  0.
         14    1    1    2    0    0  0.11166826558E-02  0.23325140409E-01  0.54361737651E-02  0.23976262020E-01  0.00000000000E+00 0. -1.
     999901    1    3    3    0    0  0.60667059082E-01  0.75904312624E-01 -0.64180829006E-01  0.88767174989E+00  0.88000000000E+00 0.  1.
        -11    1    4    4    0    0 -0.46337246380E-01 -0.71932161896E-01  0.33029665375E-01  0.91720206242E-01  0.51100000000E-03 0.  1.
         11    1    4    4    0    0 -0.15446495358E-01 -0.27297291137E-01  0.25714989866E-01  0.40561781853E-01  0.51100000000E-03 0. -1.
</event>
<event>
 8    1  0.1119901E+005  0.1043930E+01  0.7957747E-01            NaN
         13   -1    0    0    0    0  0.00000000000E+00  0.00000000000E+00  0.74505805969E-08  0.10566000000E+00  0.10566000000E+00 0.  1.
     999900   -1    0    0    0    0 -0.00000000000E+00 -0.00000000000E+00 -0.74505805969E-08  0.93827000000E+00  0.93827000000E+00 0.  1.
     999902    2    1    2    0    0  0.69408560307E-03  0.17074133278E-01 -0.14765381967E-01  0.10213462827E+01  0.10210965698E+01 0.  0.
     999903    2    3    3    0    0  0.12247464972E-01 -0.11988852135E+00  0.40908524368E-01  0.12893839772E+00  0.20696499482E-01 0.  0.
         14    1    1    2    0    0 -0.69408560307E-03 -0.17074133278E-01  0.14765381967E-01  0.22583717290E-01  0.00000000000E+00 0. -1.
     999901    1    3    3    0    0 -0.11553379369E-01  0.13696265463E+00 -0.55673906334E-01  0.89240788499E+00  0.88000000000E+00 0. -1.
        -11    1    4    4    0    0  0.58692233754E-02 -0.97353627218E-01  0.40229470689E-01  0.10550283384E+00  0.51100000000E-03 0.  1.
         11    1    4    4    0    0  0.63782415970E-02 -0.22534894136E-01  0.67905367868E-03  0.23435563883E-01  0.51100000000E-03 0. -1.
</event>
<event>
 8    1  0.1119901E+005  0.1043930E+01  0.7957747E-01            NaN
         13   -1    0    0    0    0  0.00000000000E+00  0.00000000000E+00  0.74505805969E-08  0.10566000000E+00  0.10566000000E+00 0. -1.
     999900   -1    0    0    0    0 -0.00000000000E+00 -0.00000000000E+00 -0.74505805969E-08  0.93827000000E+00  0.93827000000E+00 0.  1.
     999902    2    1    2    0    0  0.88310365589E-02  0.12216844663E-01  0.16768675293E-01  0.10213816748E+01  0.10211327527E+01 0.  0.
     999903    2    3    3    0    0  0.72969210527E-01  0.63348419074E-01  0.91163404910E-01  0.13444158712E+00  0.20645727602E-01 0.  0.
         14    1    1    2    0    0 -0.88310365589E-02 -0.12216844663E-01 -0.16768675293E-01  0.22548325244E-01  0.00000000000E+00 0.  1.
     999901    1    3    3    0    0 -0.64138173968E-01 -0.51131574411E-01 -0.74394729617E-01  0.88694008764E+00  0.88000000000E+00 0. -1.
        -11    1    4    4    0    0  0.52923298300E-01  0.54411587895E-01  0.78027980201E-01  0.10885827123E+00  0.51100000000E-03 0. -1.
         11    1    4    4    0    0  0.20045912227E-01  0.89368311786E-02  0.13135424709E-01  0.25583315888E-01  0.51100000000E-03 0.  1.
</event>
<event>
 8    1  0.1119901E+005  0.1043930E+01  0.7957747E-01            NaN
         13   -1    0    0    0    0  0.00000000000E+00  0.00000000000E+00  0.74505805969E-08  0.10566000000E+00  0.10566000000E+00 0.  1.
     999900   -1    0    0    0    0 -0.00000000000E+00 -0.00000000000E+00 -0.74505805969E-08  0.93827000000E+00  0.93827000000E+00 0. -1.
     999902    2    1    2    0    0  0.21690265922E-01 -0.12088791499E-01 -0.17180910716E-02  0.10190390709E+01  0.10187350341E+01 0.  0.
     999903    2    3    3    0    0  0.19135672090E-01  0.82729819448E-01 -0.95018271970E-01  0.12903793678E+00  0.20295816049E-01 0.  0.
         14    1    1    2    0    0 -0.21690265922E-01  0.12088791499E-01  0.17180910716E-02  0.24890929123E-01  0.00000000000E+00 0.  1.
     999901    1    3    3    0    0  0.25545938318E-02 -0.94818610947E-01  0.93300180898E-01  0.89000113409E+00  0.88000000000E+00 0.  1.
        -11    1    4    4    0    0  0.85988880422E-02  0.70727552748E-01 -0.79647854584E-01  0.10686612866E+00  0.51100000000E-03 0. -1.
         11    1    4    4    0    0  0.10536784048E-01  0.12002266700E-01 -0.15370417386E-01  0.22171808127E-01  0.51100000000E-03 0.  1.
</event>
<event>
 8    1  0.1119901E+005  0.1043930E+01  0.7957747E-01            NaN
         13   -1    0    0    0    0  0.00000000000E+00  0.00000000000E+00  0.74505805969E-08  0.10566000000E+00  0.10566000000E+00 0.  1.
     999900   -1    0    0    0    0 -0.00000000000E+00 -0.00000000000E+00 -0.74505805969E-08  0.93827000000E+00  0.93827000000E+00 0.  1.
     999902    2    1    2    0    0  0.13736307500E-01  0.73551095324E-02 -0.17588285314E-01  0.10204325201E+01  0.10201619463E+01 0.  0.
     999903    2    3    3    0    0  0.85668017744E-02  0.12937279021E+00 -0.13303959558E-01  0.13198815292E+00  0.20812693993E-01 0.  0.
         14    1    1    2    0    0 -0.13736307500E-01 -0.73551095324E-02  0.17588285314E-01  0.23497479870E-01  0.00000000000E+00 0.  1.
     999901    1    3    3    0    0  0.51695057254E-02 -0.12201768068E+00 -0.42843257561E-02  0.88844436721E+00  0.88000000000E+00 0. -1.
        -11    1    4    4    0    0  0.12665278315E-01  0.73635475700E-01 -0.14370351053E-01  0.76087848352E-01  0.51100000000E-03 0.  1.
         11    1    4    4    0    0 -0.40984765409E-02  0.55737314508E-01  0.10663914952E-02  0.55900304564E-01  0.51100000000E-03 0. -1.
</event>
<event>
 8    1  0.1119901E+005  0.1043930E+01  0.7957747E-01            NaN
         13   -1    0    0    0    0  0.00000000000E+00  0.00000000000E+00  0.74505805969E-08  0.10566000000E+00  0.10566000000E+00 0. -1.
     999900   -1    0    0    0    0 -0.00000000000E+00 -0.00000000000E+00 -0.74505805969E-08  0.93827000000E+00  0.93827000000E+00 0.  1.
     999902    2    1    2    0    0  0.10432179313E-01  0.41619096772E-02 -0.20981332895E-01  0.10201315087E+01  0.10198538753E+01 0.  0.
     999903    2    3    3    0    0 -0.10829196928E+00 -0.61268428084E-01  0.25441027423E-01  0.12854214802E+00  0.19871261942E-01 0.  0.
         14    1    1    2    0    0 -0.10432179313E-01 -0.41619096772E-02  0.20981332895E-01  0.23798491285E-01  0.00000000000E+00 0. -1.
     999901    1    3    3    0    0  0.11872414860E+00  0.65430337761E-01 -0.46422360318E-01  0.89158936069E+00  0.88000000000E+00 0.  1.
        -11    1    4    4    0    0 -0.35509600784E-01 -0.25670570109E-01  0.69837192680E-03  0.43825321013E-01  0.51100000000E-03 0. -1.
         11    1    4    4    0    0 -0.72782368500E-01 -0.35597857975E-01  0.24742655497E-01  0.84716827011E-01  0.51100000000E-03 0.  1.
</event>
<event>
 8    1  0.1119901E+005  0.1043930E+01  0.7957747E-01            NaN
         13   -1    0    0    0    0  0.00000000000E+00  0.00000000000E+00  0.74505805969E-08  0.10566000000E+00  0.10566000000E+00 0.  1.
     999900   -1    0    0    0    0 -0.00000000000E+00 -0.00000000000E+00 -0.74505805969E-08  0.93827000000E+00  0.93827000000E+00 0. -1.
     999902    2    1    2    0    0 -0.51706713975E-02  0.99154714116E-02  0.22013263577E-01  0.10192391882E+01  0.10189400799E+01 0.  0.
     999903    2    3    3    0    0  0.49417611527E-02 -0.12309038946E-01 -0.12452310844E+00  0.12678801388E+00  0.19830846816E-01 0.  0.
         14    1    1    2    0    0  0.51706713975E-02 -0.99154714116E-02 -0.22013263577E-01  0.24690811840E-01  0.00000000000E+00 0. -1.
     999901    1    3    3    0    0 -0.10112432550E-01  0.22224510357E-01  0.14653637201E+00  0.89245117428E+00  0.88000000000E+00 0. -1.
        -11    1    4    4    0    0 -0.56201278243E-02 -0.53701118153E-02 -0.19381850928E-01  0.20888781776E-01  0.51100000000E-03 0.  1.
         11    1    4    4    0    0  0.10561888977E-01 -0.69389271305E-02 -0.10514125751E+00  0.10589923210E+00  0.51100000000E-03 0. -1.
</event>
<event>
 8    1  0.1119901E+005  0.1043930E+01  0.7957747E-01            NaN
         13   -1    0    0    0    0  0.00000000000E+00  0.00000000000E+00  0.74505805969E-08  0.10566000000E+00  0.10566000000E+00 0. -1.
     999900   -1    0    0    0    0 -0.00000000000E+00 -0.00000000000E+00 -0.74505805969E-08  0.93827000000E+00  0.93827000000E+00 0. -1.
     999902    2    1    2    0    0 -0.12430173927E-01  0.10624840537E-01 -0.16704512868E-01  0.10205540035E+01  0.10202862524E+01 0.  0.
     999903    2    3    3    0    0  0.37600146003E-01  0.11339134130E+00  0.49192741503E-01  0.13071894314E+00  0.19903492612E-01 0.  0.
         14    1    1    2    0    0  0.12430173927E-01 -0.10624840537E-01  0.16704512868E-01  0.23375996459E-01  0.00000000000E+00 0. -1.
     999901    1    3    3    0    0 -0.50030319929E-01 -0.10276650076E+00 -0.65897254370E-01  0.88983506040E+00  0.88000000000E+00 0. -1.
        -11    1    4    4    0    0  0.30948263577E-01  0.70771492340E-01  0.38340362170E-01  0.86235976476E-01  0.51100000000E-03 0. -1.
         11    1    4    4    0    0  0.66518824259E-02  0.42619848956E-01  0.10852379333E-01  0.44482966662E-01  0.51100000000E-03 0.  1.
</event>
<event>
 8    1  0.1119901E+005  0.1043930E+01  0.7957747E-01            NaN
         13   -1    0    0    0    0  0.00000000000E+00  0.00000000000E+00  0.74505805969E-08  0.10566000000E+00  0.10566000000E+00 0. -1.
     999900   -1    0    0    0    0 -0.00000000000E+00 -0.00000000000E+00 -0.74505805969E-08  0.93827000000E+00  0.93827000000E+00 0. -1.
     999902    2    1    2    0    0  0.10647244286E-01 -0.10291711086E-01  0.17989513026E-01  0.10206296629E+01  0.10203636622E+01 0.  0.
     999903    2    3    3    0    0  0.29503241063E-01 -0.11946369910E+00  0.46570691405E-01  0.13322279158E+00  0.20915694193E-01 0.  0.
         14    1    1    2    0    0 -0.10647244286E-01  0.10291711086E-01 -0.17989513026E-01  0.23300337055E-01  0.00000000000E+00 0.  1.
     999901    1    3    3    0    0 -0.18855996777E-01  0.10917198801E+00 -0.28581178379E-01  0.88740687136E+00  0.88000000000E+00 0.  1.
        -11    1    4    4    0    0  0.15222548437E-01 -0.62144448862E-01  0.13049105605E-01  0.65300832945E-01  0.51100000000E-03 0.  1.
         11    1    4    4    0    0  0.14280692626E-01 -0.57319250238E-01  0.33521585800E-01  0.67921958639E-01  0.51100000000E-03 0. -1.
</event>
<event>
 8    1  0.1119901E+005  0.1043930E+01  0.7957747E-01            NaN
         13   -1    0    0    0    0  0.00000000000E+00  0.00000000000E+00  0.74505805969E-08  0.10566000000E+00  0.10566000000E+00 0.  1.
     999900   -1    0    0    0    0 -0.00000000000E+00 -0.00000000000E+00 -0.74505805969E-08  0.93827000000E+00  0.93827000000E+00 0.  1.
     999902    2    1    2    0    0  0.16880513773E-01 -0.85469855695E-02 -0.13196268982E-01  0.10208617486E+01  0.10206010805E+01 0.  0.
     999903    2    3    3    0    0  0.33544056200E-01 -0.64172086971E-01  0.10696038374E+00  0.13080026379E+00  0.20613705778E-01 0.  0.
         14    1    1    2    0    0 -0.16880513773E-01  0.85469855695E-02  0.13196268982E-01  0.23068251399E-01  0.00000000000E+00 0.  1.
     999901    1    3    3    0    0 -0.16663542426E-01  0.55625101402E-01 -0.12015665272E+00  0.89006148481E+00  0.88000000000E+00 0.  1.
        -11    1    4    4    0    0  0.57681853597E-02 -0.48324155374E-02  0.23578866584E-01  0.24755772512E-01  0.51100000000E-03 0. -1.
         11    1    4    4    0    0  0.27775870840E-01 -0.59339671434E-01  0.83381517151E-01  0.10604449128E+00  0.51100000000E-03 0.  1.
</event>
<event>
 8    1  0.1119901E+005  0.1043930E+01  0.7957747E-01            NaN
         13   -1    0    0    0    0  0.00000000000E+00  0.00000000000E+00  0.74505805969E-08  0.10566000000E+00  0.10566000000E+00 0. -1.
     999900   -1    0    0    0    0 -0.00000000000E+00 -0.00000000000E+00 -0.74505805969E-08  0.93827000000E+00  0.93827000000E+00 0.  1.
     999902    2    1    2    0    0 -0.24105228748E-01  0.78108090136E-03 -0.86595477306E-02  0.10183046238E+01  0.10179821447E+01 0.  0.
     999903    2    3    3    0    0  0.72586350559E-01  0.99311189819E-01  0.28199642996E-01  0.12678006223E+00  0.12102627976E-01 0.  0.
         14    1    1    2    0    0  0.24105228748E-01 -0.78108090136E-03  0.86595477306E-02  0.25625376236E-01  0.00000000000E+00 0.  1.
     999901    1    3    3    0    0 -0.96691579306E-01 -0.98530108918E-01 -0.36859190727E-01  0.89152456153E+00  0.88000000000E+00 0.  1.
        -11    1    4    4    0    0  0.44966797767E-01  0.54309493813E-01  0.11825999613E-01  0.71495799929E-01  0.51100000000E-03 0.  1.
         11    1    4    4    0    0  0.27619552792E-01  0.45001696006E-01  0.16373643384E-01  0.55284262304E-01  0.51100000000E-03 0. -1.
</event>
<event>
 8    1  0.1119901E+005  0.1043930E+01  0.7957747E-01            NaN
         13   -1    0    0    0    0  0.00000000000E+00  0.00000000000E+00  0.74505805969E-08  0.10566000000E+00  0.10566000000E+00 0. -1.
     999900   -1    0    0    0    0 -0.00000000000E+00 -0.00000000000E+00 -0.74505805969E-08  0.93827000000E+00  0.93827000000E+00 0.  1.
     999902    2    1    2    0    0  0.13201177617E-01 -0.66791094344E-02 -0.18589918249E-01  0.10201714930E+01  0.10198948027E+01 0.  0.
     999903    2    3    3    0    0 -0.32274234685E-01 -0.82621179858E-01  0.91034180282E-01  0.12896295729E+00  0.21825141179E-01 0.  0.
         14    1    1    2    0    0 -0.13201177617E-01  0.66791094344E-02  0.18589918249E-01  0.23758506978E-01  0.00000000000E+00 0. -1.
     999901    1    3    3    0    0  0.45475412302E-01  0.75942070424E-01 -0.10962409853E+00  0.89120853573E+00  0.88000000000E+00 0.  1.
        -11    1    4    4    0    0 -0.26141443758E-01 -0.50664044649E-01  0.45234287052E-01  0.72777897386E-01  0.51100000000E-03 0.  1.
         11    1    4    4    0    0 -0.61327909269E-02 -0.31957135209E-01  0.45799893231E-01  0.56185059903E-01  0.51100000000E-03 0. -1.
</event>
<event>
 8    1  0.1119901E+005  0.1043930E+01  0.7957747E-01            NaN
         13   -1    0    0    0    0  0.00000000000E+00  0.00000000000E+00  0.74505805969E-08  0.10566000000E+00  0.10566000000E+00 0.  1.
     999900   -1    0    0    0    0 -0.00000000000E+00 -0.00000000000E+00 -0.74505805969E-08  0.93827000000E+00  0.93827000000E+00 0.  1.
     999902    2    1    2    0    0 -0.18304304764E-01 -0.14829241226E-01  0.44928442553E-03  0.10203682551E+01  0.10200961818E+01 0.  0.
     999903    2    3    3    0    0  0.48613895341E-01 -0.19778531384E-01  0.11731052274E+00  0.13011037669E+00  0.20308871303E-01 0.  0.
         14    1    1    2    0    0  0.18304304764E-01  0.14829241226E-01 -0.44928442553E-03  0.23561744942E-01  0.00000000000E+00 0. -1.
     999901    1    3    3    0    0 -0.66918200104E-01  0.49492901580E-02 -0.11686123831E+00  0.89025787837E+00  0.88000000000E+00 0.  1.
        -11    1    4    4    0    0  0.16433829805E-01 -0.16496420069E-01  0.58927276369E-01  0.63363141166E-01  0.51100000000E-03 0. -1.
         11    1    4    4    0    0  0.32180065536E-01 -0.32821113142E-02  0.58383246368E-01  0.66747235524E-01  0.51100000000E-03 0.  1.
</event>
<event>
 8    1  0.1119901E+005  0.1043930E+01  0.7957747E-01            NaN
         13   -1    0    0    0    0  0.00000000000E+00  0.00000000000E+00  0.74505805969E-08  0.10566000000E+00  0.10566000000E+00 0.  1.
     999900   -1    0    0    0    0 -0.00000000000E+00 -0.00000000000E+00 -0.74505805969E-08  0.93827000000E+00  0.93827000000E+00 0.  1.
     999902    2    1    2    0    0  0.57508549282E-02  0.17010806777E-01 -0.12874983129E-01  0.10218346369E+01  0.10215957224E+01 0.  0.
     999903    2    3    3    0    0  0.89093861302E-01 -0.19329498856E-01  0.91887660118E-01  0.13096882998E+00  0.19953613652E-01 0.  0.
         14    1    1    2    0    0 -0.57508549282E-02 -0.17010806777E-01  0.12874983129E-01  0.22095363092E-01  0.00000000000E+00 0.  1.
     999901    1    3    3    0    0 -0.83343006374E-01  0.36340305634E-01 -0.10476264325E+00  0.89086580692E+00  0.88000000000E+00 0.  1.
        -11    1    4    4    0    0  0.63852909435E-01 -0.65975340085E-02  0.55303312627E-01  0.84731570308E-01  0.51100000000E-03 0. -1.
         11    1    4    4    0    0  0.25240951866E-01 -0.12731964848E-01  0.36584347491E-01  0.46237259676E-01  0.51100000000E-03 0.  1.
</event>
<event>
 8    1  0.1119901E+005  0.1043930E+01  0.7957747E-01            NaN
         13   -1    0    0    0    0  0.00000000000E+00  0.00000000000E+00  0.74505805969E-08  0.10566000000E+00  0.10566000000E+00 0.  1.
     999900   -1    0    0    0    0 -0.00000000000E+00 -0.00000000000E+00 -0.74505805969E-08  0.93827000000E+00  0.93827000000E+00 0. -1.
     999902    2    1    2    0    0 -0.52253116842E-02 -0.37060537199E-02 -0.19854762792E-01  0.10230673462E+01  0.10228546058E+01 0.  0.
     999903    2    3    3    0    0  0.68317284204E-01  0.58177385028E-01  0.90220969763E-01  0.13101648429E+00  0.31203146032E-01 0.  0.
         14    1    1    2    0    0  0.52253116842E-02  0.37060537199E-02  0.19854762792E-01  0.20862653760E-01  0.00000000000E+00 0.  1.
     999901    1    3    3    0    0 -0.73542595888E-01 -0.61883438748E-01 -0.11007573255E+00  0.89205086195E+00  0.88000000000E+00 0. -1.
        -11    1    4    4    0    0  0.38003197200E-01  0.27421546958E-01  0.25914072598E-01  0.53553566777E-01  0.51100000000E-03 0. -1.
         11    1    4    4    0    0  0.30314087004E-01  0.30755838070E-01  0.64306897165E-01  0.77462917517E-01  0.51100000000E-03 0.  1.
</event>
<event>
 8    1  0.1119901E+005  0.1043930E+01  0.7957747E-01            NaN
         13   -1    0    0    0    0  0.00000000000E+00  0.00000000000E+00  0.74505805969E-08  0.10566000000E+00  0.10566000000E+00 0. -1.
     999900   -1    0    0    0    0 -0.00000000000E+00 -0.00000000000E+00 -0.74505805969E-08  0.93827000000E+00  0.93827000000E+00 0. -1.
     999902    2    1    2    0    0 -0.22495745199E-01 -0.71789572489E-02 -0.34685568088E-02  0.10200631429E+01  0.10197838932E+01 0.  0.
     999903    2    3    3    0    0  0.29072166931E-02 -0.66159766257E-01  0.11120395726E+00  0.13030259550E+00  0.15062526469E-01 0.  0.
         14    1    1    2    0    0  0.22495745199E-01  0.71789572489E-02  0.34685568088E-02  0.23866857052E-01  0.00000000000E+00 0. -1.
     999901    1    3    3    0    0 -0.25402961892E-01  0.58980809008E-01 -0.11467251407E+00  0.88976054744E+00  0.88000000000E+00 0. -1.
        -11    1    4    4    0    0  0.45693421296E-02 -0.54494823859E-01  0.79658416468E-01  0.96624474903E-01  0.51100000000E-03 0.  1.
         11    1    4    4    0    0 -0.16621254365E-02 -0.11664942398E-01  0.31545540796E-01  0.33678120601E-01  0.51100000000E-03 0. -1.
</event>
<event>
 7    1  0.1119901E+005  0.1043930E+01  0.7957747E-01            NaN
         13   -1    0    0    0    0  0.00000000000E+00  0.00000000000E+00  0.74505805969E-08  0.10566000000E+00  0.10566000000E+00 0. -1.
     999900   -1    0    0    0    0 -0.00000000000E+00 -0.00000000000E+00 -0.74505805969E-08  0.93827000000E+00  0.93827000000E+00 0.  1.
     999902    2    1    2    0    0  0.14608921116E-01 -0.19197091929E-01 -0.98061304517E-03  0.10197864601E+01  0.10195006198E+01 0.  0.
         14    1    1    2    0    0 -0.14608921116E-01  0.19197091929E-01  0.98061304517E-03  0.24143539853E-01  0.00000000000E+00 0. -1.
     999901    1    3    3    0    0  0.76688689392E-01 -0.20662346863E-01 -0.10734013812E+00  0.89007302673E+00  0.88000000000E+00 0.  1.
        -11    1    3    3    0    0 -0.20063331854E-02 -0.35214874431E-02  0.39419584752E-01  0.39630682933E-01  0.51100000000E-03 0. -1.
         11    1    3    3    0    0 -0.60073435090E-01  0.49867423771E-02  0.66939940326E-01  0.90082750485E-01  0.51100000000E-03 0.  1.
</event>
<event>
 8    1  0.1119901E+005  0.1043930E+01  0.7957747E-01            NaN
         13   -1    0    0    0    0  0.00000000000E+00  0.00000000000E+00  0.74505805969E-08  0.10566000000E+00  0.10566000000E+00 0. -1.
     999900   -1    0    0    0    0 -0.00000000000E+00 -0.00000000000E+00 -0.74505805969E-08  0.93827000000E+00  0.93827000000E+00 0. -1.
     999902    2    1    2    0    0  0.10030026569E-01 -0.63362198055E-02 -0.20558997784E-01  0.10201934985E+01  0.10199173265E+01 0.  0.
     999903    2    3    3    0    0 -0.10880209641E+00  0.12774930514E-01 -0.68627079083E-01  0.13070103086E+00  0.19287002112E-01 0.  0.
         14    1    1    2    0    0 -0.10030026569E-01  0.63362198055E-02  0.20558997784E-01  0.23736501518E-01  0.00000000000E+00 0.  1.
     999901    1    3    3    0    0  0.11883212298E+00 -0.19111150319E-01  0.48068081299E-01  0.88949246762E+00  0.88000000000E+00 0.  1.
        -11    1    4    4    0    0 -0.63439033046E-01  0.15599601875E-01 -0.46196450757E-01  0.80013946759E-01  0.51100000000E-03 0. -1.
         11    1    4    4    0    0 -0.45363063368E-01 -0.28246713617E-02 -0.22430628326E-01  0.50687084100E-01  0.51100000000E-03 0.  1.
</event>
<event>
 8    1  0.1119901E+005  0.1043930E+01  0.7957747E-01            NaN
         13   -1    0    0    0    0  0.00000000000E+00  0.00000000000E+00  0.74505805969E-08  0.10566000000E+00  0.10566000000E+00 0. -1.
     999900   -1    0    0    0    0 -0.00000000000E+00 -0.00000000000E+00 -0.74505805969E-08  0.93827000000E+00  0.93827000000E+00 0.  1.
     999902    2    1    2    0    0 -0.83997600790E-02 -0.11804905978E-01 -0.18852668421E-01  0.10201532281E+01  0.10198761072E+01 0.  0.
     999903    2    3    3    0    0 -0.52940233485E-01  0.38001647962E-01  0.10888771620E+00  0.12842336294E+00  0.19728959450E-01 0.  0.
         14    1    1    2    0    0  0.83997600790E-02  0.11804905978E-01  0.18852668421E-01  0.23776771882E-01  0.00000000000E+00 0. -1.
     999901    1    3    3    0    0  0.44540473406E-01 -0.49806553940E-01 -0.12774038462E+00  0.89172986518E+00  0.88000000000E+00 0.  1.
        -11    1    4    4    0    0 -0.25012423487E-01  0.14369443227E-01  0.30874848785E-01  0.42256592809E-01  0.51100000000E-03 0.  1.
         11    1    4    4    0    0 -0.27927809998E-01  0.23632204735E-01  0.78012867413E-01  0.86166770132E-01  0.51100000000E-03 0. -1.
</event>
<event>
 8    1  0.1119901E+005  0.1043930E+01  0.7957747E-01            NaN
         13   -1    0    0    0    0  0.00000000000E+00  0.00000000000E+00  0.74505805969E-08  0.10566000000E+00  0.10566000000E+00 0.  1.
     999900   -1    0    0    0    0 -0.00000000000E+00 -0.00000000000E+00 -0.74505805969E-08  0.93827000000E+00  0.93827000000E+00 0. -1.
     999902    2    1    2    0    0  0.22331166770E-01 -0.91790150558E-02 -0.18754001600E-02  0.10197132196E+01  0.10194256215E+01 0.  0.
     999903    2    3    3    0    0  0.85557300838E-01 -0.12816638664E-01  0.97392336573E-01  0.13187040701E+00  0.20499245540E-01 0.  0.
         14    1    1    2    0    0 -0.22331166770E-01  0.91790150558E-02  0.18754001600E-02  0.24216780390E-01  0.00000000000E+00 0.  1.
     999901    1    3    3    0    0 -0.63226134068E-01  0.36376236079E-02 -0.99267736733E-01  0.88784281260E+00  0.88000000000E+00 0. -1.
        -11    1    4    4    0    0  0.59105625110E-01 -0.26691053507E-02  0.76262013476E-01  0.96523338439E-01  0.51100000000E-03 0.  1.
         11    1    4    4    0    0  0.26451675728E-01 -0.10147533313E-01  0.21130323097E-01  0.35347068568E-01  0.51100000000E-03 0. -1.
</event>
<event>
 8    1  0.1119901E+005  0.1043930E+01  0.7957747E-01            NaN
         13   -1    0    0    0    0  0.00000000000E+00  0.00000000000E+00  0.74505805969E-08  0.10566000000E+00  0.10566000000E+00 0.  1.
     999900   -1    0    0    0    0 -0.00000000000E+00 -0.00000000000E+00 -0.74505805969E-08  0.93827000000E+00  0.93827000000E+00 0. -1.
     999902    2    1    2    0    0 -0.22913701847E-01 -0.70879440657E-02  0.90860280064E-03  0.10199278700E+01  0.10196454079E+01 0.  0.
     999903    2    3    3    0    0 -0.85483844184E-01 -0.29610448818E-01  0.94770241652E-01  0.13244136695E+00  0.19366225239E-01 0.  0.
         14    1    1    2    0    0  0.22913701847E-01  0.70879440657E-02 -0.90860280064E-03  0.24002129956E-01  0.00000000000E+00 0.  1.
     999901    1    3    3    0    0  0.62570142338E-01  0.22522504752E-01 -0.93861638851E-01  0.88748650310E+00  0.88000000000E+00 0. -1.
        -11    1    4    4    0    0 -0.24036759031E-01 -0.14783046252E-01  0.20332835052E-01  0.34784903960E-01  0.51100000000E-03 0.  1.
         11    1    4    4    0    0 -0.61447085153E-01 -0.14827402565E-01  0.74437406601E-01  0.97656462987E-01  0.51100000000E-03 0. -1.
</event>
<event>
 8    1  0.1119901E+005  0.1043930E+01  0.7957747E-01            NaN
         13   -1    0    0    0    0  0.00000000000E+00  0.00000000000E+00  0.74505805969E-08  0.10566000000E+00  0.10566000000E+00 0. -1.
     999900   -1    0    0    0    0 -0.00000000000E+00 -0.00000000000E+00 -0.74505805969E-08  0.93827000000E+00  0.93827000000E+00 0. -1.
     999902    2    1    2    0    0 -0.22415607009E-03  0.16700181449E-01  0.17548119312E-01  0.10197043360E+01  0.10194165243E+01 0.  0.
     999903    2    3    3    0    0  0.17538206424E-01  0.93798879348E-01  0.90963055729E-01  0.13311002986E+00  0.18389782210E-01 0.  0.
         14    1    1    2    0    0  0.22415607009E-03 -0.16700181449E-01 -0.17548119312E-01  0.24225664031E-01  0.00000000000E+00 0.  1.
     999901    1    3    3    0    0 -0.17762362494E-01 -0.77098697899E-01 -0.73414936416E-01  0.88659430611E+00  0.88000000000E+00 0.  1.
        -11    1    4    4    0    0 -0.21292253431E-02  0.35711537313E-01  0.36020577383E-01  0.50769977485E-01  0.51100000000E-03 0.  1.
         11    1    4    4    0    0  0.19667431767E-01  0.58087342035E-01  0.54942478345E-01  0.82340052373E-01  0.51100000000E-03 0. -1.
</event>
<event>
 8    1  0.1119901E+005  0.1043930E+01  0.7957747E-01            NaN
         13   -1    0    0    0    0  0.00000000000E+00  0.00000000000E+00  0.74505805969E-08  0.10566000000E+00  0.10566000000E+00 0.  1.
     999900   -1    0    0    0    0 -0.00000000000E+00 -0.00000000000E+00 -0.74505805969E-08  0.93827000000E+00  0.93827000000E+00 0.  1.
     999902    2    1    2    0    0 -0.15330348684E-01  0.69725360874E-02  0.15593133912E-01  0.10209782751E+01  0.10207202636E+01 0.  0.
     999903    2    3    3    0    0  0.11290631577E-01  0.27657716507E-01  0.12838507184E+00  0.13313900219E+00  0.18730712480E-01 0.  0.
         14    1    1    2    0    0  0.15330348684E-01 -0.69725360874E-02 -0.15593133912E-01  0.22951724891E-01  0.00000000000E+00 0. -1.
     999901    1    3    3    0    0 -0.26620980261E-01 -0.20685180419E-01 -0.11279193792E+00  0.88783927292E+00  0.88000000000E+00 0.  1.
        -11    1    4    4    0    0  0.33888102976E-02  0.26850366129E-01  0.92338745362E-01  0.96224379512E-01  0.51100000000E-03 0. -1.
         11    1    4    4    0    0  0.79018212790E-02  0.80735037790E-03  0.36046326474E-01  0.36914622677E-01  0.51100000000E-03 0.  1.
</event>
<event>
 8    1  0.1119901E+005  0.1043930E+01  0.7957747E-01            NaN
         13   -1    0    0    0    0  0.00000000000E+00  0.00000000000E+00  0.74505805969E-08  0.10566000000E+00  0.10566000000E+00 0. -1.
     999900   -1    0    0    0    0 -0.00000000000E+00 -0.00000000000E+00 -0.74505805969E-08  0.93827000000E+00  0.93827000000E+00 0. -1.
     999902    2    1    2    0    0 -0.10427999413E-01 -0.16243276581E-01 -0.12456103276E-02  0.10245873334E+01  0.10244047369E+01 0.  0.
     999903    2    3    3    0    0 -0.63517832638E-02 -0.20472434914E-01  0.13161359636E+00  0.13459515922E+00  0.18282570832E-01 0.  0.
         14    1    1    2    0    0  0.10427999413E-01  0.16243276581E-01  0.12456103276E-02  0.19342666593E-01  0.00000000000E+00 0.  1.
     999901    1    3    3    0    0 -0.40762161491E-02  0.42291583330E-02 -0.13285920669E+00  0.88999217419E+00  0.88000000000E+00 0. -1.
        -11    1    4    4    0    0  0.59255042208E-02 -0.11521727909E-01  0.61789305195E-01  0.63135102533E-01  0.51100000000E-03 0. -1.
         11    1    4    4    0    0 -0.12277287485E-01 -0.89507070051E-02  0.69824291163E-01  0.71460056684E-01  0.51100000000E-03 0.  1.
</event>
<event>
 8    1  0.1119901E+005  0.1043930E+01  0.7957747E-01            NaN
         13   -1    0    0    0    0  0.00000000000E+00  0.00000000000E+00  0.74505805969E-08  0.10566000000E+00  0.10566000000E+00 0.  1.
     999900   -1    0    0    0    0 -0.00000000000E+00 -0.00000000000E+00 -0.74505805969E-08  0.93827000000E+00  0.93827000000E+00 0.  1.
     999902    2    1    2    0    0  0.13802601328E-01 -0.15267381229E-01 -0.10661808148E-01  0.10207507229E+01  0.10204875107E+01 0.  0.
     999903    2    3    3    0    0  0.74249536280E-01 -0.10710295806E+00 -0.22854833141E-01  0.13382554289E+00  0.20072251201E-01 0.  0.
         14    1    1    2    0    0 -0.13802601328E-01  0.15267381229E-01  0.10661808148E-01  0.23179277081E-01  0.00000000000E+00 0. -1.
     999901    1    3    3    0    0 -0.60446934952E-01  0.91835576830E-01  0.12193024992E-01  0.88692518003E+00  0.88000000000E+00 0.  1.
        -11    1    4    4    0    0  0.12372239168E-01 -0.12162770907E-01  0.29323931304E-02  0.17602992605E-01  0.51100000000E-03 0.  1.
         11    1    4    4    0    0  0.61877297111E-01 -0.94940187152E-01 -0.25787226271E-01  0.11622255028E+00  0.51100000000E-03 0. -1.
</event>
<event>
 8    1  0.1119901E+005  0.1043930E+01  0.7957747E-01            NaN
         13   -1    0    0    0    0  0.00000000000E+00  0.00000000000E+00  0.74505805969E-08  0.10566000000E+00  0.10566000000E+00 0. -1.
     999900   -1    0    0    0    0 -0.00000000000E+00 -0.00000000000E+00 -0.74505805969E-08  0.93827000000E+00  0.93827000000E+00 0. -1.
     999902    2    1    2    0    0  0.20327884490E-01  0.78546019797E-02 -0.97126470221E-02  0.10200709729E+01  0.10197919085E+01 0.  0.
     999903    2    3    3    0    0  0.54380851971E-01  0.14498011263E-02  0.11700487844E+00  0.13031934618E+00  0.18265032810E-01 0.  0.
         14    1    1    2    0    0 -0.20327884490E-01 -0.78546019797E-02  0.97126470221E-02  0.23859027061E-01  0.00000000000E+00 0.  1.
     999901    1    3    3    0    0 -0.34052967481E-01  0.64048008534E-02 -0.12671752547E+00  0.88975162676E+00  0.88000000000E+00 0. -1.
        -11    1    4    4    0    0  0.46543882838E-01  0.65926491819E-02  0.87120192684E-01  0.98994874348E-01  0.51100000000E-03 0.  1.
         11    1    4    4    0    0  0.78369691331E-02 -0.51428480555E-02  0.29884685760E-01  0.31324471828E-01  0.51100000000E-03 0. -1.
</event>
<event>
 8    1  0.1119901E+005  0.1043930E+01  0.7957747E-01            NaN
         13   -1    0    0    0    0  0.00000000000E+00  0.00000000000E+00  0.74505805969E-08  0.10566000000E+00  0.10566000000E+00 0. -1.
     999900   -1    0    0    0    0 -0.00000000000E+00 -0.00000000000E+00 -0.74505805969E-08  0.93827000000E+00  0.93827000000E+00 0.  1.
     999902    2    1    2    0    0 -0.76097397366E-02 -0.12308253498E-01  0.18331724105E-01  0.10205750572E+01  0.10203077938E+01 0.  0.
     999903    2    3    3    0    0 -0.66996917627E-01  0.42750532873E-01  0.10385843026E+00  0.13272759042E+00  0.22668142618E-01 0.  0.
         14    1    1    2    0    0  0.76097397366E-02  0.12308253498E-01 -0.18331724105E-01  0.23354942768E-01  0.00000000000E+00 0.  1.
     999901    1    3    3    0    0  0.59387177891E-01 -0.55058786371E-01 -0.85526706160E-01  0.88784746681E+00  0.88000000000E+00 0.  1.
        -11    1    4    4    0    0 -0.27038618764E-02  0.68381144891E-02  0.18937992338E-01  0.20321893455E-01  0.51100000000E-03 0.  1.
         11    1    4    4    0    0 -0.64293055751E-01  0.35912418384E-01  0.84920437926E-01  0.11240569697E+00  0.51100000000E-03 0. -1.
</event>
<event>
 8    1  0.1119901E+005  0.1043930E+01  0.7957747E-01            NaN
         13   -1    0    0    0    0  0.00000000000E+00  0.00000000000E+00  0.74505805969E-08  0.10566000000E+00  0.10566000000E+00 0. -1.
     999900   -1    0    0    0    0 -0.00000000000E+00 -0.00000000000E+00 -0.74505805969E-08  0.93827000000E+00  0.93827000000E+00 0.  1.
     999902    2    1    2    0    0  0.14480268560E-02  0.32415723603E-01  0.19286677806E-01  0.10061827900E+01  0.10054744925E+01 0.  0.
     999903    2    3    3    0    0 -0.52071430513E-01 -0.53295462578E-01 -0.84343077648E-01  0.11435889153E+00  0.20306676669E-01 0.  0.
         14    1    1    2    0    0 -0.14480268560E-02 -0.32415723603E-01 -0.19286677806E-01  0.37747209953E-01  0.00000000000E+00 0.  1.
     999901    1    3    3    0    0  0.53519457368E-01  0.85711186181E-01  0.10362975545E+00  0.89182389852E+00  0.88000000000E+00 0. -1.
        -11    1    4    4    0    0 -0.31037408488E-01 -0.37599060169E-01 -0.67131378610E-01  0.82969230239E-01  0.51100000000E-03 0. -1.
         11    1    4    4    0    0 -0.21034022024E-01 -0.15696402408E-01 -0.17211699038E-01  0.31389661289E-01  0.51100000000E-03 0.  1.
</event>
<event>
 8    1  0.1119901E+005  0.1043930E+01  0.7957747E-01            NaN
         13   -1    0    0    0    0  0.00000000000E+00  0.00000000000E+00  0.74505805969E-08  0.10566000000E+00  0.10566000000E+00 0.  1.
     999900   -1    0    0    0    0 -0.00000000000E+00 -0.00000000000E+00 -0.74505805969E-08  0.93827000000E+00  0.93827000000E+00 0.  1.
     999902    2    1    2    0    0  0.10783610885E-01 -0.20557350847E-01  0.45654983232E-02  0.10202712868E+01  0.10199969431E+01 0.  0.
     999903    2    3    3    0    0  0.26620512790E-01 -0.60692881238E-01 -0.11247109792E+00  0.13147477848E+00  0.15607433302E-01 0.  0.
         14    1    1    2    0    0 -0.10783610885E-01  0.20557350847E-01 -0.45654983232E-02  0.23658713247E-01  0.00000000000E+00 0. -1.
     999901    1    3    3    0    0 -0.15836901904E-01  0.40135530390E-01  0.11703659624E+00  0.88879650828E+00  0.88000000000E+00 0. -1.
        -11    1    4    4    0    0  0.25826615360E-01 -0.42809124298E-01 -0.86878418833E-01  0.10023849542E+00  0.51100000000E-03 0.  1.
         11    1    4    4    0    0  0.79389742921E-03 -0.17883756939E-01 -0.25592679087E-01  0.31236283057E-01  0.51100000000E-03 0. -1.
</event>
<event>
 8    1  0.1119901E+005  0.1043930E+01  0.7957747E-01            NaN
         13   -1    0    0    0    0  0.00000000000E+00  0.00000000000E+00  0.74505805969E-08  0.10566000000E+00  0.10566000000E+00 0.  1.
     999900   -1    0    0    0    0 -0.00000000000E+00 -0.00000000000E+00 -0.74505805969E-08  0.93827000000E+00  0.93827000000E+00 0.  1.
     999902    2    1    2    0    0  0.13386493303E-01 -0.19346407414E-02 -0.18937447505E-01  0.10206583873E+01  0.10203930496E+01 0.  0.
     999903    2    3    3    0    0 -0.11388491008E+00  0.47822212714E-01 -0.34631571598E-01  0.12997322405E+00  0.20903503191E-01 0.  0.
         14    1    1    2    0    0 -0.13386493303E-01  0.19346407414E-02  0.18937447505E-01  0.23271612659E-01  0.00000000000E+00 0.  1.
     999901    1    3    3    0    0  0.12727140338E+00 -0.49756853456E-01  0.15694124093E-01  0.89068516330E+00  0.88000000000E+00 0.  1.
        -11    1    4    4    0    0 -0.68397196832E-01  0.29295936918E-01 -0.10169797386E-01  0.75100694766E-01  0.51100000000E-03 0.  1.
         11    1    4    4    0    0 -0.45487713244E-01  0.18526275796E-01 -0.24461774212E-01  0.54872529280E-01  0.51100000000E-03 0. -1.
</event>
<event>
 8    1  0.1119901E+005  0.1043930E+01  0.7957747E-01            NaN
         13   -1    0    0    0    0  0.00000000000E+00  0.00000000000E+00  0.74505805969E-08  0.10566000000E+00  0.10566000000E+00 0.  1.
     999900   -1    0    0    0    0 -0.00000000000E+00 -0.00000000000E+00 -0.74505805969E-08  0.93827000000E+00  0.93827000000E+00 0.  1.
     999902    2    1    2    0    0  0.42544221861E-02  0.14900156982E-02  0.23304550890E-01  0.10201934807E+01  0.10199173083E+01 0.  0.
     999903    2    3    3    0    0 -0.78703331029E-01  0.92779571160E-01 -0.39085517015E-01  0.12940265661E+00  0.20374168909E-01 0.  0.
         14    1    1    2    0    0 -0.42544221861E-02 -0.14900156982E-02 -0.23304550890E-01  0.23736519271E-01  0.00000000000E+00 0. -1.
     999901    1    3    3    0    0  0.82957753215E-01 -0.91289555462E-01  0.62390067905E-01  0.89079082412E+00  0.88000000000E+00 0. -1.
        -11    1    4    4    0    0 -0.33429989369E-01  0.43863354294E-01 -0.75565870587E-02  0.55667954589E-01  0.51100000000E-03 0.  1.
         11    1    4    4    0    0 -0.45273341660E-01  0.48916216866E-01 -0.31528929956E-01  0.73734702025E-01  0.51100000000E-03 0. -1.
</event>
<event>
 8    1  0.1119901E+005  0.1043930E+01  0.7957747E-01            NaN
         13   -1    0    0    0    0  0.00000000000E+00  0.00000000000E+00  0.74505805969E-08  0.10566000000E+00  0.10566000000E+00 0.  1.
     999900   -1    0    0    0    0 -0.00000000000E+00 -0.00000000000E+00 -0.74505805969E-08  0.93827000000E+00  0.93827000000E+00 0. -1.
     999902    2    1    2    0    0 -0.85423395831E-02  0.95350360475E-02 -0.19859977010E-01  0.10203014756E+01  0.10200278398E+01 0.  0.
     999903    2    3    3    0    0  0.89614674240E-01 -0.53110127217E-01  0.71370415892E-01  0.12795501799E+00  0.20670629202E-01 0.  0.
         14    1    1    2    0    0  0.85423395831E-02 -0.95350360475E-02  0.19859977010E-01  0.23628524389E-01  0.00000000000E+00 0.  1.
     999901    1    3    3    0    0 -0.98157013823E-01  0.62645163265E-01 -0.91230392902E-01  0.89234645762E+00  0.88000000000E+00 0.  1.
        -11    1    4    4    0    0  0.39265001666E-01 -0.15026216073E-01  0.37352991158E-01  0.56240862322E-01  0.51100000000E-03 0.  1.
         11    1    4    4    0    0  0.50349672574E-01 -0.38083911144E-01  0.34017424735E-01  0.71714155666E-01  0.51100000000E-03 0. -1.
</event>
<event>
 8    1  0.1119901E+005  0.1043930E+01  0.7957747E-01            NaN
         13   -1    0    0    0    0  0.00000000000E+00  0.00000000000E+00  0.74505805969E-08  0.10566000000E+00  0.10566000000E+00 0. -1.
     999900   -1    0    0    0    0 -0.00000000000E+00 -0.00000000000E+00 -0.74505805969E-08  0.93827000000E+00  0.93827000000E+00 0. -1.
     999902    2    1    2    0    0 -0.18422885417E-01 -0.34636124180E-02  0.41801952472E-02  0.10247239241E+01  0.10245439216E+01 0.  0.
     999903    2    3    3    0    0  0.40879767140E-01  0.11135594941E+00 -0.56721676953E-01  0.13320310305E+00  0.21317016552E-01 0.  0.
         14    1    1    2    0    0  0.18422885417E-01  0.34636124180E-02 -0.41801952472E-02  0.19206075871E-01  0.00000000000E+00 0. -1.
     999901    1    3    3    0    0 -0.59302652557E-01 -0.11481956183E+00  0.60901872200E-01  0.89152082108E+00  0.88000000000E+00 0. -1.
        -11    1    4    4    0    0  0.44211606625E-03  0.26230509753E-01 -0.13782878448E-01  0.29638892824E-01  0.51100000000E-03 0. -1.
         11    1    4    4    0    0  0.40437651074E-01  0.85125439660E-01 -0.42938798505E-01  0.10356421023E+00  0.51100000000E-03 0.  1.
</event>
<event>
 8    1  0.1119901E+005  0.1043930E+01  0.7957747E-01            NaN
         13   -1    0    0    0    0  0.00000000000E+00  0.00000000000E+00  0.74505805969E-08  0.10566000000E+00  0.10566000000E+00 0. -1.
     999900   -1    0    0    0    0 -0.00000000000E+00 -0.00000000000E+00 -0.74505805969E-08  0.93827000000E+00  0.93827000000E+00 0.  1.
     999902    2    1    2    0    0  0.19438009418E-01  0.79657307960E-02  0.12672728206E-01  0.10193966122E+01  0.10191013521E+01 0.  0.
     999903    2    3    3    0    0  0.96559661986E-04  0.11562768712E+00 -0.56108509906E-01  0.12996080943E+00  0.19284080229E-01 0.  0.
         14    1    1    2    0    0 -0.19438009418E-01 -0.79657307960E-02 -0.12672728206E-01  0.24533387810E-01  0.00000000000E+00 0. -1.
     999901    1    3    3    0    0  0.19341449756E-01 -0.10766195633E+00  0.68781238112E-01  0.88943580276E+00  0.88000000000E+00 0. -1.
        -11    1    4    4    0    0 -0.15487835104E-02  0.93656158183E-01 -0.36731319589E-01  0.10061473876E+00  0.51100000000E-03 0. -1.
         11    1    4    4    0    0  0.16453431724E-02  0.21971528939E-01 -0.19377190317E-01  0.29346070668E-01  0.51100000000E-03 0.  1.
</event>
<event>
 8    1  0.1119901E+005  0.1043930E+01  0.7957747E-01            NaN
         13   -1    0    0    0    0  0.00000000000E+00  0.00000000000E+00  0.74505805969E-08  0.10566000000E+00  0.10566000000E+00 0.  1.
     999900   -1    0    0    0    0 -0.00000000000E+00 -0.00000000000E+00 -0.74505805969E-08  0.93827000000E+00  0.93827000000E+00 0.  1.
     999902    2    1    2    0    0 -0.33418100462E-02  0.22259563940E-01 -0.27993918986E-02  0.10212475734E+01  0.10209956482E+01 0.  0.
     999903    2    3    3    0    0  0.96542250577E-01  0.52302738789E-01 -0.71420110138E-01  0.13243475796E+00  0.19548666294E-01 0.  0.
         14    1    1    2    0    0  0.33418100462E-02 -0.22259563940E-01  0.27993918986E-02  0.22682426593E-01  0.00000000000E+00 0.  1.
     999901    1    3    3    0    0 -0.99884060623E-01 -0.30043174849E-01  0.68620718240E-01  0.88881281544E+00  0.88000000000E+00 0. -1.
        -11    1    4    4    0    0  0.62541641571E-01  0.25834268724E-01 -0.35970682997E-01  0.76635615266E-01  0.51100000000E-03 0. -1.
         11    1    4    4    0    0  0.34000609005E-01  0.26468470065E-01 -0.35449427141E-01  0.55799142699E-01  0.51100000000E-03 0.  1.
</event>
<event>
 8    1  0.1119901E+005  0.1043930E+01  0.7957747E-01            NaN
         13   -1    0    0    0    0  0.00000000000E+00  0.00000000000E+00  0.74505805969E-08  0.10566000000E+00  0.10566000000E+00 0. -1.
     999900   -1    0    0    0    0 -0.00000000000E+00 -0.00000000000E+00 -0.74505805969E-08  0.93827000000E+00  0.93827000000E+00 0. -1.
     999902    2    1    2    0    0  0.16591909840E-01 -0.39138596831E-02  0.16285749313E-01  0.10203538383E+01  0.10200814281E+01 0.  0.
     999903    2    3    3    0    0 -0.51413520585E-02 -0.12923333702E+00  0.86581765377E-02  0.13117697966E+00  0.20118326786E-01 0.  0.
         14    1    1    2    0    0 -0.16591909840E-01  0.39138596831E-02 -0.16285749313E-01  0.23576161699E-01  0.00000000000E+00 0.  1.
     999901    1    3    3    0    0  0.21733261898E-01  0.12531947734E+00  0.76275727757E-02  0.88917685864E+00  0.88000000000E+00 0.  1.
        -11    1    4    4    0    0  0.75010466158E-02 -0.35197376219E-01  0.14614875821E-02  0.36021077996E-01  0.51100000000E-03 0.  1.
         11    1    4    4    0    0 -0.12642398674E-01 -0.94035960806E-01  0.71966889556E-02  0.95155901666E-01  0.51100000000E-03 0. -1.
</event>
<event>
 8    1  0.1119901E+005  0.1043930E+01  0.7957747E-01            NaN
         13   -1    0    0    0    0  0.00000000000E+00  0.00000000000E+00  0.74505805969E-08  0.10566000000E+00  0.10566000000E+00 0. -1.
     999900   -1    0    0    0    0 -0.00000000000E+00 -0.00000000000E+00 -0.74505805969E-08  0.93827000000E+00  0.93827000000E+00 0.  1.
     999902    2    1    2    0    0 -0.39380074564E-02  0.28182633809E-02  0.22995248877E-01  0.10204303834E+01  0.10201597597E+01 0.  0.
     999903    2    3    3    0    0  0.82379480436E-01  0.34659634810E-01 -0.90096138164E-01  0.12843585228E+00  0.19768281604E-01 0.  0.
         14    1    1    2    0    0  0.39380074564E-02 -0.28182633809E-02 -0.22995248877E-01  0.23499616638E-01  0.00000000000E+00 0.  1.
     999901    1    3    3    0    0 -0.86317487893E-01 -0.31841371430E-01  0.11309138704E+00  0.89199453108E+00  0.88000000000E+00 0. -1.
        -11    1    4    4    0    0  0.22441354929E-01  0.12175318122E-01 -0.38568520873E-01  0.46256293688E-01  0.51100000000E-03 0.  1.
         11    1    4    4    0    0  0.59938125507E-01  0.22484316688E-01 -0.51527617291E-01  0.82179558595E-01  0.51100000000E-03 0. -1.
</event>
<event>
 8    1  0.1119901E+005  0.1043930E+01  0.7957747E-01            NaN
         13   -1    0    0    0    0  0.00000000000E+00  0.00000000000E+00  0.74505805969E-08  0.10566000000E+00  0.10566000000E+00 0. -1.
     999900   -1    0    0    0    0 -0.00000000000E+00 -0.00000000000E+00 -0.74505805969E-08  0.93827000000E+00  0.93827000000E+00 0.  1.
     999902    2    1    2    0    0  0.67366159843E-03 -0.10645872888E-01  0.24852281791E-01  0.10168851421E+01  0.10165254389E+01 0.  0.
     999903    2    3    3    0    0  0.39942601346E-01  0.27333573014E-01 -0.11288319892E+00  0.12449758581E+00  0.20359191026E-01 0.  0.
         14    1    1    2    0    0 -0.67366159843E-03  0.10645872888E-01 -0.24852281791E-01  0.27044857917E-01  0.00000000000E+00 0.  1.
     999901    1    3    3    0    0 -0.39268939747E-01 -0.37979445901E-01  0.13773548071E+00  0.89238755627E+00  0.88000000000E+00 0. -1.
        -11    1    4    4    0    0  0.89466657973E-02  0.17949813224E-01 -0.45993944946E-01  0.50179106373E-01  0.51100000000E-03 0.  1.
         11    1    4    4    0    0  0.30995935548E-01  0.93837597892E-02 -0.66889253973E-01  0.74318479440E-01  0.51100000000E-03 0. -1.
</event>
<event>
 8    1  0.1119901E+005  0.1043930E+01  0.7957747E-01            NaN
         13   -1    0    0    0    0  0.00000000000E+00  0.00000000000E+00  0.74505805969E-08  0.10566000000E+00  0.10566000000E+00 0.  1.
     999900   -1    0    0    0    0 -0.00000000000E+00 -0.00000000000E+00 -0.74505805969E-08  0.93827000000E+00  0.93827000000E+00 0.  1.
     999902    2    1    2    0    0  0.19553687365E-01  0.27704589211E-02 -0.11087688580E-01  0.10212814025E+01  0.10210302366E+01 0.  0.
     999903    2    3    3    0    0 -0.49646177472E-01 -0.99540294099E-01  0.63714106049E-01  0.12951269929E+00  0.18467238074E-01 0.  0.
         14    1    1    2    0    0 -0.19553687365E-01 -0.27704589211E-02  0.11087688580E-01  0.22648597534E-01  0.00000000000E+00 0.  1.
     999901    1    3    3    0    0  0.69199864836E-01  0.10231075302E+00 -0.74801794629E-01  0.89176870317E+00  0.88000000000E+00 0. -1.
        -11    1    4    4    0    0 -0.30308733894E-01 -0.72447189077E-01  0.36918439374E-01  0.86778147262E-01  0.51100000000E-03 0. -1.
         11    1    4    4    0    0 -0.19337443578E-01 -0.27093105022E-01  0.26795666675E-01  0.42734552033E-01  0.51100000000E-03 0.  1.
</event>
<event>
 8    1  0.1444889E+005  0.1043930E+01  0.7957747E-01            NaN
         13   -1    0    0    0    0  0.00000000000E+00  0.00000000000E+00  0.74505805969E-08  0.10566000000E+00  0.10566000000E+00 0. -1.
     999900   -1    0    0    0    0 -0.00000000000E+00 -0.00000000000E+00 -0.74505805969E-08  0.93827000000E+00  0.93827000000E+00 0. -1.
     999902    2    1    2    0    0  0.23222230564E-01  0.14594369732E-02 -0.43502669648E-02  0.10202587776E+01  0.10199841403E+01 0.  0.
     999903    2    3    3    0    0 -0.77940112879E-01  0.94177751902E-01 -0.36190316879E-01  0.12905493196E+00  0.20033129518E-01 0.  0.
         14    1    1    2    0    0 -0.23222230564E-01 -0.14594369732E-02  0.43502669648E-02  0.23671222430E-01  0.00000000000E+00 0. -1.
     999901    1    3    3    0    0  0.10116234344E+00 -0.92718314929E-01  0.31840049914E-01  0.89120384561E+00  0.88000000000E+00 0. -1.
        -11    1    4    4    0    0 -0.29658167490E-01  0.34511237604E-01 -0.35448144425E-02  0.45644925789E-01  0.51100000000E-03 0.  1.
         11    1    4    4    0    0 -0.48281945389E-01  0.59666514298E-01 -0.32645502436E-01  0.83410006170E-01  0.51100000000E-03 0. -1.
</event>
<event>
 8    1  0.1119901E+005  0.1043930E+01  0.7957747E-01            NaN
         13   -1    0    0    0    0  0.00000000000E+00  0.00000000000E+00  0.74505805969E-08  0.10566000000E+00  0.10566000000E+00 0.  1.
     999900   -1    0    0    0    0 -0.00000000000E+00 -0.00000000000E+00 -0.74505805969E-08  0.93827000000E+00  0.93827000000E+00 0. -1.
     999902    2    1    2    0    0  0.10494223372E-01 -0.20625976217E-01 -0.43571196195E-03  0.10207837376E+01  0.10205212832E+01 0.  0.
     999903    2    3    3    0    0  0.62610787131E-01  0.11112064459E+00  0.27298254907E-02  0.12944579441E+00  0.21928370272E-01 0.  0.
         14    1    1    2    0    0 -0.10494223372E-01  0.20625976217E-01  0.43571196195E-03  0.23146262420E-01  0.00000000000E+00 0. -1.
     999901    1    3    3    0    0 -0.52116563759E-01 -0.13174662081E+00 -0.31655374527E-02  0.89133794317E+00  0.88000000000E+00 0.  1.
        -11    1    4    4    0    0  0.10603245602E-01  0.38971923608E-01 -0.13115138214E-02  0.40413127032E-01  0.51100000000E-03 0. -1.
         11    1    4    4    0    0  0.52007541528E-01  0.72148720985E-01  0.40413393121E-02  0.89032667375E-01  0.51100000000E-03 0.  1.
</event>
<event>
 8    1  0.1119901E+005  0.1043930E+01  0.7957747E-01            NaN
         13   -1    0    0    0    0  0.00000000000E+00  0.00000000000E+00  0.74505805969E-08  0.10566000000E+00  0.10566000000E+00 0.  1.
     999900   -1    0    0    0    0 -0.00000000000E+00 -0.00000000000E+00 -0.74505805969E-08  0.93827000000E+00  0.93827000000E+00 0. -1.
     999902    2    1    2    0    0 -0.94340855193E-02 -0.22820251398E-01 -0.74163991156E-02  0.10181468889E+01  0.10178203763E+01 0.  0.
     999903    2    3    3    0    0  0.10434164424E+00 -0.21983582885E-01  0.67082826922E-01  0.12769994976E+00  0.20897723849E-01 0.  0.
         14    1    1    2    0    0  0.94340855193E-02  0.22820251398E-01  0.74163991156E-02  0.25783111125E-01  0.00000000000E+00 0.  1.
     999901    1    3    3    0    0 -0.11377572976E+00 -0.83666851248E-03 -0.74499226038E-01  0.89044693911E+00  0.88000000000E+00 0. -1.
        -11    1    4    4    0    0  0.46059319501E-01 -0.20015812894E-01  0.28054079922E-01  0.57527264840E-01  0.51100000000E-03 0. -1.
         11    1    4    4    0    0  0.58282324739E-01 -0.19677699914E-02  0.39028747000E-01  0.70172684922E-01  0.51100000000E-03 0.  1.
</event>
<event>
 8    1  0.1119901E+005  0.1043930E+01  0.7957747E-01            NaN
         13   -1    0    0    0    0  0.00000000000E+00  0.00000000000E+00  0.74505805969E-08  0.10566000000E+00  0.10566000000E+00 0.  1.
     999900   -1    0    0    0    0 -0.00000000000E+00 -0.00000000000E+00 -0.74505805969E-08  0.93827000000E+00  0.93827000000E+00 0. -1.
     999902    2    1    2    0    0 -0.17637149524E-01 -0.59985751536E-02 -0.13261559316E-01  0.10210625362E+01  0.10208064370E+01 0.  0.
     999903    2    3    3    0    0  0.67134115938E-01 -0.63422217273E-01 -0.91785138603E-01  0.13165284730E+00  0.19457475888E-01 0.  0.
         14    1    1    2    0    0  0.17637149524E-01  0.59985751536E-02  0.13261559316E-01  0.22867463844E-01  0.00000000000E+00 0.  1.
     999901    1    3    3    0    0 -0.84771265461E-01  0.57423642119E-01  0.78523579287E-01  0.88940968885E+00  0.88000000000E+00 0.  1.
        -11    1    4    4    0    0  0.62751017818E-01 -0.54157481096E-01 -0.73987536981E-01  0.11110868438E+00  0.51100000000E-03 0.  1.
         11    1    4    4    0    0  0.43830981193E-02 -0.92647361767E-02 -0.17797601622E-01  0.20544162919E-01  0.51100000000E-03 0. -1.
</event>
<event>
 8    1  0.1119901E+005  0.1043930E+01  0.7957747E-01            NaN
         13   -1    0    0    0    0  0.00000000000E+00  0.00000000000E+00  0.74505805969E-08  0.10566000000E+00  0.10566000000E+00 0. -1.
     999900   -1    0    0    0    0 -0.00000000000E+00 -0.00000000000E+00 -0.74505805969E-08  0.93827000000E+00  0.93827000000E+00 0. -1.
     999902    2    1    2    0    0 -0.14177033252E-01 -0.14173370013E-01 -0.13058470302E-01  0.10200051941E+01  0.10197245705E+01 0.  0.
     999903    2    3    3    0    0  0.44816678073E-01 -0.11548657368E+00  0.36683192831E-01  0.13083768670E+00  0.20667856468E-01 0.  0.
         14    1    1    2    0    0  0.14177033252E-01  0.14173370013E-01  0.13058470302E-01  0.23924805871E-01  0.00000000000E+00 0. -1.
     999901    1    3    3    0    0 -0.58993711325E-01  0.10131320367E+00 -0.49741663133E-01  0.88916750743E+00  0.88000000000E+00 0.  1.
        -11    1    4    4    0    0  0.30886596782E-01 -0.52441307753E-01  0.21088984640E-01  0.64413344998E-01  0.51100000000E-03 0.  1.
         11    1    4    4    0    0  0.13930081292E-01 -0.63045265927E-01  0.15594208191E-01  0.66424341704E-01  0.51100000000E-03 0. -1.
</event>
<event>
 8    1  0.1119901E+005  0.1043930E+01  0.7957747E-01            NaN
         13   -1    0    0    0    0  0.00000000000E+00  0.00000000000E+00  0.74505805969E-08  0.10566000000E+00  0.10566000000E+00 0.  1.
     999900   -1    0    0    0    0 -0.00000000000E+00 -0.00000000000E+00 -0.74505805969E-08  0.93827000000E+00  0.93827000000E+00 0.  1.
     999902    2    1    2    0    0 -0.18165618319E-01  0.24217104231E-02  0.27863801307E-01  0.10105796508E+01  0.10100292000E+01 0.  0.
     999903    2    3    3    0    0  0.48756899768E-01  0.55453841301E-01 -0.90929341835E-01  0.11850182839E+00  0.17949215441E-01 0.  0.
         14    1    1    2    0    0  0.18165618319E-01 -0.24217104231E-02 -0.27863801307E-01  0.33350349226E-01  0.00000000000E+00 0. -1.
     999901    1    3    3    0    0 -0.66922518087E-01 -0.53032130878E-01  0.11879314314E+00  0.89207782238E+00  0.88000000000E+00 0. -1.
        -11    1    4    4    0    0  0.27542735315E-01  0.18265360336E-01 -0.42942893697E-01  0.54190210342E-01  0.51100000000E-03 0.  1.
         11    1    4    4    0    0  0.21214164453E-01  0.37188480965E-01 -0.47986448138E-01  0.64311618047E-01  0.51100000000E-03 0. -1.
</event>
<event>
 8    1  0.1119901E+005  0.1043930E+01  0.7957747E-01            NaN
         13   -1    0    0    0    0  0.00000000000E+00  0.00000000000E+00  0.74505805969E-08  0.10566000000E+00  0.10566000000E+00 0. -1.
     999900   -1    0    0    0    0 -0.00000000000E+00 -0.00000000000E+00 -0.74505805969E-08  0.93827000000E+00  0.93827000000E+00 0.  1.
     999902    2    1    2    0    0 -0.10935301194E-01  0.19897063001E-01 -0.45261419139E-02  0.10207791925E+01  0.10205166338E+01 0.  0.
     999903    2    3    3    0    0  0.48289226482E-02  0.29406218369E-01  0.12659886114E+00  0.13087318552E+00  0.14576517869E-01 0.  0.
         14    1    1    2    0    0  0.10935301194E-01 -0.19897063001E-01  0.45261419139E-02  0.23150807522E-01  0.00000000000E+00 0. -1.
     999901    1    3    3    0    0 -0.15764223842E-01 -0.95091553677E-02 -0.13112500306E+00  0.88990600696E+00  0.88000000000E+00 0.  1.
        -11    1    4    4    0    0  0.49379131653E-02  0.12099598100E-01  0.81906622856E-01  0.82944193584E-01  0.51100000000E-03 0.  1.
         11    1    4    4    0    0 -0.10899051714E-03  0.17306620269E-01  0.44692238288E-01  0.47928991938E-01  0.51100000000E-03 0. -1.
</event>
<event>
 8    1  0.2011270E+005  0.1043930E+01  0.7957747E-01            NaN
         13   -1    0    0    0    0  0.00000000000E+00  0.00000000000E+00  0.74505805969E-08  0.10566000000E+00  0.10566000000E+00 0.  1.
     999900   -1    0    0    0    0 -0.00000000000E+00 -0.00000000000E+00 -0.74505805969E-08  0.93827000000E+00  0.93827000000E+00 0. -1.
     999902    2    1    2    0    0  0.19456994677E-01  0.14204190082E-02  0.13302722782E-01  0.10203174045E+01  0.10200441418E+01 0.  0.
     999903    2    3    3    0    0 -0.51016162724E-01 -0.11719013452E+00  0.10193893894E-01  0.12956233485E+00  0.18609316215E-01 0.  0.
         14    1    1    2    0    0 -0.19456994677E-01 -0.14204190082E-02 -0.13302722782E-01  0.23612595483E-01  0.00000000000E+00 0. -1.
     999901    1    3    3    0    0  0.70473157401E-01  0.11861055353E+00  0.31088288879E-02  0.89075506967E+00  0.88000000000E+00 0.  1.
        -11    1    4    4    0    0 -0.72642415174E-02 -0.37937482168E-01  0.33576638700E-02  0.38775724180E-01  0.51100000000E-03 0.  1.
         11    1    4    4    0    0 -0.43751921206E-01 -0.79252652356E-01  0.68362300245E-02  0.90786610668E-01  0.51100000000E-03 0. -1.
</event>
<event>
 8    1  0.1119901E+005  0.1043930E+01  0.7957747E-01            NaN
         13   -1    0    0    0    0  0.00000000000E+00  0.00000000000E+00  0.74505805969E-08  0.10566000000E+00  0.10566000000E+00 0. -1.
     999900   -1    0    0    0    0 -0.00000000000E+00 -0.00000000000E+00 -0.74505805969E-08  0.93827000000E+00  0.93827000000E+00 0. -1.
     999902    2    1    2    0    0 -0.26137149569E-02  0.15621047118E-01  0.16501520422E-01  0.10210575538E+01  0.10208013418E+01 0.  0.
     999903    2    3    3    0    0 -0.12530066181E+00 -0.32204212321E-01  0.69333467846E-02  0.13120875074E+00  0.20743621442E-01 0.  0.
         14    1    1    2    0    0  0.26137149569E-02 -0.15621047118E-01 -0.16501520422E-01  0.22872446200E-01  0.00000000000E+00 0.  1.
     999901    1    3    3    0    0  0.12268694685E+00  0.47825259439E-01  0.95681736372E-02  0.88984880306E+00  0.88000000000E+00 0.  1.
        -11    1    4    4    0    0 -0.90722947384E-01 -0.13834567750E-01  0.71407531353E-02  0.92050529184E-01  0.51100000000E-03 0.  1.
         11    1    4    4    0    0 -0.34577714427E-01 -0.18369644571E-01 -0.20740635078E-03  0.39158221551E-01  0.51100000000E-03 0. -1.
</event>
<event>
 8    1  0.1119901E+005  0.1043930E+01  0.7957747E-01            NaN
         13   -1    0    0    0    0  0.00000000000E+00  0.00000000000E+00  0.74505805969E-08  0.10566000000E+00  0.10566000000E+00 0. -1.
     999900   -1    0    0    0    0 -0.00000000000E+00 -0.00000000000E+00 -0.74505805969E-08  0.93827000000E+00  0.93827000000E+00 0. -1.
     999902    2    1    2    0    0  0.16098549470E-01  0.77389923661E-02  0.15101845561E-01  0.10205393814E+01  0.10202712914E+01 0.  0.
     999903    2    3    3    0    0 -0.24528821059E-01 -0.45239224394E-01  0.11975990627E+00  0.13182650071E+00  0.19686052208E-01 0.  0.
         14    1    1    2    0    0 -0.16098549470E-01 -0.77389923661E-02 -0.15101845561E-01  0.23390618573E-01  0.00000000000E+00 0.  1.
     999901    1    3    3    0    0  0.40627370529E-01  0.52978216760E-01 -0.10465806071E+00  0.88871288072E+00  0.88000000000E+00 0. -1.
        -11    1    4    4    0    0  0.22877138538E-02 -0.12768281347E-01  0.28439564188E-01  0.31262318779E-01  0.51100000000E-03 0.  1.
         11    1    4    4    0    0 -0.26816534913E-01 -0.32470943047E-01  0.91320342085E-01  0.10056418193E+00  0.51100000000E-03 0. -1.
</event>
<event>
 8    1  0.1119901E+005  0.1043930E+01  0.7957747E-01            NaN
         13   -1    0    0    0    0  0.00000000000E+00  0.00000000000E+00  0.74505805969E-08  0.10566000000E+00  0.10566000000E+00 0. -1.
     999900   -1    0    0    0    0 -0.00000000000E+00 -0.00000000000E+00 -0.74505805969E-08  0.93827000000E+00  0.93827000000E+00 0. -1.
     999902    2    1    2    0    0  0.16198833534E-01  0.56448058469E-03  0.19259999609E-01  0.10187572284E+01  0.10184461802E+01 0.  0.
     999903    2    3    3    0    0 -0.55488361665E-02  0.77324131429E-01 -0.98918615070E-01  0.12728025722E+00  0.20138534875E-01 0.  0.
         14    1    1    2    0    0 -0.16198833534E-01 -0.56448058469E-03 -0.19259999609E-01  0.25172771622E-01  0.00000000000E+00 0.  1.
     999901    1    3    3    0    0  0.21747669701E-01 -0.76759650845E-01  0.11817861468E+00  0.89147697116E+00  0.88000000000E+00 0.  1.
        -11    1    4    4    0    0  0.12848975191E-02  0.18915137742E-01 -0.38761814211E-01  0.43152899779E-01  0.51100000000E-03 0.  1.
         11    1    4    4    0    0 -0.68337336856E-02  0.58408993687E-01 -0.60156800859E-01  0.84127357442E-01  0.51100000000E-03 0. -1.
</event>
<event>
 8    1  0.1119901E+005  0.1043930E+01  0.7957747E-01            NaN
         13   -1    0    0    0    0  0.00000000000E+00  0.00000000000E+00  0.74505805969E-08  0.10566000000E+00  0.10566000000E+00 0.  1.
     999900   -1    0    0    0    0 -0.00000000000E+00 -0.00000000000E+00 -0.74505805969E-08  0.93827000000E+00  0.93827000000E+00 0.  1.
     999902    2    1    2    0    0 -0.17250097598E-01  0.31281554194E-02  0.15981331398E-01  0.10202075596E+01  0.10199317186E+01 0.  0.
     999903    2    3    3    0    0  0.47429303790E-01  0.71165229864E-01  0.98066912541E-01  0.13141595803E+00  0.18412112571E-01 0.  0.
         14    1    1    2    0    0  0.17250097598E-01 -0.31281554194E-02 -0.15981331398E-01  0.23722440362E-01  0.00000000000E+00 0. -1.
     999901    1    3    3    0    0 -0.64679401388E-01 -0.68037074444E-01 -0.82085581143E-01  0.88879160161E+00  0.88000000000E+00 0.  1.
        -11    1    4    4    0    0  0.21133551435E-01  0.19074658132E-01  0.39951419083E-01  0.49059622775E-01  0.51100000000E-03 0.  1.
         11    1    4    4    0    0  0.26295752355E-01  0.52090571732E-01  0.58115493458E-01  0.82356335252E-01  0.51100000000E-03 0. -1.
</event>
<event>
 8    1  0.1119901E+005  0.1043930E+01  0.7957747E-01            NaN
         13   -1    0    0    0    0  0.00000000000E+00  0.00000000000E+00  0.74505805969E-08  0.10566000000E+00  0.10566000000E+00 0. -1.
     999900   -1    0    0    0    0 -0.00000000000E+00 -0.00000000000E+00 -0.74505805969E-08  0.93827000000E+00  0.93827000000E+00 0. -1.
     999902    2    1    2    0    0 -0.13820937198E-01 -0.10679142540E-01  0.17966183465E-01  0.10188731419E+01  0.10185649872E+01 0.  0.
     999903    2    3    3    0    0  0.10057989867E-01  0.85013824183E-01 -0.91392838870E-01  0.12663620989E+00  0.18856436493E-01 0.  0.
         14    1    1    2    0    0  0.13820937198E-01  0.10679142540E-01 -0.17966183465E-01  0.25056858117E-01  0.00000000000E+00 0. -1.
     999901    1    3    3    0    0 -0.23878927065E-01 -0.95692966724E-01  0.10935902233E+00  0.89223693199E+00  0.88000000000E+00 0.  1.
        -11    1    4    4    0    0  0.47032229035E-02  0.79925260709E-01 -0.81167105192E-01  0.11401108583E+00  0.51100000000E-03 0.  1.
         11    1    4    4    0    0  0.53547669637E-02  0.50885634738E-02 -0.10225733678E-01  0.12625124067E-01  0.51100000000E-03 0. -1.
</event>
<event>
 8    1  0.1119901E+005  0.1043930E+01  0.7957747E-01            NaN
         13   -1    0    0    0    0  0.00000000000E+00  0.00000000000E+00  0.74505805969E-08  0.10566000000E+00  0.10566000000E+00 0.  1.
     999900   -1    0    0    0    0 -0.00000000000E+00 -0.00000000000E+00 -0.74505805969E-08  0.93827000000E+00  0.93827000000E+00 0.  1.
     999902    2    1    2    0    0 -0.17728610757E-01 -0.99138930021E-02  0.10710902667E-01  0.10209667174E+01  0.10207084430E+01 0.  0.
     999903    2    3    3    0    0  0.36597438145E-01  0.53340477387E-01 -0.10969754443E+00  0.12886211077E+00  0.19680277745E-01 0.  0.
         14    1    1    2    0    0  0.17728610757E-01  0.99138930021E-02 -0.10710902667E-01  0.22963282644E-01  0.00000000000E+00 0. -1.
     999901    1    3    3    0    0 -0.54326048902E-01 -0.63254370389E-01  0.12040844709E+00  0.89210460659E+00  0.88000000000E+00 0. -1.
        -11    1    4    4    0    0  0.19055238542E-01  0.13620802977E-01 -0.29589089246E-01  0.37741273336E-01  0.51100000000E-03 0.  1.
         11    1    4    4    0    0  0.17542199603E-01  0.39719674410E-01 -0.80108455180E-01  0.91120837433E-01  0.51100000000E-03 0. -1.
</event>
<event>
 8    1  0.1119901E+005  0.1043930E+01  0.7957747E-01            NaN
         13   -1    0    0    0    0  0.00000000000E+00  0.00000000000E+00  0.74505805969E-08  0.10566000000E+00  0.10566000000E+00 0.  1.
     999900   -1    0    0    0    0 -0.00000000000E+00 -0.00000000000E+00 -0.74505805969E-08  0.93827000000E+00  0.93827000000E+00 0. -1.
     999902    2    1    2    0    0  0.42501344598E-02 -0.23521990351E-01 -0.66244681799E-02  0.10191261444E+01  0.10188242572E+01 0.  0.
     999903    2    3    3    0    0 -0.42247902947E-01 -0.12297424789E+00  0.11866292771E-01  0.13211164214E+00  0.20127745454E-01 0.  0.
         14    1    1    2    0    0 -0.42501344598E-02  0.23521990351E-01  0.66244681799E-02  0.24803855581E-01  0.00000000000E+00 0.  1.
     999901    1    3    3    0    0  0.46498037407E-01  0.99452257541E-01 -0.18490760951E-01  0.88701450228E+00  0.88000000000E+00 0.  1.
        -11    1    4    4    0    0 -0.33302534439E-01 -0.77083515130E-01  0.41426661373E-03  0.83972375474E-01  0.51100000000E-03 0. -1.
         11    1    4    4    0    0 -0.89453685083E-02 -0.45890732761E-01  0.11452026157E-01  0.48139266667E-01  0.51100000000E-03 0.  1.
</event>
<event>
 8    1  0.1119901E+005  0.1043930E+01  0.7957747E-01            NaN
         13   -1    0    0    0    0  0.00000000000E+00  0.00000000000E+00  0.74505805969E-08  0.10566000000E+00  0.10566000000E+00 0.  1.
     999900   -1    0    0    0    0 -0.00000000000E+00 -0.00000000000E+00 -0.74505805969E-08  0.93827000000E+00  0.93827000000E+00 0. -1.
     999902    2    1    2    0    0  0.52885983009E-02 -0.61588165740E-02  0.20994927536E-01  0.10214202849E+01  0.10211722240E+01 0.  0.
     999903    2    3    3    0    0  0.87705930675E-02  0.12697023649E+00  0.25683523782E-01  0.13138800904E+00  0.20119673718E-01 0.  0.
         14    1    1    2    0    0 -0.52885983009E-02  0.61588165740E-02 -0.20994927536E-01  0.22509715143E-01  0.00000000000E+00 0. -1.
     999901    1    3    3    0    0 -0.34819947666E-02 -0.13312905306E+00 -0.46885962463E-02  0.89003227581E+00  0.88000000000E+00 0. -1.
        -11    1    4    4    0    0 -0.47205603257E-02  0.34957149909E-01  0.15636079743E-02  0.35312774040E-01  0.51100000000E-03 0.  1.
         11    1    4    4    0    0  0.13491153393E-01  0.92013086576E-01  0.24119915808E-01  0.96075235002E-01  0.51100000000E-03 0. -1.
</event>
<event>
 8    1  0.1119901E+005  0.1043930E+01  0.7957747E-01            NaN
         13   -1    0    0    0    0  0.00000000000E+00  0.00000000000E+00  0.74505805969E-08  0.10566000000E+00  0.10566000000E+00 0. -1.
     999900   -1    0    0    0    0 -0.00000000000E+00 -0.00000000000E+00 -0.74505805969E-08  0.93827000000E+00  0.93827000000E+00 0.  1.
     999902    2    1    2    0    0 -0.10655151426E-01 -0.18896878239E-01 -0.10222064432E-01  0.10199484475E+01  0.10196664752E+01 0.  0.
     999903    2    3    3    0    0 -0.10118520081E+00 -0.59173030283E-01  0.56991095278E-01  0.13184064599E+00  0.19851413488E-01 0.  0.
         14    1    1    2    0    0  0.10655151426E-01  0.18896878239E-01  0.10222064432E-01  0.23981552501E-01  0.00000000000E+00 0. -1.
     999901    1    3    3    0    0  0.90530049386E-01  0.40276152044E-01 -0.67213159710E-01  0.88810780151E+00  0.88000000000E+00 0.  1.
        -11    1    4    4    0    0 -0.57449458418E-01 -0.41386725825E-01  0.41879539193E-01  0.82264562669E-01  0.51100000000E-03 0.  1.
         11    1    4    4    0    0 -0.43735742395E-01 -0.17786304458E-01  0.15111556085E-01  0.49576083320E-01  0.51100000000E-03 0. -1.
</event>
<event>
 8    1  0.1119901E+005  0.1043930E+01  0.7957747E-01            NaN
         13   -1    0    0    0    0  0.00000000000E+00  0.00000000000E+00  0.74505805969E-08  0.10566000000E+00  0.10566000000E+00 0.  1.
     999900   -1    0    0    0    0 -0.00000000000E+00 -0.00000000000E+00 -0.74505805969E-08  0.93827000000E+00  0.93827000000E+00 0. -1.
     999902    2    1    2    0    0  0.42601157611E-02  0.22689163696E-01 -0.42527650267E-02  0.10204559133E+01  0.10201858842E+01 0.  0.
     999903    2    3    3    0    0 -0.22133669740E-02 -0.11798289719E+00 -0.46525070383E-01  0.12825779490E+00  0.18989911923E-01 0.  0.
         14    1    1    2    0    0 -0.42601157611E-02 -0.22689163696E-01  0.42527650267E-02  0.23474086689E-01  0.00000000000E+00 0.  1.
     999901    1    3    3    0    0  0.64734827351E-02  0.14067206089E+00  0.42272305357E-01  0.89219811841E+00  0.88000000000E+00 0.  1.
        -11    1    4    4    0    0  0.11029916755E-02 -0.23908092705E-01 -0.17103386397E-02  0.23999997222E-01  0.51100000000E-03 0. -1.
         11    1    4    4    0    0 -0.33163586495E-02 -0.94074804490E-01 -0.44814731744E-01  0.10425779768E+00  0.51100000000E-03 0.  1.
</event>
<event>
 8    1  0.1119901E+005  0.1043930E+01  0.7957747E-01            NaN
         13   -1    0    0    0    0  0.00000000000E+00  0.00000000000E+00  0.74505805969E-08  0.10566000000E+00  0.10566000000E+00 0.  1.
     999900   -1    0    0    0    0 -0.00000000000E+00 -0.00000000000E+00 -0.74505805969E-08  0.93827000000E+00  0.93827000000E+00 0. -1.
     999902    2    1    2    0    0 -0.11960202078E-01  0.14821396809E-01 -0.18578583891E-01  0.10173239102E+01  0.10169759359E+01 0.  0.
     999903    2    3    3    0    0 -0.26152397353E-01 -0.42531875686E-03  0.12180175431E+00  0.12595388593E+00  0.18563007410E-01 0.  0.
         14    1    1    2    0    0  0.11960202078E-01 -0.14821396809E-01  0.18578583891E-01  0.26606089839E-01  0.00000000000E+00 0.  1.
     999901    1    3    3    0    0  0.14192195274E-01  0.15246715566E-01 -0.14038033820E+00  0.89137002423E+00  0.88000000000E+00 0. -1.
        -11    1    4    4    0    0 -0.27830220331E-01 -0.38151921988E-02  0.11089493072E+00  0.11439852986E+00  0.51100000000E-03 0. -1.
         11    1    4    4    0    0  0.16778229782E-02  0.33898734420E-02  0.10906823596E-01  0.11555356068E-01  0.51100000000E-03 0.  1.
</event>
<event>
 8    1  0.1119901E+005  0.1043930E+01  0.7957747E-01            NaN
         13   -1    0    0    0    0  0.00000000000E+00  0.00000000000E+00  0.74505805969E-08  0.10566000000E+00  0.10566000000E+00 0. -1.
     999900   -1    0    0    0    0 -0.00000000000E+00 -0.00000000000E+00 -0.74505805969E-08  0.93827000000E+00  0.93827000000E+00 0.  1.
     999902    2    1    2    0    0  0.24060223202E-01 -0.67714716061E-02  0.95380393589E-02  0.10171770308E+01  0.10168251524E+01 0.  0.
     999903    2    3    3    0    0  0.11914743566E+00  0.48371073663E-01  0.48240211627E-02  0.13032614124E+00  0.20633945826E-01 0.  0.
         14    1    1    2    0    0 -0.24060223202E-01  0.67714716061E-02 -0.95380393589E-02  0.26752969238E-01  0.00000000000E+00 0. -1.
     999901    1    3    3    0    0 -0.95087212455E-01 -0.55142545269E-01  0.47140181962E-02  0.88685088952E+00  0.88000000000E+00 0.  1.
        -11    1    4    4    0    0  0.94351050387E-01  0.29855683256E-01 -0.24203238314E-03  0.98963640962E-01  0.51100000000E-03 0. -1.
         11    1    4    4    0    0  0.24796385270E-01  0.18515390407E-01  0.50660535458E-02  0.31362500282E-01  0.51100000000E-03 0.  1.
</event>
<event>
 8    1  0.1119901E+005  0.1043930E+01  0.7957747E-01            NaN
         13   -1    0    0    0    0  0.00000000000E+00  0.00000000000E+00  0.74505805969E-08  0.10566000000E+00  0.10566000000E+00 0.  1.
     999900   -1    0    0    0    0 -0.00000000000E+00 -0.00000000000E+00 -0.74505805969E-08  0.93827000000E+00  0.93827000000E+00 0. -1.
     999902    2    1    2    0    0 -0.82871192430E-02  0.23574461754E-01  0.85951947532E-02  0.10175044638E+01  0.10171612580E+01 0.  0.
     999903    2    3    3    0    0  0.62309744281E-01 -0.95877327176E-01  0.48542956854E-01  0.12573741419E+00  0.19455399454E-01 0.  0.
         14    1    1    2    0    0  0.82871192430E-02 -0.23574461754E-01 -0.85951947532E-02  0.26425536232E-01  0.00000000000E+00 0. -1.
     999901    1    3    3    0    0 -0.70596863524E-01  0.11945178893E+00 -0.39947762101E-01  0.89176704958E+00  0.88000000000E+00 0. -1.
        -11    1    4    4    0    0  0.44187472851E-01 -0.63388154452E-01  0.23048884448E-01  0.80635619158E-01  0.51100000000E-03 0. -1.
         11    1    4    4    0    0  0.18122271430E-01 -0.32489172724E-01  0.25494072407E-01  0.45101795030E-01  0.51100000000E-03 0.  1.
</event>
<event>
 8    1  0.1119901E+005  0.1043930E+01  0.7957747E-01            NaN
         13   -1    0    0    0    0  0.00000000000E+00  0.00000000000E+00  0.74505805969E-08  0.10566000000E+00  0.10566000000E+00 0. -1.
     999900   -1    0    0    0    0 -0.00000000000E+00 -0.00000000000E+00 -0.74505805969E-08  0.93827000000E+00  0.93827000000E+00 0.  1.
     999902    2    1    2    0    0  0.14250625153E-01 -0.29269636252E-02 -0.20242673240E-01  0.10190018382E+01  0.10186968798E+01 0.  0.
     999903    2    3    3    0    0  0.11441801071E-01 -0.56596036877E-01 -0.11698940547E+00  0.13206994160E+00  0.20540746857E-01 0.  0.
         14    1    1    2    0    0 -0.14250625153E-01  0.29269636252E-02  0.20242673240E-01  0.24928161850E-01  0.00000000000E+00 0. -1.
     999901    1    3    3    0    0  0.28088240817E-02  0.53669073251E-01  0.96746732227E-01  0.88693189655E+00  0.88000000000E+00 0. -1.
        -11    1    4    4    0    0 -0.28147203124E-02 -0.73734986304E-02 -0.30764777848E-01  0.31765135126E-01  0.51100000000E-03 0.  1.
         11    1    4    4    0    0  0.14256521384E-01 -0.49222538246E-01 -0.86224627619E-01  0.10030480648E+00  0.51100000000E-03 0. -1.
</event>
<event>
 8    1  0.1119901E+005  0.1043930E+01  0.7957747E-01            NaN
         13   -1    0    0    0    0  0.00000000000E+00  0.00000000000E+00  0.74505805969E-08  0.10566000000E+00  0.10566000000E+00 0. -1.
     999900   -1    0    0    0    0 -0.00000000000E+00 -0.00000000000E+00 -0.74505805969E-08  0.93827000000E+00  0.93827000000E+00 0.  1.
     999902    2    1    2    0    0 -0.72563766267E-02  0.11987720451E-01 -0.19663239547E-01  0.10197845360E+01  0.10194986495E+01 0.  0.
     999903    2    3    3    0    0 -0.14891270113E-02  0.53189721753E-01  0.11532930105E+00  0.12851922638E+00  0.19620903898E-01 0.  0.
         14    1    1    2    0    0  0.72563766267E-02 -0.11987720451E-01  0.19663239547E-01  0.24145464022E-01  0.00000000000E+00 0. -1.
     999901    1    3    3    0    0 -0.57672496155E-02 -0.41202001301E-01 -0.13499254059E+00  0.89126530960E+00  0.88000000000E+00 0.  1.
        -11    1    4    4    0    0 -0.78634932866E-02  0.46434339771E-01  0.90860946204E-01  0.10234234267E+00  0.51100000000E-03 0. -1.
         11    1    4    4    0    0  0.63743662753E-02  0.67553819819E-02  0.24468354842E-01  0.26176883711E-01  0.51100000000E-03 0.  1.
</event>
<event>
 8    1  0.1119901E+005  0.1043930E+01  0.7957747E-01            NaN
         13   -1    0    0    0    0  0.00000000000E+00  0.00000000000E+00  0.74505805969E-08  0.10566000000E+00  0.10566000000E+00 0.  1.
     999900   -1    0    0    0    0 -0.00000000000E+00 -0.00000000000E+00 -0.74505805969E-08  0.93827000000E+00  0.93827000000E+00 0.  1.
     999902    2    1    2    0    0 -0.20896532708E-01 -0.11274120460E-01  0.40683765845E-02  0.10198401150E+01  0.10195555589E+01 0.  0.
     999903    2    3    3    0    0  0.65006828775E-01 -0.86219278256E-02 -0.10858785962E+00  0.12850524572E+00  0.20543843195E-01 0.  0.
         14    1    1    2    0    0  0.20896532708E-01  0.11274120460E-01 -0.40683765845E-02  0.24089885002E-01  0.00000000000E+00 0. -1.
     999901    1    3    3    0    0 -0.85903361483E-01 -0.26521926345E-02  0.11265623620E+00  0.89133486928E+00  0.88000000000E+00 0. -1.
        -11    1    4    4    0    0  0.52451528200E-01 -0.64652456413E-02 -0.69000074934E-01  0.86915094624E-01  0.51100000000E-03 0. -1.
         11    1    4    4    0    0  0.12555300575E-01 -0.21566821843E-02 -0.39587784687E-01  0.41590151093E-01  0.51100000000E-03 0.  1.
</event>
<event>
 8    1  0.1119901E+005  0.1043930E+01  0.7957747E-01            NaN
         13   -1    0    0    0    0  0.00000000000E+00  0.00000000000E+00  0.74505805969E-08  0.10566000000E+00  0.10566000000E+00 0.  1.
     999900   -1    0    0    0    0 -0.00000000000E+00 -0.00000000000E+00 -0.74505805969E-08  0.93827000000E+00  0.93827000000E+00 0. -1.
     999902    2    1    2    0    0 -0.14033760715E-01 -0.59116237377E-02 -0.17634715603E-01  0.10206302805E+01  0.10203642940E+01 0.  0.
     999903    2    3    3    0    0  0.12620287612E+00  0.83748709027E-02 -0.19050639343E-01  0.12941065375E+00  0.19669418899E-01 0.  0.
         14    1    1    2    0    0  0.14033760715E-01  0.59116237377E-02  0.17634715603E-01  0.23299719513E-01  0.00000000000E+00 0. -1.
     999901    1    3    3    0    0 -0.14023663684E+00 -0.14286494640E-01  0.14159237403E-02  0.89121962674E+00  0.88000000000E+00 0.  1.
        -11    1    4    4    0    0  0.27481127135E-01  0.95081753324E-02 -0.72849585819E-02  0.29982486376E-01  0.51100000000E-03 0.  1.
         11    1    4    4    0    0  0.98721748990E-01 -0.11333044298E-02 -0.11765680761E-01  0.99428167374E-01  0.51100000000E-03 0. -1.
</event>
<event>
 8    1  0.1119901E+005  0.1043930E+01  0.7957747E-01            NaN
         13   -1    0    0    0    0  0.00000000000E+00  0.00000000000E+00  0.74505805969E-08  0.10566000000E+00  0.10566000000E+00 0.  1.
     999900   -1    0    0    0    0 -0.00000000000E+00 -0.00000000000E+00 -0.74505805969E-08  0.93827000000E+00  0.93827000000E+00 0.  1.
     999902    2    1    2    0    0  0.96780487489E-02 -0.19363666529E-01 -0.59706147737E-02  0.10214741667E+01  0.10212273051E+01 0.  0.
     999903    2    3    3    0    0 -0.29221590610E-01  0.11121687151E+00  0.54917545768E-01  0.12890942004E+00  0.19457848735E-01 0.  0.
         14    1    1    2    0    0 -0.96780487489E-02  0.19363666529E-01  0.59706147737E-02  0.22455833313E-01  0.00000000000E+00 0.  1.
     999901    1    3    3    0    0  0.38899639359E-01 -0.13058053803E+00 -0.60888160542E-01  0.89256474664E+00  0.88000000000E+00 0. -1.
        -11    1    4    4    0    0 -0.21711413978E-01  0.60154677324E-01  0.21727079746E-01  0.67544783782E-01  0.51100000000E-03 0. -1.
         11    1    4    4    0    0 -0.75101766322E-02  0.51062194182E-01  0.33190466022E-01  0.61364636262E-01  0.51100000000E-03 0.  1.
</event>
<event>
 8    1  0.1119901E+005  0.1043930E+01  0.7957747E-01            NaN
         13   -1    0    0    0    0  0.00000000000E+00  0.00000000000E+00  0.74505805969E-08  0.10566000000E+00  0.10566000000E+00 0.  1.
     999900   -1    0    0    0    0 -0.00000000000E+00 -0.00000000000E+00 -0.74505805969E-08  0.93827000000E+00  0.93827000000E+00 0.  1.
     999902    2    1    2    0    0  0.10924906574E-01 -0.18426385038E-01  0.88526798721E-02  0.10207512341E+01  0.10204880336E+01 0.  0.
     999903    2    3    3    0    0 -0.20529956020E-01 -0.62046348126E-01  0.11390132928E+00  0.13287324228E+00  0.20262213419E-01 0.  0.
         14    1    1    2    0    0 -0.10924906574E-01  0.18426385038E-01 -0.88526798721E-02  0.23178765932E-01  0.00000000000E+00 0. -1.
     999901    1    3    3    0    0  0.31454862594E-01  0.43619963088E-01 -0.10504864941E+00  0.88787799179E+00  0.88000000000E+00 0.  1.
        -11    1    4    4    0    0 -0.22406396730E-01 -0.41803841080E-01  0.70866958233E-01  0.85275990957E-01  0.51100000000E-03 0. -1.
         11    1    4    4    0    0  0.18764407106E-02 -0.20242507047E-01  0.43034371044E-01  0.47597251322E-01  0.51100000000E-03 0.  1.
</event>
<event>
 8    1  0.1119901E+005  0.1043930E+01  0.7957747E-01            NaN
         13   -1    0    0    0    0  0.00000000000E+00  0.00000000000E+00  0.74505805969E-08  0.10566000000E+00  0.10566000000E+00 0.  1.
     999900   -1    0    0    0    0 -0.00000000000E+00 -0.00000000000E+00 -0.74505805969E-08  0.93827000000E+00  0.93827000000E+00 0. -1.
     999902    2    1    2    0    0 -0.72898873609E-02  0.13810168848E-01 -0.18534961388E-01  0.10196934983E+01  0.10194054259E+01 0.  0.
     999903    2    3    3    0    0 -0.20682870136E-01  0.19886306409E-01  0.12344512509E+00  0.12819215988E+00  0.19268747943E-01 0.  0.
         14    1    1    2    0    0  0.72898873609E-02 -0.13810168848E-01  0.18534961388E-01  0.24236501707E-01  0.00000000000E+00 0. -1.
     999901    1    3    3    0    0  0.13392982775E-01 -0.60761375618E-02 -0.14198008648E+00  0.89150133841E+00  0.88000000000E+00 0. -1.
        -11    1    4    4    0    0 -0.28504225015E-02  0.13994757487E-01  0.35619382363E-01  0.38379417225E-01  0.51100000000E-03 0. -1.
         11    1    4    4    0    0 -0.17832447635E-01  0.58915489226E-02  0.87825742724E-01  0.89812742656E-01  0.51100000000E-03 0.  1.
</event>
<event>
 8    1  0.1119901E+005  0.1043930E+01  0.7957747E-01            NaN
         13   -1    0    0    0    0  0.00000000000E+00  0.00000000000E+00  0.74505805969E-08  0.10566000000E+00  0.10566000000E+00 0.  1.
     999900   -1    0    0    0    0 -0.00000000000E+00 -0.00000000000E+00 -0.74505805969E-08  0.93827000000E+00  0.93827000000E+00 0.  1.
     999902    2    1    2    0    0 -0.19962034466E-01  0.10354306701E-01 -0.71306818891E-02  0.10203388764E+01  0.10200661163E+01 0.  0.
     999903    2    3    3    0    0  0.92456471511E-01  0.51645132069E-01 -0.72387109689E-01  0.12983269783E+00  0.20030401555E-01 0.  0.
         14    1    1    2    0    0  0.19962034466E-01 -0.10354306701E-01  0.71306818891E-02  0.23591123574E-01  0.00000000000E+00 0. -1.
     999901    1    3    3    0    0 -0.11241850598E+00 -0.41290825368E-01  0.65256427800E-01  0.89050617859E+00  0.88000000000E+00 0.  1.
        -11    1    4    4    0    0  0.25325615006E-01  0.15220917569E-01 -0.99499884688E-02  0.31182150321E-01  0.51100000000E-03 0.  1.
         11    1    4    4    0    0  0.67130856505E-01  0.36424214500E-01 -0.62437121220E-01  0.98650547511E-01  0.51100000000E-03 0. -1.
</event>
<event>
 8    1  0.1119901E+005  0.1043930E+01  0.7957747E-01            NaN
         13   -1    0    0    0    0  0.00000000000E+00  0.00000000000E+00  0.74505805969E-08  0.10566000000E+00  0.10566000000E+00 0. -1.
     999900   -1    0    0    0    0 -0.00000000000E+00 -0.00000000000E+00 -0.74505805969E-08  0.93827000000E+00  0.93827000000E+00 0.  1.
     999902    2    1    2    0    0  0.23560840773E-01  0.49502144296E-03  0.62933802512E-02  0.10195380977E+01  0.10192462743E+01 0.  0.
     999903    2    3    3    0    0 -0.24650384153E-01  0.11857058768E+00  0.42436578931E-01  0.12960973406E+00  0.18198742519E-01 0.  0.
         14    1    1    2    0    0 -0.23560840773E-01 -0.49502144296E-03 -0.62933802512E-02  0.24391902328E-01  0.00000000000E+00 0. -1.
     999901    1    3    3    0    0  0.48211224926E-01 -0.11807556624E+00 -0.36143198679E-01  0.88992836361E+00  0.88000000000E+00 0.  1.
        -11    1    4    4    0    0 -0.60263637548E-03  0.32317867195E-01  0.57153042278E-02  0.32828852158E-01  0.51100000000E-03 0.  1.
         11    1    4    4    0    0 -0.24047747777E-01  0.86252720488E-01  0.36721274703E-01  0.96780881901E-01  0.51100000000E-03 0. -1.
</event>
<event>
 8    1  0.1119901E+005  0.1043930E+01  0.7957747E-01            NaN
         13   -1    0    0    0    0  0.00000000000E+00  0.00000000000E+00  0.74505805969E-08  0.10566000000E+00  0.10566000000E+00 0. -1.
     999900   -1    0    0    0    0 -0.00000000000E+00 -0.00000000000E+00 -0.74505805969E-08  0.93827000000E+00  0.93827000000E+00 0.  1.
     999902    2    1    2    0    0  0.18564434368E-02 -0.22819090758E-04 -0.21907468995E-01  0.10219440022E+01  0.10217074726E+01 0.  0.
     999903    2    3    3    0    0  0.77238041290E-01 -0.48477693715E-01 -0.96406546355E-01  0.13426141661E+00  0.20398627412E-01 0.  0.
         14    1    1    2    0    0 -0.18564434368E-02  0.22819090758E-04  0.21907468995E-01  0.21985997833E-01  0.00000000000E+00 0. -1.
     999901    1    3    3    0    0 -0.75381597853E-01  0.48454874625E-01  0.74499077360E-01  0.88768258555E+00  0.88000000000E+00 0. -1.
        -11    1    4    4    0    0  0.22235271178E-01 -0.52733220607E-02 -0.30870401976E-01  0.38411691567E-01  0.51100000000E-03 0. -1.
         11    1    4    4    0    0  0.55002770111E-01 -0.43204371655E-01 -0.65536144380E-01  0.95849725045E-01  0.51100000000E-03 0.  1.
</event>
<event>
 8    1  0.1119901E+005  0.1043930E+01  0.7957747E-01            NaN
         13   -1    0    0    0    0  0.00000000000E+00  0.00000000000E+00  0.74505805969E-08  0.10566000000E+00  0.10566000000E+00 0. -1.
     999900   -1    0    0    0    0 -0.00000000000E+00 -0.00000000000E+00 -0.74505805969E-08  0.93827000000E+00  0.93827000000E+00 0. -1.
     999902    2    1    2    0    0  0.10717765894E-01  0.18625502156E-01  0.11838946354E-01  0.10193955245E+01  0.10191002379E+01 0.  0.
     999903    2    3    3    0    0 -0.54821406742E-01  0.73949312389E-01  0.92243527627E-01  0.13157741037E+00  0.18162023286E-01 0.  0.
         14    1    1    2    0    0 -0.10717765894E-01 -0.18625502156E-01 -0.11838946354E-01  0.24534475480E-01  0.00000000000E+00 0.  1.
     999901    1    3    3    0    0  0.65539172636E-01 -0.55323810233E-01 -0.80404581273E-01  0.88781811415E+00  0.88000000000E+00 0. -1.
        -11    1    4    4    0    0 -0.16940474575E-01  0.31448139216E-01  0.45910731842E-01  0.58172343586E-01  0.51100000000E-03 0. -1.
         11    1    4    4    0    0 -0.37880932167E-01  0.42501173173E-01  0.46332795784E-01  0.73405066781E-01  0.51100000000E-03 0.  1.
</event>
<event>
 8    1  0.1119901E+005  0.1043930E+01  0.7957747E-01            NaN
         13   -1    0    0    0    0  0.00000000000E+00  0.00000000000E+00  0.74505805969E-08  0.10566000000E+00  0.10566000000E+00 0.  1.
     999900   -1    0    0    0    0 -0.00000000000E+00 -0.00000000000E+00 -0.74505805969E-08  0.93827000000E+00  0.93827000000E+00 0.  1.
     999902    2    1    2    0    0 -0.92278813664E-02  0.10209777631E-01 -0.19731106614E-01  0.10198736095E+01  0.10195898536E+01 0.  0.
     999903    2    3    3    0    0 -0.30537531608E-01  0.10033978281E+00  0.74124423570E-01  0.13004981823E+00  0.20442901026E-01 0.  0.
         14    1    1    2    0    0  0.92278813664E-02 -0.10209777631E-01  0.19731106614E-01  0.24056390460E-01  0.00000000000E+00 0.  1.
     999901    1    3    3    0    0  0.21309650242E-01 -0.90130005178E-01 -0.93855530184E-01  0.88982379131E+00  0.88000000000E+00 0.  1.
        -11    1    4    4    0    0 -0.25375676801E-01  0.52416963653E-01  0.46238048574E-01  0.74361826959E-01  0.51100000000E-03 0.  1.
         11    1    4    4    0    0 -0.51618548068E-02  0.47922819156E-01  0.27886374997E-01  0.55687991276E-01  0.51100000000E-03 0. -1.
</event>
<event>
 8    1  0.1119901E+005  0.1043930E+01  0.7957747E-01            NaN
         13   -1    0    0    0    0  0.00000000000E+00  0.00000000000E+00  0.74505805969E-08  0.10566000000E+00  0.10566000000E+00 0. -1.
     999900   -1    0    0    0    0 -0.00000000000E+00 -0.00000000000E+00 -0.74505805969E-08  0.93827000000E+00  0.93827000000E+00 0. -1.
     999902    2    1    2    0    0  0.31257084872E-02  0.23065497385E-01 -0.37886369507E-02  0.10203473582E+01  0.10200747965E+01 0.  0.
     999903    2    3    3    0    0  0.19656178787E-01 -0.38585233623E-02 -0.12793809007E+00  0.13107167203E+00  0.20257708477E-01 0.  0.
         14    1    1    2    0    0 -0.31257084872E-02 -0.23065497385E-01  0.37886369507E-02  0.23582641775E-01  0.00000000000E+00 0. -1.
     999901    1    3    3    0    0 -0.16530470300E-01  0.26924020747E-01  0.12414945312E+00  0.88927568619E+00  0.88000000000E+00 0.  1.
        -11    1    4    4    0    0  0.18208438022E-01 -0.10872152803E-01 -0.90698451592E-01  0.93146235372E-01  0.51100000000E-03 0.  1.
         11    1    4    4    0    0  0.14477407646E-02  0.70136294406E-02 -0.37239638475E-01  0.37925436662E-01  0.51100000000E-03 0. -1.
</event>
<event>
 8    1  0.1119901E+005  0.1043930E+01  0.7957747E-01            NaN
         13   -1    0    0    0    0  0.00000000000E+00  0.00000000000E+00  0.74505805969E-08  0.10566000000E+00  0.10566000000E+00 0.  1.
     999900   -1    0    0    0    0 -0.00000000000E+00 -0.00000000000E+00 -0.74505805969E-08  0.93827000000E+00  0.93827000000E+00 0.  1.
     999902    2    1    2    0    0 -0.20542997744E-01 -0.63043640281E-02 -0.85782758635E-02  0.10207924422E+01  0.10205301875E+01 0.  0.
     999903    2    3    3    0    0 -0.11011003614E+00 -0.72431143293E-01 -0.71791252657E-02  0.13377667974E+00  0.21775436274E-01 0.  0.
         14    1    1    2    0    0  0.20542997744E-01  0.63043640281E-02  0.85782758635E-02  0.23137557756E-01  0.00000000000E+00 0. -1.
     999901    1    3    3    0    0  0.89567038401E-01  0.66126779265E-01 -0.13991505977E-02  0.88701576250E+00  0.88000000000E+00 0. -1.
        -11    1    4    4    0    0 -0.29584864857E-01 -0.19299886049E-01  0.77111165412E-02  0.36158986012E-01  0.51100000000E-03 0.  1.
         11    1    4    4    0    0 -0.80525171288E-01 -0.53131257244E-01 -0.14890241807E-01  0.97617693731E-01  0.51100000000E-03 0. -1.
</event>
<event>
 8    1  0.1119901E+005  0.1043930E+01  0.7957747E-01            NaN
         13   -1    0    0    0    0  0.00000000000E+00  0.00000000000E+00  0.74505805969E-08  0.10566000000E+00  0.10566000000E+00 0. -1.
     999900   -1    0    0    0    0 -0.00000000000E+00 -0.00000000000E+00 -0.74505805969E-08  0.93827000000E+00  0.93827000000E+00 0.  1.
     999902    2    1    2    0    0  0.15770338654E-01  0.16933404021E-01 -0.41044105647E-02  0.10204291502E+01  0.10201584979E+01 0.  0.
     999903    2    3    3    0    0 -0.95655185911E-01 -0.48606176289E-01 -0.67993259337E-01  0.12869327617E+00  0.20649480676E-01 0.  0.
         14    1    1    2    0    0 -0.15770338654E-01 -0.16933404021E-01  0.41044105647E-02  0.23500849752E-01  0.00000000000E+00 0.  1.
     999901    1    3    3    0    0  0.11142552456E+00  0.65539580309E-01  0.63888848772E-01  0.89173587407E+00  0.88000000000E+00 0. -1.
        -11    1    4    4    0    0 -0.63884717942E-01 -0.42531665861E-01 -0.44552179208E-01  0.88743211462E-01  0.51100000000E-03 0. -1.
         11    1    4    4    0    0 -0.31770467969E-01 -0.60745104277E-02 -0.23441080129E-01  0.39950064713E-01  0.51100000000E-03 0.  1.
</event>
<event>
 8    1  0.1119901E+005  0.1043930E+01  0.7957747E-01            NaN
         13   -1    0    0    0    0  0.00000000000E+00  0.00000000000E+00  0.74505805969E-08  0.10566000000E+00  0.10566000000E+00 0. -1.
     999900   -1    0    0    0    0 -0.00000000000E+00 -0.00000000000E+00 -0.74505805969E-08  0.93827000000E+00  0.93827000000E+00 0. -1.
     999902    2    1    2    0    0 -0.46554876010E-04  0.20265596046E-01  0.11279309723E-01  0.10207369110E+01  0.10204733814E+01 0.  0.
     999903    2    3    3    0    0  0.41859369588E-01  0.22110667251E-01  0.12234735963E+00  0.13276415098E+00  0.20404777591E-01 0.  0.
         14    1    1    2    0    0  0.46554876010E-04 -0.20265596046E-01 -0.11279309723E-01  0.23193089020E-01  0.00000000000E+00 0. -1.
     999901    1    3    3    0    0 -0.41905924464E-01 -0.18450712057E-02 -0.11106804991E+00  0.88797276000E+00  0.88000000000E+00 0. -1.
        -11    1    4    4    0    0  0.35804815992E-01  0.12615658798E-01  0.74612899904E-01  0.83716698742E-01  0.51100000000E-03 0. -1.
         11    1    4    4    0    0  0.60545535956E-02  0.94950084535E-02  0.47734459726E-01  0.49047452238E-01  0.51100000000E-03 0.  1.
</event>
<event>
 8    1  0.1119901E+005  0.1043930E+01  0.7957747E-01            NaN
         13   -1    0    0    0    0  0.00000000000E+00  0.00000000000E+00  0.74505805969E-08  0.10566000000E+00  0.10566000000E+00 0. -1.
     999900   -1    0    0    0    0 -0.00000000000E+00 -0.00000000000E+00 -0.74505805969E-08  0.93827000000E+00  0.93827000000E+00 0. -1.
     999902    2    1    2    0    0  0.10730404849E-01  0.46930391172E-02  0.20465858514E-01  0.10203499752E+01  0.10200774747E+01 0.  0.
     999903    2    3    3    0    0 -0.55732645389E-01  0.10101524236E+00 -0.55044386149E-01  0.12939705786E+00  0.20087488254E-01 0.  0.
         14    1    1    2    0    0 -0.10730404849E-01 -0.46930391172E-02 -0.20465858514E-01  0.23580024790E-01  0.00000000000E+00 0. -1.
     999901    1    3    3    0    0  0.66463050237E-01 -0.96322203247E-01  0.75510244663E-01  0.89095291735E+00  0.88000000000E+00 0.  1.
        -11    1    4    4    0    0 -0.15509017647E-01  0.46567726060E-01 -0.27913164900E-01  0.56466703769E-01  0.51100000000E-03 0.  1.
         11    1    4    4    0    0 -0.40223627742E-01  0.54447516304E-01 -0.27131221249E-01  0.72930354091E-01  0.51100000000E-03 0. -1.
</event>
<event>
 8    1  0.1119901E+005  0.1043930E+01  0.7957747E-01            NaN
         13   -1    0    0    0    0  0.00000000000E+00  0.00000000000E+00  0.74505805969E-08  0.10566000000E+00  0.10566000000E+00 0.  1.
     999900   -1    0    0    0    0 -0.00000000000E+00 -0.00000000000E+00 -0.74505805969E-08  0.93827000000E+00  0.93827000000E+00 0.  1.
     999902    2    1    2    0    0 -0.19814517507E-01 -0.98632555590E-02 -0.83613451696E-02  0.10202696744E+01  0.10199952929E+01 0.  0.
     999903    2    3    3    0    0 -0.13327349946E-01  0.11282836565E+00  0.58223153055E-01  0.12924284391E+00  0.20147426585E-01 0.  0.
         14    1    1    2    0    0  0.19814517507E-01  0.98632555590E-02  0.83613451696E-02  0.23660325596E-01  0.00000000000E+00 0.  1.
     999901    1    3    3    0    0 -0.64871675604E-02 -0.12269162121E+00 -0.66584498225E-01  0.89102683050E+00  0.88000000000E+00 0. -1.
        -11    1    4    4    0    0  0.19498839653E-03  0.78092819006E-01  0.38526233061E-01  0.87080756517E-01  0.51100000000E-03 0. -1.
         11    1    4    4    0    0 -0.13522338343E-01  0.34735546645E-01  0.19696919995E-01  0.42162087393E-01  0.51100000000E-03 0.  1.
</event>
<event>
 8    1  0.1119901E+005  0.1043930E+01  0.7957747E-01            NaN
         13   -1    0    0    0    0  0.00000000000E+00  0.00000000000E+00  0.74505805969E-08  0.10566000000E+00  0.10566000000E+00 0.  1.
     999900   -1    0    0    0    0 -0.00000000000E+00 -0.00000000000E+00 -0.74505805969E-08  0.93827000000E+00  0.93827000000E+00 0.  1.
     999902    2    1    2    0    0 -0.18237917609E-01 -0.15200474189E-01  0.30159472785E-02  0.10199973446E+01  0.10197165347E+01 0.  0.
     999903    2    3    3    0    0  0.82453721062E-01  0.93586784188E-01 -0.17056988238E-01  0.12737402184E+00  0.19393253974E-01 0.  0.
         14    1    1    2    0    0  0.18237917609E-01  0.15200474189E-01 -0.30159472785E-02  0.23932655353E-01  0.00000000000E+00 0. -1.
     999901    1    3    3    0    0 -0.10069163867E+00 -0.10878725838E+00  0.20072935516E-01  0.89262332281E+00  0.88000000000E+00 0.  1.
        -11    1    4    4    0    0  0.44957475466E-02  0.12967681610E-01  0.10471554048E-02  0.13774257432E-01  0.51100000000E-03 0.  1.
         11    1    4    4    0    0  0.77957973515E-01  0.80619102578E-01 -0.18104143643E-01  0.11359976441E+00  0.51100000000E-03 0. -1.
</event>
<event>
 8    1  0.1119901E+005  0.1043930E+01  0.7957747E-01            NaN
         13   -1    0    0    0    0  0.00000000000E+00  0.00000000000E+00  0.74505805969E-08  0.10566000000E+00  0.10566000000E+00 0.  1.
     999900   -1    0    0    0    0 -0.00000000000E+00 -0.00000000000E+00 -0.74505805969E-08  0.93827000000E+00  0.93827000000E+00 0.  1.
     999902    2    1    2    0    0 -0.22622219687E-01 -0.31318184455E-02 -0.63890099011E-02  0.10202151827E+01  0.10199395210E+01 0.  0.
     999903    2    3    3    0    0  0.81296249638E-01  0.45820782383E-01 -0.86956107030E-01  0.12909989135E+00  0.19919666021E-01 0.  0.
         14    1    1    2    0    0  0.22622219687E-01  0.31318184455E-02  0.63890099011E-02  0.23714817264E-01  0.00000000000E+00 0. -1.
     999901    1    3    3    0    0 -0.10391846933E+00 -0.48952600829E-01  0.80567097129E-01  0.89111529138E+00  0.88000000000E+00 0. -1.
        -11    1    4    4    0    0  0.41665829782E-01  0.28717952895E-01 -0.58722835776E-01  0.77520286070E-01  0.51100000000E-03 0. -1.
         11    1    4    4    0    0  0.39630419857E-01  0.17102829489E-01 -0.28233271254E-01  0.51579605284E-01  0.51100000000E-03 0.  1.
</event>
<event>
 8    1  0.1326602E+005  0.1043930E+01  0.7957747E-01            NaN
         13   -1    0    0    0    0  0.00000000000E+00  0.00000000000E+00  0.74505805969E-08  0.10566000000E+00  0.10566000000E+00 0. -1.
     999900   -1    0    0    0    0 -0.00000000000E+00 -0.00000000000E+00 -0.74505805969E-08  0.93827000000E+00  0.93827000000E+00 0. -1.
     999902    2    1    2    0    0  0.80875913473E-02 -0.17750937489E-01  0.13756783105E-01  0.10200604798E+01  0.10197811669E+01 0.  0.
     999903    2    3    3    0    0  0.18705623060E-01 -0.12923576445E+00 -0.72605481950E-02  0.13271424662E+00  0.22551553100E-01 0.  0.
         14    1    1    2    0    0 -0.80875913473E-02  0.17750937489E-01 -0.13756783105E-01  0.23869520249E-01  0.00000000000E+00 0. -1.
     999901    1    3    3    0    0 -0.10618031713E-01  0.11148482696E+00  0.21017331300E-01  0.88734623313E+00  0.88000000000E+00 0. -1.
        -11    1    4    4    0    0 -0.32806353535E-03 -0.74226713277E-01 -0.62868334665E-02  0.74494952752E-01  0.51100000000E-03 0.  1.
         11    1    4    4    0    0  0.19033686595E-01 -0.55009051177E-01 -0.97371472845E-03  0.58219293865E-01  0.51100000000E-03 0. -1.
</event>
<event>
 7    1  0.1119901E+005  0.1043930E+01  0.7957747E-01            NaN
         13   -1    0    0    0    0  0.00000000000E+00  0.00000000000E+00  0.74505805969E-08  0.10566000000E+00  0.10566000000E+00 0.  1.
     999900   -1    0    0    0    0 -0.00000000000E+00 -0.00000000000E+00 -0.74505805969E-08  0.93827000000E+00  0.93827000000E+00 0.  1.
     999903    2    1    2    0    0  0.39667563495E-01  0.80342114858E-01 -0.30486703545E-01  0.97258208198E-01  0.22390823016E-01 0.  0.
         14    1    1    2    0    0 -0.45126713772E-01  0.37024796868E-01  0.17891972195E-02  0.58399119049E-01  0.00000000000E+00 0.  1.
     999901    1    1    2    0    0  0.54591502767E-02 -0.11736691173E+00  0.28697506325E-01  0.88827267275E+00  0.88000000000E+00 0. -1.
        -11    1    3    3    0    0  0.18736946935E-01  0.56988330580E-01 -0.13131882507E-01  0.61412136112E-01  0.51100000000E-03 0.  1.
         11    1    3    3    0    0  0.20930616560E-01  0.23353784278E-01 -0.17354821038E-01  0.35846072086E-01  0.51100000000E-03 0. -1.
</event>
<event>
 8    1  0.1119901E+005  0.1043930E+01  0.7957747E-01            NaN
         13   -1    0    0    0    0  0.00000000000E+00  0.00000000000E+00  0.74505805969E-08  0.10566000000E+00  0.10566000000E+00 0.  1.
     999900   -1    0    0    0    0 -0.00000000000E+00 -0.00000000000E+00 -0.74505805969E-08  0.93827000000E+00  0.93827000000E+00 0. -1.
     999902    2    1    2    0    0 -0.19300371025E-01  0.11270530619E-01  0.74212599076E-02  0.10203799622E+01  0.10201081624E+01 0.  0.
     999903    2    3    3    0    0 -0.90418705819E-02 -0.60347378916E-01  0.11420471048E+00  0.13097731597E+00  0.19717500769E-01 0.  0.
         14    1    1    2    0    0  0.19300371025E-01 -0.11270530619E-01 -0.74212599076E-02  0.23550037808E-01  0.00000000000E+00 0.  1.
     999901    1    3    3    0    0 -0.10258500443E-01  0.71617909535E-01 -0.10678345057E+00  0.88940264623E+00  0.88000000000E+00 0. -1.
        -11    1    4    4    0    0  0.28602618440E-02 -0.26217644190E-01  0.62987816822E-01  0.68288155295E-01  0.51100000000E-03 0.  1.
         11    1    4    4    0    0 -0.11902132426E-01 -0.34129734726E-01  0.51216893657E-01  0.62689160671E-01  0.51100000000E-03 0. -1.
</event>
<event>
 8    1  0.1119901E+005  0.1043930E+01  0.7957747E-01            NaN
         13   -1    0    0    0    0  0.00000000000E+00  0.00000000000E+00  0.74505805969E-08  0.10566000000E+00  0.10566000000E+00 0. -1.
     999900   -1    0    0    0    0 -0.00000000000E+00 -0.00000000000E+00 -0.74505805969E-08  0.93827000000E+00  0.93827000000E+00 0. -1.
     999902    2    1    2    0    0  0.36079817902E-02 -0.14481894241E-01 -0.18110237066E-01  0.10204625016E+01  0.10201926258E+01 0.  0.
     999903    2    3    3    0    0 -0.40994709721E-01 -0.79733336867E-01  0.90429734962E-01  0.13027820813E+00  0.27511875902E-01 0.  0.
         14    1    1    2    0    0 -0.36079817902E-02  0.14481894241E-01  0.18110237066E-01  0.23467498375E-01  0.00000000000E+00 0.  1.
     999901    1    3    3    0    0  0.44602691512E-01  0.65251442626E-01 -0.10853997203E+00  0.89018429349E+00  0.88000000000E+00 0. -1.
        -11    1    4    4    0    0 -0.26689976053E-01 -0.69008026255E-01  0.61253339079E-01  0.96055687903E-01  0.51100000000E-03 0. -1.
         11    1    4    4    0    0 -0.14304733669E-01 -0.10725310612E-01  0.29176395882E-01  0.34222520228E-01  0.51100000000E-03 0.  1.
</event>
<event>
 8    1  0.1119901E+005  0.1043930E+01  0.7957747E-01            NaN
         13   -1    0    0    0    0  0.00000000000E+00  0.00000000000E+00  0.74505805969E-08  0.10566000000E+00  0.10566000000E+00 0. -1.
     999900   -1    0    0    0    0 -0.00000000000E+00 -0.00000000000E+00 -0.74505805969E-08  0.93827000000E+00  0.93827000000E+00 0.  1.
     999902    2    1    2    0    0 -0.19802763170E-01 -0.90262831347E-02 -0.47635900465E-02  0.10216518716E+01  0.10214089444E+01 0.  0.
     999903    2    3    3    0    0 -0.10850631666E+00  0.44541570791E-01 -0.58957764791E-01  0.13391607531E+00  0.26456094081E-01 0.  0.
         14    1    1    2    0    0  0.19802763170E-01  0.90262831347E-02  0.47635900465E-02  0.22278128434E-01  0.00000000000E+00 0.  1.
     999901    1    3    3    0    0  0.88703553489E-01 -0.53567853926E-01  0.54194174744E-01  0.88773579625E+00  0.88000000000E+00 0. -1.
        -11    1    4    4    0    0 -0.95964424436E-01  0.43960841348E-01 -0.59807639231E-01  0.12132164341E+00  0.51100000000E-03 0. -1.
         11    1    4    4    0    0 -0.12541892223E-01  0.58072944301E-03  0.84987444056E-03  0.12594431896E-01  0.51100000000E-03 0.  1.
</event>
<event>
 8    1  0.1119901E+005  0.1043930E+01  0.7957747E-01            NaN
         13   -1    0    0    0    0  0.00000000000E+00  0.00000000000E+00  0.74505805969E-08  0.10566000000E+00  0.10566000000E+00 0.  1.
     999900   -1    0    0    0    0 -0.00000000000E+00 -0.00000000000E+00 -0.74505805969E-08  0.93827000000E+00  0.93827000000E+00 0.  1.
     999902    2    1    2    0    0 -0.20972584945E-01 -0.43115164100E-02 -0.78348262343E-02  0.10211303729E+01  0.10208758081E+01 0.  0.
     999903    2    3    3    0    0 -0.10729583382E+00  0.41713801742E-02  0.75343690138E-01  0.13296241109E+00  0.21737864476E-01 0.  0.
         14    1    1    2    0    0  0.20972584945E-01  0.43115164100E-02  0.78348262343E-02  0.22799627084E-01  0.00000000000E+00 0. -1.
     999901    1    3    3    0    0  0.86323248872E-01 -0.84828965842E-02 -0.83178516372E-01  0.88816796183E+00  0.88000000000E+00 0.  1.
        -11    1    4    4    0    0 -0.27929719543E-01 -0.81890299315E-02  0.22838532107E-01  0.36999852902E-01  0.51100000000E-03 0. -1.
         11    1    4    4    0    0 -0.79366114274E-01  0.12360410106E-01  0.52505158031E-01  0.95962558187E-01  0.51100000000E-03 0.  1.
</event>
<event>
 8    1  0.1119901E+005  0.1043930E+01  0.7957747E-01            NaN
         13   -1    0    0    0    0  0.00000000000E+00  0.00000000000E+00  0.74505805969E-08  0.10566000000E+00  0.10566000000E+00 0. -1.
     999900   -1    0    0    0    0 -0.00000000000E+00 -0.00000000000E+00 -0.74505805969E-08  0.93827000000E+00  0.93827000000E+00 0.  1.
     999902    2    1    2    0    0  0.16845217086E-01  0.15122984043E-01  0.28445436472E-02  0.10211142727E+01  0.10208593441E+01 0.  0.
     999903    2    3    3    0    0  0.53267738842E-01 -0.57245350827E-01  0.10405790219E+00  0.13161558243E+00  0.19496982821E-01 0.  0.
         14    1    1    2    0    0 -0.16845217086E-01 -0.15122984043E-01 -0.28445436472E-02  0.22815727331E-01  0.00000000000E+00 0. -1.
     999901    1    3    3    0    0 -0.36422521756E-01  0.72368334870E-01 -0.10121335854E+00  0.88949869024E+00  0.88000000000E+00 0.  1.
        -11    1    4    4    0    0  0.38526616700E-01 -0.45977985980E-01  0.65476164572E-01  0.88801264840E-01  0.51100000000E-03 0.  1.
         11    1    4    4    0    0  0.14741122142E-01 -0.11267364847E-01  0.38581737616E-01  0.42814317594E-01  0.51100000000E-03 0. -1.
</event>
<event>
 8    1  0.1119901E+005  0.1043930E+01  0.7957747E-01            NaN
         13   -1    0    0    0    0  0.00000000000E+00  0.00000000000E+00  0.74505805969E-08  0.10566000000E+00  0.10566000000E+00 0. -1.
     999900   -1    0    0    0    0 -0.00000000000E+00 -0.00000000000E+00 -0.74505805969E-08  0.93827000000E+00  0.93827000000E+00 0. -1.
     999902    2    1    2    0    0  0.20262772922E-01  0.91048589589E-02 -0.77744097463E-02  0.10203944977E+01  0.10201230372E+01 0.  0.
     999903    2    3    3    0    0 -0.31916484529E-02  0.11404696507E+00  0.61745885919E-01  0.13112736850E+00  0.19103284533E-01 0.  0.
         14    1    1    2    0    0 -0.20262772922E-01 -0.91048589589E-02  0.77744097463E-02  0.23535502333E-01  0.00000000000E+00 0. -1.
     999901    1    3    3    0    0  0.23454421375E-01 -0.10494210611E+00 -0.69520295665E-01  0.88926712917E+00  0.88000000000E+00 0. -1.
        -11    1    4    4    0    0  0.17770243515E-02  0.70101197123E-01  0.28059347208E-01  0.75530945582E-01  0.51100000000E-03 0. -1.
         11    1    4    4    0    0 -0.49686728043E-02  0.43945767943E-01  0.33686538711E-01  0.55596422914E-01  0.51100000000E-03 0.  1.
</event>
<event>
 8    1  0.1119901E+005  0.1043930E+01  0.7957747E-01            NaN
         13   -1    0    0    0    0  0.00000000000E+00  0.00000000000E+00  0.74505805969E-08  0.10566000000E+00  0.10566000000E+00 0. -1.
     999900   -1    0    0    0    0 -0.00000000000E+00 -0.00000000000E+00 -0.74505805969E-08  0.93827000000E+00  0.93827000000E+00 0.  1.
     999902    2    1    2    0    0 -0.36635795339E-01  0.39992322288E-02  0.22964247720E-02  0.10070050907E+01  0.10063278809E+01 0.  0.
     999903    2    3    3    0    0 -0.53717472591E-04  0.49551630596E-03  0.11704994609E+00  0.11879402622E+00  0.20275166197E-01 0.  0.
         14    1    1    2    0    0  0.36635795339E-01 -0.39992322288E-02 -0.22964247720E-02  0.36924909279E-01  0.00000000000E+00 0.  1.
     999901    1    3    3    0    0 -0.36582077867E-01  0.35037159228E-02 -0.11475352132E+00  0.88821106450E+00  0.88000000000E+00 0.  1.
        -11    1    4    4    0    0 -0.63223345705E-02  0.50582310131E-02  0.22368738579E-01  0.23794520420E-01  0.51100000000E-03 0. -1.
         11    1    4    4    0    0  0.62686170979E-02 -0.45627147071E-02  0.94681207510E-01  0.94999505801E-01  0.51100000000E-03 0.  1.
</event>
<event>
 8    1  0.1119901E+005  0.1043930E+01  0.7957747E-01            NaN
         13   -1    0    0    0    0  0.00000000000E+00  0.00000000000E+00  0.74505805969E-08  0.10566000000E+00  0.10566000000E+00 0.  1.
     999900   -1    0    0    0    0 -0.00000000000E+00 -0.00000000000E+00 -0.74505805969E-08  0.93827000000E+00  0.93827000000E+00 0.  1.
     999902    2    1    2    0    0 -0.17170387137E-01  0.72758832677E-02 -0.14035345277E-01  0.10205900859E+01  0.10203231703E+01 0.  0.
     999903    2    3    3    0    0  0.63334883880E-01  0.54056711064E-01  0.96060064179E-01  0.12885551573E+00  0.21042159494E-01 0.  0.
         14    1    1    2    0    0  0.17170387137E-01 -0.72758832677E-02  0.14035345277E-01  0.23339914070E-01  0.00000000000E+00 0. -1.
     999901    1    3    3    0    0 -0.80505271018E-01 -0.46780827797E-01 -0.11009540946E+00  0.89173457020E+00  0.88000000000E+00 0.  1.
        -11    1    4    4    0    0  0.36952799246E-01  0.19316621429E-01  0.54301501293E-01  0.68465724265E-01  0.51100000000E-03 0.  1.
         11    1    4    4    0    0  0.26382084635E-01  0.34740089636E-01  0.41758562886E-01  0.60389791462E-01  0.51100000000E-03 0. -1.
</event>
<event>
 8    1  0.1119901E+005  0.1043930E+01  0.7957747E-01            NaN
         13   -1    0    0    0    0  0.00000000000E+00  0.00000000000E+00  0.74505805969E-08  0.10566000000E+00  0.10566000000E+00 0.  1.
     999900   -1    0    0    0    0 -0.00000000000E+00 -0.00000000000E+00 -0.74505805969E-08  0.93827000000E+00  0.93827000000E+00 0. -1.
     999902    2    1    2    0    0  0.17772630996E-01 -0.19205366621E-02  0.15992075132E-01  0.10199445598E+01  0.10196624950E+01 0.  0.
     999903    2    3    3    0    0 -0.52839607738E-01 -0.95844086747E-01 -0.63141733242E-01  0.12861416028E+00  0.24012718234E-01 0.  0.
         14    1    1    2    0    0 -0.17772630996E-01  0.19205366621E-02 -0.15992075132E-01  0.23985440180E-01  0.00000000000E+00 0. -1.
     999901    1    3    3    0    0  0.70612238734E-01  0.93923550085E-01  0.79133808374E-01  0.89133039954E+00  0.88000000000E+00 0. -1.
        -11    1    4    4    0    0 -0.43569916253E-01 -0.70423598233E-01 -0.36045817351E-01  0.90318231049E-01  0.51100000000E-03 0.  1.
         11    1    4    4    0    0 -0.92696914848E-02 -0.25420488514E-01 -0.27095915891E-01  0.38295929229E-01  0.51100000000E-03 0. -1.
</event>
<event>
 8    1  0.1119901E+005  0.1043930E+01  0.7957747E-01            NaN
         13   -1    0    0    0    0  0.00000000000E+00  0.00000000000E+00  0.74505805969E-08  0.10566000000E+00  0.10566000000E+00 0.  1.
     999900   -1    0    0    0    0 -0.00000000000E+00 -0.00000000000E+00 -0.74505805969E-08  0.93827000000E+00  0.93827000000E+00 0. -1.
     999902    2    1    2    0    0 -0.57285306555E-02  0.23952735106E-01  0.89325121018E-03  0.10192855791E+01  0.10189876075E+01 0.  0.
     999903    2    3    3    0    0  0.60618644510E-01 -0.98483322481E-01  0.48662570611E-01  0.12705553944E+00  0.20036952205E-01 0.  0.
         14    1    1    2    0    0  0.57285306555E-02 -0.23952735106E-01 -0.89325121018E-03  0.24644420874E-01  0.00000000000E+00 0. -1.
     999901    1    3    3    0    0 -0.66347175165E-01  0.12243605759E+00 -0.47769319401E-01  0.89223003969E+00  0.88000000000E+00 0. -1.
        -11    1    4    4    0    0  0.95463331006E-02 -0.18090970927E-01  0.17255147384E-01  0.26765966020E-01  0.51100000000E-03 0.  1.
         11    1    4    4    0    0  0.51072311409E-01 -0.80392351554E-01  0.31407423227E-01  0.10028957342E+00  0.51100000000E-03 0. -1.
</event>
<event>
 8    1  0.1119901E+005  0.1043930E+01  0.7957747E-01            NaN
         13   -1    0    0    0    0  0.00000000000E+00  0.00000000000E+00  0.74505805969E-08  0.10566000000E+00  0.10566000000E+00 0.  1.
     999900   -1    0    0    0    0 -0.00000000000E+00 -0.00000000000E+00 -0.74505805969E-08  0.93827000000E+00  0.93827000000E+00 0. -1.
     999902    2    1    2    0    0 -0.49356891480E-02 -0.16991533025E-01 -0.15866527182E-01  0.10201640599E+01  0.10198871944E+01 0.  0.
     999903    2    3    3    0    0 -0.33651049561E-01  0.10536459154E+00 -0.65067677430E-01  0.12987402500E+00  0.19984229696E-01 0.  0.
         14    1    1    2    0    0  0.49356891480E-02  0.16991533025E-01  0.15866527182E-01  0.23765940056E-01  0.00000000000E+00 0.  1.
     999901    1    3    3    0    0  0.28715360413E-01 -0.12235612456E+00  0.49201150248E-01  0.89029003495E+00  0.88000000000E+00 0.  1.
        -11    1    4    4    0    0 -0.22242308675E-01  0.54252355793E-01 -0.44486614826E-01  0.73602706635E-01  0.51100000000E-03 0.  1.
         11    1    4    4    0    0 -0.11408740886E-01  0.51112235742E-01 -0.20581062604E-01  0.56271318361E-01  0.51100000000E-03 0. -1.
</event>
<event>
 8    1  0.1119901E+005  0.1043930E+01  0.7957747E-01            NaN
         13   -1    0    0    0    0  0.00000000000E+00  0.00000000000E+00  0.74505805969E-08  0.10566000000E+00  0.10566000000E+00 0.  1.
     999900   -1    0    0    0    0 -0.00000000000E+00 -0.00000000000E+00 -0.74505805969E-08  0.93827000000E+00  0.93827000000E+00 0. -1.
     999902    2    1    2    0    0 -0.28586081970E-02  0.15827579385E-01  0.15207401413E-01  0.10217952091E+01  0.10215554319E+01 0.  0.
     999903    2    3    3    0    0 -0.60681143877E-01  0.57423146094E-03 -0.11351489228E+00  0.13042236953E+00  0.21019817803E-01 0.  0.
         14    1    1    2    0    0  0.28586081970E-02 -0.15827579385E-01 -0.15207401413E-01  0.22134790890E-01  0.00000000000E+00 0. -1.
     999901    1    3    3    0    0  0.57822535680E-01  0.15253347924E-01  0.12872229369E+00  0.89137283958E+00  0.88000000000E+00 0.  1.
        -11    1    4    4    0    0 -0.21627082155E-01  0.10214604273E-01 -0.39455033159E-01  0.46141408578E-01  0.51100000000E-03 0. -1.
         11    1    4    4    0    0 -0.39054061721E-01 -0.96403728122E-02 -0.74059859117E-01  0.84280960948E-01  0.51100000000E-03 0.  1.
</event>
<event>
 8    1  0.1119901E+005  0.1043930E+01  0.7957747E-01            NaN
         13   -1    0    0    0    0  0.00000000000E+00  0.00000000000E+00  0.74505805969E-08  0.10566000000E+00  0.10566000000E+00 0.  1.
     999900   -1    0    0    0    0 -0.00000000000E+00 -0.00000000000E+00 -0.74505805969E-08  0.93827000000E+00  0.93827000000E+00 0.  1.
     999902    2    1    2    0    0  0.70756380993E-02 -0.24166710631E-01  0.59837944398E-02  0.10180475667E+01  0.10177185012E+01 0.  0.
     999903    2    3    3    0    0  0.93330530271E-01 -0.83232870455E-01  0.34912011115E-01  0.13138779014E+00  0.20139619498E-01 0.  0.
         14    1    1    2    0    0 -0.70756380993E-02  0.24166710631E-01 -0.59837944398E-02  0.25882433292E-01  0.00000000000E+00 0.  1.
     999901    1    3    3    0    0 -0.86254892172E-01  0.59066159824E-01 -0.28928216675E-01  0.88665977657E+00  0.88000000000E+00 0. -1.
        -11    1    4    4    0    0  0.59801714263E-01 -0.40690404283E-01  0.16676539541E-01  0.74231543979E-01  0.51100000000E-03 0.  1.
         11    1    4    4    0    0  0.33528816008E-01 -0.42542466172E-01  0.18235471574E-01  0.57156246163E-01  0.51100000000E-03 0. -1.
</event>
<event>
 8    1  0.1119901E+005  0.1043930E+01  0.7957747E-01            NaN
         13   -1    0    0    0    0  0.00000000000E+00  0.00000000000E+00  0.74505805969E-08  0.10566000000E+00  0.10566000000E+00 0.  1.
     999900   -1    0    0    0    0 -0.00000000000E+00 -0.00000000000E+00 -0.74505805969E-08  0.93827000000E+00  0.93827000000E+00 0. -1.
     999902    2    1    2    0    0  0.36073392412E-02 -0.19212624765E-01  0.13948455794E-01  0.10199154780E+01  0.10196327207E+01 0.  0.
     999903    2    3    3    0    0  0.69339810912E-01 -0.85470425767E-01  0.71868713532E-01  0.13308651465E+00  0.20825593340E-01 0.  0.
         14    1    1    2    0    0 -0.36073392412E-02  0.19212624765E-01 -0.13948455794E-01  0.24014521977E-01  0.00000000000E+00 0. -1.
     999901    1    3    3    0    0 -0.65732471671E-01  0.66257801002E-01 -0.57920257738E-01  0.88682896338E+00  0.88000000000E+00 0. -1.
        -11    1    4    4    0    0  0.53832739372E-01 -0.51741207958E-01  0.51862747602E-01  0.90912717147E-01  0.51100000000E-03 0.  1.
         11    1    4    4    0    0  0.15507071541E-01 -0.33729217809E-01  0.20005965931E-01  0.42173797500E-01  0.51100000000E-03 0. -1.
</event>
<event>
 8    1  0.1119901E+005  0.1043930E+01  0.7957747E-01            NaN
         13   -1    0    0    0    0  0.00000000000E+00  0.00000000000E+00  0.74505805969E-08  0.10566000000E+00  0.10566000000E+00 0.  1.
     999900   -1    0    0    0    0 -0.00000000000E+00 -0.00000000000E+00 -0.74505805969E-08  0.93827000000E+00  0.93827000000E+00 0. -1.
     999902    2    1    2    0    0  0.19966487346E-01 -0.10476862363E-01  0.61483705770E-02  0.10205584848E+01  0.10202908375E+01 0.  0.
     999903    2    3    3    0    0 -0.74976218464E-01  0.20474405934E-02  0.10413459607E+00  0.12995628632E+00  0.20469413933E-01 0.  0.
         14    1    1    2    0    0 -0.19966487346E-01  0.10476862363E-01 -0.61483705770E-02  0.23371515198E-01  0.00000000000E+00 0. -1.
     999901    1    3    3    0    0  0.94942705810E-01 -0.12524302956E-01 -0.97986225497E-01  0.89060219848E+00  0.88000000000E+00 0. -1.
        -11    1    4    4    0    0 -0.48249973006E-01 -0.84688752123E-02  0.63845410320E-01  0.80475333379E-01  0.51100000000E-03 0. -1.
         11    1    4    4    0    0 -0.26726245458E-01  0.10516315806E-01  0.40289185754E-01  0.49480952943E-01  0.51100000000E-03 0.  1.
</event>
<event>
 8    1  0.1119901E+005  0.1043930E+01  0.7957747E-01            NaN
         13   -1    0    0    0    0  0.00000000000E+00  0.00000000000E+00  0.74505805969E-08  0.10566000000E+00  0.10566000000E+00 0. -1.
     999900   -1    0    0    0    0 -0.00000000000E+00 -0.00000000000E+00 -0.74505805969E-08  0.93827000000E+00  0.93827000000E+00 0.  1.
     999902    2    1    2    0    0 -0.18703399911E-01 -0.46080261592E-03 -0.15283063712E-01  0.10197721536E+01  0.10194859703E+01 0.  0.
     999903    2    3    3    0    0 -0.75134060929E-01  0.38526920330E-01 -0.10105625980E+00  0.13294550580E+00  0.18239768787E-01 0.  0.
         14    1    1    2    0    0  0.18703399911E-01  0.46080261592E-03  0.15283063712E-01  0.24157846421E-01  0.00000000000E+00 0. -1.
     999901    1    3    3    0    0  0.56430661018E-01 -0.38987722946E-01  0.85773196090E-01  0.88682664778E+00  0.88000000000E+00 0.  1.
        -11    1    4    4    0    0 -0.60547161777E-01  0.37737048319E-01 -0.78611237194E-01  0.10616040387E+00  0.51100000000E-03 0.  1.
         11    1    4    4    0    0 -0.14586899152E-01  0.78987201102E-03 -0.22445022609E-01  0.26785101933E-01  0.51100000000E-03 0. -1.
</event>
<event>
 8    1  0.1119901E+005  0.1043930E+01  0.7957747E-01            NaN
         13   -1    0    0    0    0  0.00000000000E+00  0.00000000000E+00  0.74505805969E-08  0.10566000000E+00  0.10566000000E+00 0. -1.
     999900   -1    0    0    0    0 -0.00000000000E+00 -0.00000000000E+00 -0.74505805969E-08  0.93827000000E+00  0.93827000000E+00 0. -1.
     999902    2    1    2    0    0 -0.11369744235E-01 -0.18605075460E-01  0.89781263414E-02  0.10203497822E+01  0.10200772772E+01 0.  0.
     999903    2    3    3    0    0  0.63962848151E-01  0.79201796487E-01  0.77015844902E-01  0.12913133830E+00  0.19475411559E-01 0.  0.
         14    1    1    2    0    0  0.11369744235E-01  0.18605075460E-01 -0.89781263414E-02  0.23580217756E-01  0.00000000000E+00 0.  1.
     999901    1    3    3    0    0 -0.75332592385E-01 -0.97806871947E-01 -0.68037718560E-01  0.89121844394E+00  0.88000000000E+00 0. -1.
        -11    1    4    4    0    0  0.51387761600E-01  0.54655469779E-01  0.64083967905E-01  0.98665791855E-01  0.51100000000E-03 0. -1.
         11    1    4    4    0    0  0.12575086551E-01  0.24546326708E-01  0.12931876996E-01  0.30465546447E-01  0.51100000000E-03 0.  1.
</event>
<event>
 8    1  0.1119901E+005  0.1043930E+01  0.7957747E-01            NaN
         13   -1    0    0    0    0  0.00000000000E+00  0.00000000000E+00  0.74505805969E-08  0.10566000000E+00  0.10566000000E+00 0.  1.
     999900   -1    0    0    0    0 -0.00000000000E+00 -0.00000000000E+00 -0.74505805969E-08  0.93827000000E+00  0.93827000000E+00 0. -1.
     999902    2    1    2    0    0  0.21218156084E-01  0.65753329690E-02  0.92501052868E-02  0.10198673817E+01  0.10195834770E+01 0.  0.
     999903    2    3    3    0    0  0.76193568967E-02  0.73094030587E-01 -0.10516181385E+00  0.12986752120E+00  0.20143834378E-01 0.  0.
         14    1    1    2    0    0 -0.21218156084E-01 -0.65753329690E-02 -0.92501052868E-02  0.24062618292E-01  0.00000000000E+00 0. -1.
     999901    1    3    3    0    0  0.13598799187E-01 -0.66518697618E-01  0.11441191913E+00  0.88999986051E+00  0.88000000000E+00 0.  1.
        -11    1    4    4    0    0 -0.48264400954E-02  0.55806937164E-02 -0.12834939741E-01  0.14813354296E-01  0.51100000000E-03 0. -1.
         11    1    4    4    0    0  0.12445796992E-01  0.67513336870E-01 -0.92326874104E-01  0.11505416690E+00  0.51100000000E-03 0.  1.
</event>
<event>
 8    1  0.1119901E+005  0.1043930E+01  0.7957747E-01            NaN
         13   -1    0    0    0    0  0.00000000000E+00  0.00000000000E+00  0.74505805969E-08  0.10566000000E+00  0.10566000000E+00 0.  1.
     999900   -1    0    0    0    0 -0.00000000000E+00 -0.00000000000E+00 -0.74505805969E-08  0.93827000000E+00  0.93827000000E+00 0. -1.
     999902    2    1    2    0    0  0.97289719423E-04 -0.12835278951E-01  0.23809791542E-01  0.10168807851E+01  0.10165209645E+01 0.  0.
     999903    2    3    3    0    0 -0.74865749838E-02 -0.11773116579E+00  0.51519868321E-01  0.13018551030E+00  0.19424058665E-01 0.  0.
         14    1    1    2    0    0 -0.97289719423E-04  0.12835278951E-01 -0.23809791542E-01  0.27049214856E-01  0.00000000000E+00 0. -1.
     999901    1    3    3    0    0  0.75838647033E-02  0.10489588684E+00 -0.27710076779E-01  0.88669527485E+00  0.88000000000E+00 0. -1.
        -11    1    4    4    0    0 -0.11440337657E-01 -0.38220033769E-01  0.18939070026E-01  0.44165617865E-01  0.51100000000E-03 0. -1.
         11    1    4    4    0    0  0.39537626735E-02 -0.79511132026E-01  0.32580798295E-01  0.86019892432E-01  0.51100000000E-03 0.  1.
</event>
<event>
 8    1  0.1119901E+005  0.1043930E+01  0.7957747E-01            NaN
         13   -1    0    0    0    0  0.00000000000E+00  0.00000000000E+00  0.74505805969E-08  0.10566000000E+00  0.10566000000E+00 0.  1.
     999900   -1    0    0    0    0 -0.00000000000E+00 -0.00000000000E+00 -0.74505805969E-08  0.93827000000E+00  0.93827000000E+00 0.  1.
     999902    2    1    2    0    0  0.24478662936E-02 -0.20674224158E-01 -0.91770118099E-02  0.10211784475E+01  0.10209249672E+01 0.  0.
     999903    2    3    3    0    0 -0.40650104183E-01 -0.12488024021E+00  0.13576339741E-01  0.13369095813E+00  0.21010709647E-01 0.  0.
         14    1    1    2    0    0 -0.24478662936E-02  0.20674224158E-01  0.91770118099E-02  0.22751552468E-01  0.00000000000E+00 0. -1.
     999901    1    3    3    0    0  0.43097970476E-01  0.10420601605E+00 -0.22753351551E-01  0.88748748940E+00  0.88000000000E+00 0. -1.
        -11    1    4    4    0    0 -0.26375508756E-01 -0.52166046432E-01  0.60347235864E-03  0.58460150209E-01  0.51100000000E-03 0. -1.
         11    1    4    4    0    0 -0.14274595427E-01 -0.72714193777E-01  0.12972867383E-01  0.75230807920E-01  0.51100000000E-03 0.  1.
</event>
<event>
 8    1  0.1119901E+005  0.1043930E+01  0.7957747E-01            NaN
         13   -1    0    0    0    0  0.00000000000E+00  0.00000000000E+00  0.74505805969E-08  0.10566000000E+00  0.10566000000E+00 0. -1.
     999900   -1    0    0    0    0 -0.00000000000E+00 -0.00000000000E+00 -0.74505805969E-08  0.93827000000E+00  0.93827000000E+00 0.  1.
     999902    2    1    2    0    0  0.11693823077E-02 -0.17676226707E-01 -0.95499953957E-02  0.10238049197E+01  0.10236070998E+01 0.  0.
     999903    2    3    3    0    0 -0.26290040294E-01  0.12249004301E+00  0.34328822382E-01  0.13120985265E+00  0.18508931103E-01 0.  0.
         14    1    1    2    0    0 -0.11693823077E-02  0.17676226707E-01  0.95499953957E-02  0.20125080314E-01  0.00000000000E+00 0.  1.
     999901    1    3    3    0    0  0.27459422602E-01 -0.14016626971E+00 -0.43878817778E-01  0.89259506704E+00  0.88000000000E+00 0. -1.
        -11    1    4    4    0    0 -0.23448022682E-01  0.86517778905E-01  0.17251987042E-01  0.91285420590E-01  0.51100000000E-03 0. -1.
         11    1    4    4    0    0 -0.28420176115E-02  0.35972264102E-01  0.17076835340E-01  0.39924432055E-01  0.51100000000E-03 0.  1.
</event>
<event>
 8    1  0.1119901E+005  0.1043930E+01  0.7957747E-01            NaN
         13   -1    0    0    0    0  0.00000000000E+00  0.00000000000E+00  0.74505805969E-08  0.10566000000E+00  0.10566000000E+00 0. -1.
     999900   -1    0    0    0    0 -0.00000000000E+00 -0.00000000000E+00 -0.74505805969E-08  0.93827000000E+00  0.93827000000E+00 0.  1.
     999902    2    1    2    0    0  0.18671983669E-01  0.13663107539E-01  0.39042782341E-02  0.10204658386E+01  0.10201960404E+01 0.  0.
     999903    2    3    3    0    0  0.85963072405E-01  0.82751175881E-01  0.56726897090E-01  0.13362228933E+00  0.19989207740E-01 0.  0.
         14    1    1    2    0    0 -0.18671983669E-01 -0.13663107539E-01 -0.39042782341E-02  0.23464161402E-01  0.00000000000E+00 0.  1.
     999901    1    3    3    0    0 -0.67291088736E-01 -0.69088068342E-01 -0.52822618856E-01  0.88684354927E+00  0.88000000000E+00 0.  1.
        -11    1    4    4    0    0  0.54698166434E-01  0.43353363554E-01  0.40873392071E-01  0.80884478382E-01  0.51100000000E-03 0.  1.
         11    1    4    4    0    0  0.31264905971E-01  0.39397812327E-01  0.15853505019E-01  0.52737810951E-01  0.51100000000E-03 0. -1.
</event>
<event>
 8    1  0.1119901E+005  0.1043930E+01  0.7957747E-01            NaN
         13   -1    0    0    0    0  0.00000000000E+00  0.00000000000E+00  0.74505805969E-08  0.10566000000E+00  0.10566000000E+00 0.  1.
     999900   -1    0    0    0    0 -0.00000000000E+00 -0.00000000000E+00 -0.74505805969E-08  0.93827000000E+00  0.93827000000E+00 0. -1.
     999902    2    1    2    0    0  0.55625481550E-03 -0.19987162202E-01  0.12146429094E-01  0.10205348763E+01  0.10202666818E+01 0.  0.
     999903    2    3    3    0    0 -0.10444957582E+00 -0.13053485765E-01 -0.73442679129E-01  0.13014181942E+00  0.21516474258E-01 0.  0.
         14    1    1    2    0    0 -0.55625481550E-03  0.19987162202E-01 -0.12146429094E-01  0.23395123680E-01  0.00000000000E+00 0. -1.
     999901    1    3    3    0    0  0.10500583063E+00 -0.69336764362E-02  0.85589108222E-01  0.89039305690E+00  0.88000000000E+00 0.  1.
        -11    1    4    4    0    0 -0.50364218689E-01 -0.96874550152E-02 -0.23391001598E-01  0.56371991144E-01  0.51100000000E-03 0. -1.
         11    1    4    4    0    0 -0.54085357128E-01 -0.33660307502E-02 -0.50051677531E-01  0.73769828272E-01  0.51100000000E-03 0.  1.
</event>
<event>
 8    1  0.1119901E+005  0.1043930E+01  0.7957747E-01            NaN
         13   -1    0    0    0    0  0.00000000000E+00  0.00000000000E+00  0.74505805969E-08  0.10566000000E+00  0.10566000000E+00 0.  1.
     999900   -1    0    0    0    0 -0.00000000000E+00 -0.00000000000E+00 -0.74505805969E-08  0.93827000000E+00  0.93827000000E+00 0.  1.
     999902    2    1    2    0    0  0.20067268719E-02 -0.23742036578E-01 -0.10936323596E-02  0.10200782226E+01  0.10197993297E+01 0.  0.
     999903    2    3    3    0    0  0.91452052246E-01 -0.69470975153E-01 -0.62523217717E-01  0.13223522070E+00  0.19680106499E-01 0.  0.
         14    1    1    2    0    0 -0.20067268719E-02  0.23742036578E-01  0.10936323596E-02  0.23851777404E-01  0.00000000000E+00 0. -1.
     999901    1    3    3    0    0 -0.89445325374E-01  0.45728938576E-01  0.61429585357E-01  0.88784300189E+00  0.88000000000E+00 0. -1.
        -11    1    4    4    0    0  0.66179145055E-01 -0.59938566071E-01 -0.44541658683E-01  0.99782420406E-01  0.51100000000E-03 0. -1.
         11    1    4    4    0    0  0.25272907191E-01 -0.95324090824E-02 -0.17981559033E-01  0.32452800296E-01  0.51100000000E-03 0.  1.
</event>
<event>
 8    1  0.1119901E+005  0.1043930E+01  0.7957747E-01            NaN
         13   -1    0    0    0    0  0.00000000000E+00  0.00000000000E+00  0.74505805969E-08  0.10566000000E+00  0.10566000000E+00 0. -1.
     999900   -1    0    0    0    0 -0.00000000000E+00 -0.00000000000E+00 -0.74505805969E-08  0.93827000000E+00  0.93827000000E+00 0.  1.
     999902    2    1    2    0    0 -0.14558220572E-01 -0.18834896326E-01  0.18186598730E-02  0.10200552722E+01  0.10197758360E+01 0.  0.
     999903    2    3    3    0    0  0.81729033269E-01 -0.74042886449E-01  0.67379475148E-01  0.13066369477E+00  0.19261971532E-01 0.  0.
         14    1    1    2    0    0  0.14558220572E-01  0.18834896326E-01 -0.18186598730E-02  0.23874727843E-01  0.00000000000E+00 0.  1.
     999901    1    3    3    0    0 -0.96287253841E-01  0.55207990123E-01 -0.65560815275E-01  0.88939157739E+00  0.88000000000E+00 0. -1.
        -11    1    4    4    0    0  0.31698382139E-01 -0.22451504583E-01  0.33111605114E-01  0.51044069220E-01  0.51100000000E-03 0.  1.
         11    1    4    4    0    0  0.50030651130E-01 -0.51591381866E-01  0.34267870034E-01  0.79619625551E-01  0.51100000000E-03 0. -1.
</event>
<event>
 8    1  0.1119901E+005  0.1043930E+01  0.7957747E-01            NaN
         13   -1    0    0    0    0  0.00000000000E+00  0.00000000000E+00  0.74505805969E-08  0.10566000000E+00  0.10566000000E+00 0.  1.
     999900   -1    0    0    0    0 -0.00000000000E+00 -0.00000000000E+00 -0.74505805969E-08  0.93827000000E+00  0.93827000000E+00 0.  1.
     999902    2    1    2    0    0  0.15903023310E-01  0.14737137148E-01 -0.10591591564E-01  0.10197997042E+01  0.10195141812E+01 0.  0.
     999903    2    3    3    0    0 -0.31580666284E-01 -0.22829986872E-01  0.12039319798E+00  0.12804693319E+00  0.19569062226E-01 0.  0.
         14    1    1    2    0    0 -0.15903023310E-01 -0.14737137148E-01  0.10591591564E-01  0.24130295762E-01  0.00000000000E+00 0.  1.
     999901    1    3    3    0    0  0.47483689595E-01  0.37567124020E-01 -0.13098478954E+00  0.89175277105E+00  0.88000000000E+00 0.  1.
        -11    1    4    4    0    0 -0.14129259697E-01 -0.18545616812E-01  0.87584484548E-01  0.90635969334E-01  0.51100000000E-03 0.  1.
         11    1    4    4    0    0 -0.17451406588E-01 -0.42843700593E-02  0.32808713428E-01  0.37410963854E-01  0.51100000000E-03 0. -1.
</event>
<event>
 8    1  0.1119901E+005  0.1043930E+01  0.7957747E-01            NaN
         13   -1    0    0    0    0  0.00000000000E+00  0.00000000000E+00  0.74505805969E-08  0.10566000000E+00  0.10566000000E+00 0. -1.
     999900   -1    0    0    0    0 -0.00000000000E+00 -0.00000000000E+00 -0.74505805969E-08  0.93827000000E+00  0.93827000000E+00 0. -1.
     999902    2    1    2    0    0 -0.47038565824E-02 -0.14124177166E-01  0.18281090811E-01  0.10203542301E+01  0.10200818290E+01 0.  0.
     999903    2    3    3    0    0  0.11491602541E+00  0.55727893669E-01 -0.18889763888E-02  0.12929022585E+00  0.20027562054E-01 0.  0.
         14    1    1    2    0    0  0.47038565824E-02  0.14124177166E-01 -0.18281090811E-01  0.23575769948E-01  0.00000000000E+00 0.  1.
     999901    1    3    3    0    0 -0.11961988199E+00 -0.69852070836E-01  0.20170067200E-01  0.89106400420E+00  0.88000000000E+00 0. -1.
        -11    1    4    4    0    0  0.47748263430E-01  0.16434976823E-01 -0.84238562522E-02  0.51197925729E-01  0.51100000000E-03 0. -1.
         11    1    4    4    0    0  0.67167761975E-01  0.39292916846E-01  0.65348798634E-02  0.78092300125E-01  0.51100000000E-03 0.  1.
</event>
<event>
 8    1  0.1119901E+005  0.1043930E+01  0.7957747E-01            NaN
         13   -1    0    0    0    0  0.00000000000E+00  0.00000000000E+00  0.74505805969E-08  0.10566000000E+00  0.10566000000E+00 0. -1.
     999900   -1    0    0    0    0 -0.00000000000E+00 -0.00000000000E+00 -0.74505805969E-08  0.93827000000E+00  0.93827000000E+00 0. -1.
     999902    2    1    2    0    0 -0.93142638819E-02  0.89807962739E-02  0.19909223805E-01  0.10201857922E+01  0.10199094387E+01 0.  0.
     999903    2    3    3    0    0 -0.74185329131E-01 -0.51871857459E-01  0.94756274631E-01  0.13254094111E+00  0.19854390826E-01 0.  0.
         14    1    1    2    0    0  0.93142638819E-02 -0.89807962739E-02 -0.19909223805E-01  0.23744207838E-01  0.00000000000E+00 0.  1.
     999901    1    3    3    0    0  0.64871065249E-01  0.60852653733E-01 -0.74847050826E-01  0.88764485105E+00  0.88000000000E+00 0.  1.
        -11    1    4    4    0    0 -0.31152110596E-01 -0.26544364812E-01  0.29903688179E-01  0.50690718929E-01  0.51100000000E-03 0. -1.
         11    1    4    4    0    0 -0.43033218535E-01 -0.25327492647E-01  0.64852586452E-01  0.81850222185E-01  0.51100000000E-03 0.  1.
</event>
<event>
 8    1  0.1119901E+005  0.1043930E+01  0.7957747E-01            NaN
         13   -1    0    0    0    0  0.00000000000E+00  0.00000000000E+00  0.74505805969E-08  0.10566000000E+00  0.10566000000E+00 0. -1.
     999900   -1    0    0    0    0 -0.00000000000E+00 -0.00000000000E+00 -0.74505805969E-08  0.93827000000E+00  0.93827000000E+00 0. -1.
     999902    2    1    2    0    0  0.20742320282E-01  0.35378613355E-02 -0.12555011005E-01  0.10194271713E+01  0.10191326552E+01 0.  0.
     999903    2    3    3    0    0  0.19320110407E-01 -0.52423961760E-01 -0.11660606013E+00  0.13153057306E+00  0.24120115216E-01 0.  0.
         14    1    1    2    0    0 -0.20742320282E-01 -0.35378613355E-02  0.12555011005E-01  0.24502828711E-01  0.00000000000E+00 0. -1.
     999901    1    3    3    0    0  0.14222098757E-02  0.55961823095E-01  0.10405104912E+00  0.88789659823E+00  0.88000000000E+00 0.  1.
        -11    1    4    4    0    0  0.15052706430E-01 -0.30674685781E-01 -0.93313452467E-01  0.99373949559E-01  0.51100000000E-03 0.  1.
         11    1    4    4    0    0  0.42674039766E-02 -0.21749275979E-01 -0.23292607661E-01  0.32156623500E-01  0.51100000000E-03 0. -1.
</event>
<event>
 8    1  0.1119901E+005  0.1043930E+01  0.7957747E-01            NaN
         13   -1    0    0    0    0  0.00000000000E+00  0.00000000000E+00  0.74505805969E-08  0.10566000000E+00  0.10566000000E+00 0.  1.
     999900   -1    0    0    0    0 -0.00000000000E+00 -0.00000000000E+00 -0.74505805969E-08  0.93827000000E+00  0.93827000000E+00 0.  1.
     999902    2    1    2    0    0 -0.47948477513E-02 -0.12371173742E-01 -0.18811031792E-01  0.10209106294E+01  0.10206510774E+01 0.  0.
     999903    2    3    3    0    0 -0.71644062576E-01 -0.21661866809E-01 -0.10904020779E+00  0.13372607213E+00  0.19768340257E-01 0.  0.
         14    1    1    2    0    0  0.47948477513E-02  0.12371173742E-01  0.18811031792E-01  0.23019370578E-01  0.00000000000E+00 0.  1.
     999901    1    3    3    0    0  0.66849214824E-01  0.92906930667E-02  0.90229175995E-01  0.88718455729E+00  0.88000000000E+00 0. -1.
        -11    1    4    4    0    0 -0.27669575303E-01 -0.13269111603E-01 -0.59524102897E-01  0.66970550744E-01  0.51100000000E-03 0.  1.
         11    1    4    4    0    0 -0.43974487272E-01 -0.83927552062E-02 -0.49516104890E-01  0.66755521384E-01  0.51100000000E-03 0. -1.
</event>
<event>
 8    1  0.1119901E+005  0.1043930E+01  0.7957747E-01            NaN
         13   -1    0    0    0    0  0.00000000000E+00  0.00000000000E+00  0.74505805969E-08  0.10566000000E+00  0.10566000000E+00 0.  1.
     999900   -1    0    0    0    0 -0.00000000000E+00 -0.00000000000E+00 -0.74505805969E-08  0.93827000000E+00  0.93827000000E+00 0.  1.
     999902    2    1    2    0    0  0.11375790299E-01 -0.19324280595E-01 -0.69953288846E-02  0.10204401926E+01  0.10201697974E+01 0.  0.
     999903    2    3    3    0    0 -0.84492397791E-01 -0.94966650370E-01  0.26488756113E-01  0.13137683066E+00  0.20014681299E-01 0.  0.
         14    1    1    2    0    0 -0.11375790299E-01  0.19324280595E-01  0.69953288846E-02  0.23489807399E-01  0.00000000000E+00 0.  1.
     999901    1    3    3    0    0  0.95868188090E-01  0.75642369775E-01 -0.33484084997E-01  0.88906336194E+00  0.88000000000E+00 0.  1.
        -11    1    4    4    0    0  0.29801346287E-04 -0.98519945338E-03  0.24805932764E-02  0.27177141288E-02  0.51100000000E-03 0.  1.
         11    1    4    4    0    0 -0.84522199137E-01 -0.93981450917E-01  0.24008162836E-01  0.12865911653E+00  0.51100000000E-03 0. -1.
</event>
<event>
 8    1  0.1119901E+005  0.1043930E+01  0.7957747E-01            NaN
         13   -1    0    0    0    0  0.00000000000E+00  0.00000000000E+00  0.74505805969E-08  0.10566000000E+00  0.10566000000E+00 0. -1.
     999900   -1    0    0    0    0 -0.00000000000E+00 -0.00000000000E+00 -0.74505805969E-08  0.93827000000E+00  0.93827000000E+00 0. -1.
     999902    2    1    2    0    0  0.12598057746E-01  0.18487899005E-01  0.22628684583E-01  0.10121090818E+01  0.10116087300E+01 0.  0.
     999903    2    3    3    0    0  0.15490182112E-01  0.12191057579E+00 -0.13493582045E-01  0.12531179234E+00  0.20465441923E-01 0.  0.
         14    1    1    2    0    0 -0.12598057746E-01 -0.18487899005E-01 -0.22628684583E-01  0.31820918191E-01  0.00000000000E+00 0.  1.
     999901    1    3    3    0    0 -0.28921243665E-02 -0.10342267678E+00  0.36122266628E-01  0.88679728947E+00  0.88000000000E+00 0. -1.
        -11    1    4    4    0    0  0.16625418242E-01  0.75982437374E-01 -0.13684150584E-02  0.77793759401E-01  0.51100000000E-03 0.  1.
         11    1    4    4    0    0 -0.11352361298E-02  0.45928138415E-01 -0.12125166987E-01  0.47518032943E-01  0.51100000000E-03 0. -1.
</event>
<event>
 8    1  0.1119901E+005  0.1043930E+01  0.7957747E-01            NaN
         13   -1    0    0    0    0  0.00000000000E+00  0.00000000000E+00  0.74505805969E-08  0.10566000000E+00  0.10566000000E+00 0.  1.
     999900   -1    0    0    0    0 -0.00000000000E+00 -0.00000000000E+00 -0.74505805969E-08  0.93827000000E+00  0.93827000000E+00 0. -1.
     999902    2    1    2    0    0  0.20396651481E-01  0.61814169594E-02  0.73679496455E-02  0.10213796122E+01  0.10211306441E+01 0.  0.
     999903    2    3    3    0    0 -0.64197752909E-01  0.91270408325E-01  0.66101418669E-01  0.13129761032E+00  0.20445684448E-01 0.  0.
         14    1    1    2    0    0 -0.20396651481E-01 -0.61814169594E-02 -0.73679496455E-02  0.22550387785E-01  0.00000000000E+00 0. -1.
     999901    1    3    3    0    0  0.84594404391E-01 -0.85088991366E-01 -0.58733469023E-01  0.89008200189E+00  0.88000000000E+00 0. -1.
        -11    1    4    4    0    0 -0.16227394166E-01  0.37504648713E-01  0.30041660187E-01  0.50721686332E-01  0.51100000000E-03 0. -1.
         11    1    4    4    0    0 -0.47970358743E-01  0.53765759612E-01  0.36059758482E-01  0.80575923993E-01  0.51100000000E-03 0.  1.
</event>
<event>
 8    1  0.1119901E+005  0.1043930E+01  0.7957747E-01            NaN
         13   -1    0    0    0    0  0.00000000000E+00  0.00000000000E+00  0.74505805969E-08  0.10566000000E+00  0.10566000000E+00 0.  1.
     999900   -1    0    0    0    0 -0.00000000000E+00 -0.00000000000E+00 -0.74505805969E-08  0.93827000000E+00  0.93827000000E+00 0.  1.
     999902    2    1    2    0    0 -0.18665829674E-01  0.35659450703E-02  0.13906663735E-01  0.10203816570E+01  0.10201098968E+01 0.  0.
     999903    2    3    3    0    0 -0.10415501017E+00 -0.71890394971E-01  0.34881960510E-01  0.13277700272E+00  0.19911962456E-01 0.  0.
         14    1    1    2    0    0  0.18665829674E-01 -0.35659450703E-02 -0.13906663735E-01  0.23548342997E-01  0.00000000000E+00 0. -1.
     999901    1    3    3    0    0  0.85489180497E-01  0.75456340042E-01 -0.20975296775E-01  0.88760465429E+00  0.88000000000E+00 0.  1.
        -11    1    4    4    0    0 -0.21117366331E-01 -0.12385646164E-01 -0.98116140166E-03  0.24506554028E-01  0.51100000000E-03 0. -1.
         11    1    4    4    0    0 -0.83037643840E-01 -0.59504748808E-01  0.35863121912E-01  0.10827044869E+00  0.51100000000E-03 0.  1.
</event>
<event>
 8    1  0.1119901E+005  0.1043930E+01  0.7957747E-01            NaN
         13   -1    0    0    0    0  0.00000000000E+00  0.00000000000E+00  0.74505805969E-08  0.10566000000E+00  0.10566000000E+00 0. -1.
     999900   -1    0    0    0    0 -0.00000000000E+00 -0.00000000000E+00 -0.74505805969E-08  0.93827000000E+00  0.93827000000E+00 0.  1.
     999902    2    1    2    0    0 -0.10652982504E-01  0.14726598696E-01  0.14701814635E-01  0.10205526157E+01  0.10202848324E+01 0.  0.
     999903    2    3    3    0    0  0.70943602182E-01 -0.68111709498E-03 -0.10538458191E+00  0.12852338801E+00  0.19465162450E-01 0.  0.
         14    1    1    2    0    0  0.10652982504E-01 -0.14726598696E-01 -0.14701814635E-01  0.23377384348E-01  0.00000000000E+00 0. -1.
     999901    1    3    3    0    0 -0.81596584686E-01  0.15407715791E-01  0.12008639655E+00  0.89202922765E+00  0.88000000000E+00 0. -1.
        -11    1    4    4    0    0  0.43168595883E-01 -0.73870525400E-02 -0.52146031669E-01  0.68099676619E-01  0.51100000000E-03 0. -1.
         11    1    4    4    0    0  0.27775006300E-01  0.67059354450E-02 -0.53238550241E-01  0.60423711388E-01  0.51100000000E-03 0.  1.
</event>
<event>
 8    1  0.1119901E+005  0.1043930E+01  0.7957747E-01            NaN
         13   -1    0    0    0    0  0.00000000000E+00  0.00000000000E+00  0.74505805969E-08  0.10566000000E+00  0.10566000000E+00 0.  1.
     999900   -1    0    0    0    0 -0.00000000000E+00 -0.00000000000E+00 -0.74505805969E-08  0.93827000000E+00  0.93827000000E+00 0.  1.
     999902    2    1    2    0    0 -0.41963389591E-02 -0.18392554954E-01 -0.14641799728E-01  0.10200495135E+01  0.10197699408E+01 0.  0.
     999903    2    3    3    0    0  0.11812368205E+00 -0.68594219987E-02  0.48207685261E-01  0.12929407089E+00  0.19817162223E-01 0.  0.
         14    1    1    2    0    0  0.41963389591E-02  0.18392554954E-01  0.14641799728E-01  0.23880486546E-01  0.00000000000E+00 0.  1.
     999901    1    3    3    0    0 -0.12232002101E+00 -0.11533132956E-01 -0.62849484989E-01  0.89075544256E+00  0.88000000000E+00 0. -1.
        -11    1    4    4    0    0  0.11531142040E-01 -0.21826118432E-02  0.11555485230E-01  0.16477906151E-01  0.51100000000E-03 0.  1.
         11    1    4    4    0    0  0.10659254001E+00 -0.46768101555E-02  0.36652200031E-01  0.11281616474E+00  0.51100000000E-03 0. -1.
</event>
<event>
 8    1  0.1119901E+005  0.1043930E+01  0.7957747E-01            NaN
         13   -1    0    0    0    0  0.00000000000E+00  0.00000000000E+00  0.74505805969E-08  0.10566000000E+00  0.10566000000E+00 0.  1.
     999900   -1    0    0    0    0 -0.00000000000E+00 -0.00000000000E+00 -0.74505805969E-08  0.93827000000E+00  0.93827000000E+00 0.  1.
     999902    2    1    2    0    0  0.53757103180E-02  0.74253273597E-02  0.31765376483E-01  0.10108683471E+01  0.10103275421E+01 0.  0.
     999903    2    3    3    0    0  0.15073959726E-01 -0.11614189711E+00 -0.20290257681E-01  0.12065898745E+00  0.20754088042E-01 0.  0.
         14    1    1    2    0    0 -0.53757103180E-02 -0.74253273597E-02 -0.31765376483E-01  0.33061652877E-01  0.00000000000E+00 0. -1.
     999901    1    3    3    0    0 -0.96982494076E-02  0.12356722446E+00  0.52055634164E-01  0.89020935967E+00  0.88000000000E+00 0. -1.
        -11    1    4    4    0    0  0.37258695769E-02 -0.21298272207E-01 -0.12111353415E-01  0.24787991158E-01  0.51100000000E-03 0.  1.
         11    1    4    4    0    0  0.11348090149E-01 -0.94843624898E-01 -0.81789042659E-02  0.95870996291E-01  0.51100000000E-03 0. -1.
</event>
<event>
 8    1  0.1119901E+005  0.1043930E+01  0.7957747E-01            NaN
         13   -1    0    0    0    0  0.00000000000E+00  0.00000000000E+00  0.74505805969E-08  0.10566000000E+00  0.10566000000E+00 0. -1.
     999900   -1    0    0    0    0 -0.00000000000E+00 -0.00000000000E+00 -0.74505805969E-08  0.93827000000E+00  0.93827000000E+00 0.  1.
     999902    2    1    2    0    0 -0.17946274798E-02  0.98858571945E-02  0.21061608586E-01  0.10205945716E+01  0.10203277598E+01 0.  0.
     999903    2    3    3    0    0  0.59600960002E-01  0.77569555663E-01  0.88362308553E-01  0.13330663337E+00  0.19835587408E-01 0.  0.
         14    1    1    2    0    0  0.17946274798E-02 -0.98858571945E-02 -0.21061608586E-01  0.23335428354E-01  0.00000000000E+00 0.  1.
     999901    1    3    3    0    0 -0.61395587482E-01 -0.67683698468E-01 -0.67300699967E-01  0.88728793828E+00  0.88000000000E+00 0.  1.
        -11    1    4    4    0    0  0.36084205101E-01  0.31929743723E-01  0.47802759852E-01  0.67874467677E-01  0.51100000000E-03 0. -1.
         11    1    4    4    0    0  0.23516754901E-01  0.45639811940E-01  0.40559548701E-01  0.65432165689E-01  0.51100000000E-03 0.  1.
</event>
<event>
 8    1  0.1119901E+005  0.1043930E+01  0.7957747E-01            NaN
         13   -1    0    0    0    0  0.00000000000E+00  0.00000000000E+00  0.74505805969E-08  0.10566000000E+00  0.10566000000E+00 0. -1.
     999900   -1    0    0    0    0 -0.00000000000E+00 -0.00000000000E+00 -0.74505805969E-08  0.93827000000E+00  0.93827000000E+00 0. -1.
     999902    2    1    2    0    0 -0.55080963406E-02 -0.11264951306E-01 -0.19585893549E-01  0.10206739152E+01  0.10204089355E+01 0.  0.
     999903    2    3    3    0    0  0.48430290049E-01 -0.68338446371E-01  0.96802731125E-01  0.12954370850E+00  0.19878818207E-01 0.  0.
         14    1    1    2    0    0  0.55080963406E-02  0.11264951306E-01  0.19585893549E-01  0.23256084781E-01  0.00000000000E+00 0.  1.
     999901    1    3    3    0    0 -0.53938386389E-01  0.57073495065E-01 -0.11638862467E+00  0.89113020671E+00  0.88000000000E+00 0. -1.
        -11    1    4    4    0    0  0.12293455061E-01 -0.22360761901E-01  0.43399247880E-01  0.50347676686E-01  0.51100000000E-03 0.  1.
         11    1    4    4    0    0  0.36136834988E-01 -0.45977684470E-01  0.53403483245E-01  0.79196031819E-01  0.51100000000E-03 0. -1.
</event>
<event>
 8    1  0.1119901E+005  0.1043930E+01  0.7957747E-01            NaN
         13   -1    0    0    0    0  0.00000000000E+00  0.00000000000E+00  0.74505805969E-08  0.10566000000E+00  0.10566000000E+00 0. -1.
     999900   -1    0    0    0    0 -0.00000000000E+00 -0.00000000000E+00 -0.74505805969E-08  0.93827000000E+00  0.93827000000E+00 0.  1.
     999902    2    1    2    0    0 -0.11544639206E-02 -0.11206290229E-01  0.20528103697E-01  0.10205138353E+01  0.10202451525E+01 0.  0.
     999903    2    3    3    0    0  0.10871148280E+00 -0.22929615483E-01 -0.63604430698E-01  0.12962313160E+00  0.20314499286E-01 0.  0.
         14    1    1    2    0    0  0.11544639206E-02  0.11206290229E-01 -0.20528103697E-01  0.23416164696E-01  0.00000000000E+00 0.  1.
     999901    1    3    3    0    0 -0.10986594673E+00  0.11723325254E-01  0.84132534395E-01  0.89089070371E+00  0.88000000000E+00 0. -1.
        -11    1    4    4    0    0  0.73076134678E-01 -0.16309507504E-01 -0.31611382494E-01  0.81275224507E-01  0.51100000000E-03 0.  1.
         11    1    4    4    0    0  0.35635348127E-01 -0.66201079792E-02 -0.31993048203E-01  0.48347907091E-01  0.51100000000E-03 0. -1.
</event>
<event>
 8    1  0.1119901E+005  0.1043930E+01  0.7957747E-01            NaN
         13   -1    0    0    0    0  0.00000000000E+00  0.00000000000E+00  0.74505805969E-08  0.10566000000E+00  0.10566000000E+00 0.  1.
     999900   -1    0    0    0    0 -0.00000000000E+00 -0.00000000000E+00 -0.74505805969E-08  0.93827000000E+00  0.93827000000E+00 0.  1.
     999902    2    1    2    0    0 -0.17316835114E-01  0.14277868943E-01  0.74540893987E-02  0.10202806074E+01  0.10200064824E+01 0.  0.
     999903    2    3    3    0    0  0.50716206751E-01 -0.80774711319E-01  0.84739153137E-01  0.12919336767E+00  0.20335057393E-01 0.  0.
         14    1    1    2    0    0  0.17316835114E-01 -0.14277868943E-01 -0.74540893987E-02  0.23649392565E-01  0.00000000000E+00 0.  1.
     999901    1    3    3    0    0 -0.68033041865E-01  0.95052580261E-01 -0.77285063738E-01  0.89108723977E+00  0.88000000000E+00 0.  1.
        -11    1    4    4    0    0  0.10823398446E-01 -0.84903177907E-02  0.57104076634E-02  0.14903064342E-01  0.51100000000E-03 0. -1.
         11    1    4    4    0    0  0.39892808306E-01 -0.72284393528E-01  0.79028745473E-01  0.11429030333E+00  0.51100000000E-03 0.  1.
</event>
<event>
 8    1  0.1119901E+005  0.1043930E+01  0.7957747E-01            NaN
         13   -1    0    0    0    0  0.00000000000E+00  0.00000000000E+00  0.74505805969E-08  0.10566000000E+00  0.10566000000E+00 0. -1.
     999900   -1    0    0    0    0 -0.00000000000E+00 -0.00000000000E+00 -0.74505805969E-08  0.93827000000E+00  0.93827000000E+00 0. -1.
     999902    2    1    2    0    0  0.14241565562E-01  0.14556838238E-01  0.11901042577E-01  0.10203427462E+01  0.10200700766E+01 0.  0.
     999903    2    3    3    0    0 -0.47414988535E-01 -0.11497913183E+00 -0.22567483407E-01  0.12805961986E+00  0.20532730843E-01 0.  0.
         14    1    1    2    0    0 -0.14241565562E-01 -0.14556838238E-01 -0.11901042577E-01  0.23587253837E-01  0.00000000000E+00 0.  1.
     999901    1    3    3    0    0  0.61656554097E-01  0.12953597007E+00  0.34468525984E-01  0.89228312631E+00  0.88000000000E+00 0. -1.
        -11    1    4    4    0    0 -0.33799204486E-01 -0.92107789832E-01 -0.25223635386E-01  0.10130510389E+00  0.51100000000E-03 0.  1.
         11    1    4    4    0    0 -0.13615784048E-01 -0.22871342002E-01  0.26561519785E-02  0.26754515965E-01  0.51100000000E-03 0. -1.
</event>
<event>
 8    1  0.1119901E+005  0.1043930E+01  0.7957747E-01            NaN
         13   -1    0    0    0    0  0.00000000000E+00  0.00000000000E+00  0.74505805969E-08  0.10566000000E+00  0.10566000000E+00 0. -1.
     999900   -1    0    0    0    0 -0.00000000000E+00 -0.00000000000E+00 -0.74505805969E-08  0.93827000000E+00  0.93827000000E+00 0.  1.
     999902    2    1    2    0    0 -0.81124445875E-03  0.22311422569E-01  0.43598635411E-02  0.10211821187E+01  0.10209287210E+01 0.  0.
     999903    2    3    3    0    0 -0.98088080672E-01  0.52579968701E-01  0.69794887776E-01  0.13289122592E+00  0.20070547813E-01 0.  0.
         14    1    1    2    0    0  0.81124445875E-03 -0.22311422569E-01 -0.43598635411E-02  0.22747881324E-01  0.00000000000E+00 0.  1.
     999901    1    3    3    0    0  0.97276836213E-01 -0.30268546132E-01 -0.65435024235E-01  0.88829089275E+00  0.88000000000E+00 0.  1.
        -11    1    4    4    0    0 -0.23774273102E-01  0.70191992950E-02  0.23633033865E-01  0.34252979884E-01  0.51100000000E-03 0.  1.
         11    1    4    4    0    0 -0.74313807570E-01  0.45560769406E-01  0.46161853911E-01  0.98638246040E-01  0.51100000000E-03 0. -1.
</event>
<event>
 8    1  0.1119901E+005  0.1043930E+01  0.7957747E-01            NaN
         13   -1    0    0    0    0  0.00000000000E+00  0.00000000000E+00  0.74505805969E-08  0.10566000000E+00  0.10566000000E+00 0.  1.
     999900   -1    0    0    0    0 -0.00000000000E+00 -0.00000000000E+00 -0.74505805969E-08  0.93827000000E+00  0.93827000000E+00 0. -1.
     999902    2    1    2    0    0  0.22906994710E-01 -0.85518438023E-02 -0.40984461548E-02  0.10191376282E+01  0.10188360238E+01 0.  0.
     999903    2    3    3    0    0  0.35756101665E-01 -0.61561598580E-01  0.10720480946E+00  0.13045121085E+00  0.21361601417E-01 0.  0.
         14    1    1    2    0    0 -0.22906994710E-01  0.85518438023E-02  0.40984461548E-02  0.24792371809E-01  0.00000000000E+00 0.  1.
     999901    1    3    3    0    0 -0.12849106955E-01  0.53009754777E-01 -0.11130325562E+00  0.88868641734E+00  0.88000000000E+00 0. -1.
        -11    1    4    4    0    0  0.21281527173E-01 -0.32614170206E-01  0.76463426061E-01  0.85810862617E-01  0.51100000000E-03 0. -1.
         11    1    4    4    0    0  0.14474574492E-01 -0.28947428374E-01  0.30741383400E-01  0.44640348235E-01  0.51100000000E-03 0.  1.
</event>
<event>
 8    1  0.1119901E+005  0.1043930E+01  0.7957747E-01            NaN
         13   -1    0    0    0    0  0.00000000000E+00  0.00000000000E+00  0.74505805969E-08  0.10566000000E+00  0.10566000000E+00 0.  1.
     999900   -1    0    0    0    0 -0.00000000000E+00 -0.00000000000E+00 -0.74505805969E-08  0.93827000000E+00  0.93827000000E+00 0.  1.
     999902    2    1    2    0    0 -0.20191082854E-01  0.11128953044E-01  0.52116525742E-02  0.10202932755E+01  0.10200194475E+01 0.  0.
     999903    2    3    3    0    0  0.56473383170E-01  0.10607245235E+00  0.48255941471E-01  0.13083022443E+00  0.18636082831E-01 0.  0.
         14    1    1    2    0    0  0.20191082854E-01 -0.11128953044E-01 -0.52116525742E-02  0.23636724503E-01  0.00000000000E+00 0. -1.
     999901    1    3    3    0    0 -0.76664466024E-01 -0.94943499302E-01 -0.43044288896E-01  0.88946305107E+00  0.88000000000E+00 0.  1.
        -11    1    4    4    0    0  0.26152166644E-01  0.30596576317E-01  0.16831213166E-01  0.43630690576E-01  0.51100000000E-03 0. -1.
         11    1    4    4    0    0  0.30321216526E-01  0.75475876029E-01  0.31424728304E-01  0.87199533852E-01  0.51100000000E-03 0.  1.
</event>
<event>
 8    1  0.1119901E+005  0.1043930E+01  0.7957747E-01            NaN
         13   -1    0    0    0    0  0.00000000000E+00  0.00000000000E+00  0.74505805969E-08  0.10566000000E+00  0.10566000000E+00 0.  1.
     999900   -1    0    0    0    0 -0.00000000000E+00 -0.00000000000E+00 -0.74505805969E-08  0.93827000000E+00  0.93827000000E+00 0.  1.
     999902    2    1    2    0    0 -0.22370245920E-02  0.15683043645E-01  0.16882377723E-01  0.10207788269E+01  0.10205162599E+01 0.  0.
     999903    2    3    3    0    0  0.63967516281E-01  0.92765474145E-01 -0.64073233038E-01  0.13124043358E+00  0.20527929324E-01 0.  0.
         14    1    1    2    0    0  0.22370245920E-02 -0.15683043645E-01 -0.16882377723E-01  0.23151173071E-01  0.00000000000E+00 0.  1.
     999901    1    3    3    0    0 -0.66204540873E-01 -0.77082430500E-01  0.80955610761E-01  0.88953839335E+00  0.88000000000E+00 0. -1.
        -11    1    4    4    0    0  0.32200329786E-01  0.60972778156E-01 -0.45462540869E-01  0.82593248257E-01  0.51100000000E-03 0.  1.
         11    1    4    4    0    0  0.31767186494E-01  0.31792695990E-01 -0.18610692169E-01  0.48647185325E-01  0.51100000000E-03 0. -1.
</event>
<event>
 8    1  0.1119901E+005  0.1043930E+01  0.7957747E-01            NaN
         13   -1    0    0    0    0  0.00000000000E+00  0.00000000000E+00  0.74505805969E-08  0.10566000000E+00  0.10566000000E+00 0. -1.
     999900   -1    0    0    0    0 -0.00000000000E+00 -0.00000000000E+00 -0.74505805969E-08  0.93827000000E+00  0.93827000000E+00 0. -1.
     999902    2    1    2    0    0 -0.11233522070E-01  0.60580491799E-02 -0.20726842131E-01  0.10195888011E+01  0.10192982044E+01 0.  0.
     999903    2    3    3    0    0  0.98428197521E-01  0.87252074820E-02  0.77313020986E-01  0.12737547392E+00  0.21976551826E-01 0.  0.
         14    1    1    2    0    0  0.11233522070E-01 -0.60580491799E-02  0.20726842131E-01  0.24341198875E-01  0.00000000000E+00 0. -1.
     999901    1    3    3    0    0 -0.10966171959E+00 -0.26671583021E-02 -0.98039863117E-01  0.89221332720E+00  0.88000000000E+00 0. -1.
        -11    1    4    4    0    0  0.16976169045E-01  0.44560534996E-02  0.24730381351E-01  0.30329846867E-01  0.51100000000E-03 0.  1.
         11    1    4    4    0    0  0.81452028476E-01  0.42691539824E-02  0.52582639635E-01  0.97045627055E-01  0.51100000000E-03 0. -1.
</event>
<event>
 7    1  0.1119901E+005  0.1043930E+01  0.7957747E-01            NaN
         13   -1    0    0    0    0  0.00000000000E+00  0.00000000000E+00  0.74505805969E-08  0.10566000000E+00  0.10566000000E+00 0.  1.
     999900   -1    0    0    0    0 -0.00000000000E+00 -0.00000000000E+00 -0.74505805969E-08  0.93827000000E+00  0.93827000000E+00 0. -1.
     999903    2    1    2    0    0 -0.17836434377E-01 -0.10761463540E+00  0.18670753901E-01  0.11205066623E+00  0.17541568044E-01 0.  0.
         14    1    1    2    0    0 -0.15350379482E-01  0.10441702971E-01 -0.41661151130E-01  0.45610468367E-01  0.00000000000E+00 0. -1.
     999901    1    1    2    0    0  0.33186813858E-01  0.97172932425E-01  0.22990397229E-01  0.88626886540E+00  0.88000000000E+00 0.  1.
        -11    1    3    3    0    0 -0.11521774646E-01 -0.38047174816E-01  0.13571953220E-01  0.42009496994E-01  0.51100000000E-03 0.  1.
         11    1    3    3    0    0 -0.63146597303E-02 -0.69567460581E-01  0.50988006816E-02  0.70041169240E-01  0.51100000000E-03 0. -1.
</event>
<event>
 8    1  0.1119901E+005  0.1043930E+01  0.7957747E-01            NaN
         13   -1    0    0    0    0  0.00000000000E+00  0.00000000000E+00  0.74505805969E-08  0.10566000000E+00  0.10566000000E+00 0.  1.
     999900   -1    0    0    0    0 -0.00000000000E+00 -0.00000000000E+00 -0.74505805969E-08  0.93827000000E+00  0.93827000000E+00 0.  1.
     999902    2    1    2    0    0 -0.17242508628E-02  0.13872865617E-01 -0.19180560496E-01  0.10201955663E+01  0.10199194430E+01 0.  0.
     999903    2    3    3    0    0  0.11223510311E+00 -0.51192138301E-01  0.32124754140E-01  0.12898715948E+00  0.19706194165E-01 0.  0.
         14    1    1    2    0    0  0.17242508628E-02 -0.13872865617E-01  0.19180560496E-01  0.23734433686E-01  0.00000000000E+00 0.  1.
     999901    1    3    3    0    0 -0.11395935398E+00  0.65065003918E-01 -0.51305314636E-01  0.89120840683E+00  0.88000000000E+00 0.  1.
        -11    1    4    4    0    0  0.29145150584E-01 -0.10493124359E-01  0.16672663489E-01  0.35182158692E-01  0.51100000000E-03 0. -1.
         11    1    4    4    0    0  0.83089952530E-01 -0.40699013942E-01  0.15452090651E-01  0.93805000793E-01  0.51100000000E-03 0.  1.
</event>
<event>
 8    1  0.1119901E+005  0.1043930E+01  0.7957747E-01            NaN
         13   -1    0    0    0    0  0.00000000000E+00  0.00000000000E+00  0.74505805969E-08  0.10566000000E+00  0.10566000000E+00 0.  1.
     999900   -1    0    0    0    0 -0.00000000000E+00 -0.00000000000E+00 -0.74505805969E-08  0.93827000000E+00  0.93827000000E+00 0. -1.
     999902    2    1    2    0    0  0.13976818337E-01 -0.39088860905E-02  0.15527729726E-01  0.10226757950E+01  0.10224549087E+01 0.  0.
     999903    2    3    3    0    0  0.11817601082E+00  0.46009095202E-01 -0.36915143299E-01  0.13357538922E+00  0.19931142093E-01 0.  0.
         14    1    1    2    0    0 -0.13976818337E-01  0.39088860905E-02 -0.15527729726E-01  0.21254205036E-01  0.00000000000E+00 0.  1.
     999901    1    3    3    0    0 -0.10419919248E+00 -0.49917981292E-01  0.52442873024E-01  0.88910040575E+00  0.88000000000E+00 0.  1.
        -11    1    4    4    0    0  0.78027916119E-01  0.20882729717E-01 -0.27129830744E-01  0.85209934464E-01  0.51100000000E-03 0. -1.
         11    1    4    4    0    0  0.40148094700E-01  0.25126365485E-01 -0.97853125548E-02  0.48365454752E-01  0.51100000000E-03 0.  1.
</event>
<event>
 8    1  0.1119901E+005  0.1043930E+01  0.7957747E-01            NaN
         13   -1    0    0    0    0  0.00000000000E+00  0.00000000000E+00  0.74505805969E-08  0.10566000000E+00  0.10566000000E+00 0.  1.
     999900   -1    0    0    0    0 -0.00000000000E+00 -0.00000000000E+00 -0.74505805969E-08  0.93827000000E+00  0.93827000000E+00 0. -1.
     999902    2    1    2    0    0  0.13019917135E-01 -0.60461912955E-02  0.19036018220E-01  0.10200879225E+01  0.10198092591E+01 0.  0.
     999903    2    3    3    0    0 -0.11214479167E-01 -0.97296052485E-01 -0.82002479079E-01  0.12928905568E+00  0.19974157603E-01 0.  0.
         14    1    1    2    0    0 -0.13019917135E-01  0.60461912955E-02 -0.19036018220E-01  0.23842077532E-01  0.00000000000E+00 0. -1.
     999901    1    3    3    0    0  0.24234396302E-01  0.91249861189E-01  0.10103849730E+00  0.89079886679E+00  0.88000000000E+00 0.  1.
        -11    1    4    4    0    0 -0.87396197974E-02 -0.35619872163E-01 -0.41858568566E-01  0.55655701689E-01  0.51100000000E-03 0.  1.
         11    1    4    4    0    0 -0.24748593696E-02 -0.61676180322E-01 -0.40143910513E-01  0.73633353993E-01  0.51100000000E-03 0. -1.
</event>
<event>
 8    1  0.1119901E+005  0.1043930E+01  0.7957747E-01            NaN
         13   -1    0    0    0    0  0.00000000000E+00  0.00000000000E+00  0.74505805969E-08  0.10566000000E+00  0.10566000000E+00 0. -1.
     999900   -1    0    0    0    0 -0.00000000000E+00 -0.00000000000E+00 -0.74505805969E-08  0.93827000000E+00  0.93827000000E+00 0.  1.
     999902    2    1    2    0    0  0.19333585401E-01 -0.62576192636E-02 -0.11904371496E-01  0.10203787923E+01  0.10201069652E+01 0.  0.
     999903    2    3    3    0    0  0.96701831653E-01  0.63231988008E-01 -0.61774018242E-01  0.13285322494E+00  0.22009577363E-01 0.  0.
         14    1    1    2    0    0 -0.19333585401E-01  0.62576192636E-02  0.11904371496E-01  0.23551207698E-01  0.00000000000E+00 0. -1.
     999901    1    3    3    0    0 -0.77368246252E-01 -0.69489607272E-01  0.49869646746E-01  0.88752556736E+00  0.88000000000E+00 0.  1.
        -11    1    4    4    0    0  0.20927966176E-01  0.15849969861E-01 -0.24861852333E-01  0.36160394568E-01  0.51100000000E-03 0. -1.
         11    1    4    4    0    0  0.75773865478E-01  0.47382018147E-01 -0.36912165909E-01  0.96692830377E-01  0.51100000000E-03 0.  1.
</event>
<event>
 8    1  0.1119901E+005  0.1043930E+01  0.7957747E-01            NaN
         13   -1    0    0    0    0  0.00000000000E+00  0.00000000000E+00  0.74505805969E-08  0.10566000000E+00  0.10566000000E+00 0. -1.
     999900   -1    0    0    0    0 -0.00000000000E+00 -0.00000000000E+00 -0.74505805969E-08  0.93827000000E+00  0.93827000000E+00 0. -1.
     999902    2    1    2    0    0  0.19258932538E-01 -0.69689166558E-02  0.13107967376E-01  0.10196135222E+01  0.10193235226E+01 0.  0.
     999903    2    3    3    0    0 -0.75402181035E-01 -0.58825956562E-02 -0.98481472378E-01  0.12752938407E+00  0.29069736195E-01 0.  0.
         14    1    1    2    0    0 -0.19258932538E-01  0.69689166558E-02 -0.13107967376E-01  0.24316477759E-01  0.00000000000E+00 0.  1.
     999901    1    3    3    0    0  0.94661113573E-01 -0.10863209996E-02  0.11158943975E+00  0.89208413817E+00  0.88000000000E+00 0.  1.
        -11    1    4    4    0    0 -0.39118009952E-01  0.39234798499E-02 -0.70304037350E-01  0.80551419512E-01  0.51100000000E-03 0. -1.
         11    1    4    4    0    0 -0.36284171083E-01 -0.98060755061E-02 -0.28177435028E-01  0.46977964556E-01  0.51100000000E-03 0.  1.
</event>
<event>
 8    1  0.1119901E+005  0.1043930E+01  0.7957747E-01            NaN
         13   -1    0    0    0    0  0.00000000000E+00  0.00000000000E+00  0.74505805969E-08  0.10566000000E+00  0.10566000000E+00 0. -1.
     999900   -1    0    0    0    0 -0.00000000000E+00 -0.00000000000E+00 -0.74505805969E-08  0.93827000000E+00  0.93827000000E+00 0. -1.
     999902    2    1    2    0    0 -0.14041884954E-01  0.57021403969E-03  0.19337451138E-01  0.10200252579E+01  0.10197451104E+01 0.  0.
     999903    2    3    3    0    0 -0.10840840693E+00  0.14312403980E-01  0.73337811377E-01  0.13322768962E+00  0.20345886627E-01 0.  0.
         14    1    1    2    0    0  0.14041884954E-01 -0.57021403969E-03 -0.19337451138E-01  0.23904742074E-01  0.00000000000E+00 0.  1.
     999901    1    3    3    0    0  0.94366521974E-01 -0.13742189940E-01 -0.54000360239E-01  0.88679756831E+00  0.88000000000E+00 0. -1.
        -11    1    4    4    0    0 -0.91950406892E-01  0.13463010736E-01  0.70145671362E-01  0.11643369924E+00  0.51100000000E-03 0.  1.
         11    1    4    4    0    0 -0.16458000035E-01  0.84939324351E-03  0.31921400151E-02  0.16793990381E-01  0.51100000000E-03 0. -1.
</event>
<event>
 8    1  0.1119901E+005  0.1043930E+01  0.7957747E-01            NaN
         13   -1    0    0    0    0  0.00000000000E+00  0.00000000000E+00  0.74505805969E-08  0.10566000000E+00  0.10566000000E+00 0. -1.
     999900   -1    0    0    0    0 -0.00000000000E+00 -0.00000000000E+00 -0.74505805969E-08  0.93827000000E+00  0.93827000000E+00 0. -1.
     999902    2    1    2    0    0  0.42040663486E-02  0.18419312785E-01 -0.13563858794E-01  0.10206722374E+01  0.10204072190E+01 0.  0.
     999903    2    3    3    0    0  0.46531335824E-01 -0.58677827559E-01  0.10317105311E+00  0.12861696641E+00  0.17023665510E-01 0.  0.
         14    1    1    2    0    0 -0.42040663486E-02 -0.18419312785E-01  0.13563858794E-01  0.23257762633E-01  0.00000000000E+00 0. -1.
     999901    1    3    3    0    0 -0.42327269476E-01  0.77097140343E-01 -0.11673491190E+00  0.89205527096E+00  0.88000000000E+00 0. -1.
        -11    1    4    4    0    0  0.26544542783E-01 -0.45786844184E-01  0.68378766630E-01  0.86469443729E-01  0.51100000000E-03 0. -1.
         11    1    4    4    0    0  0.19986793042E-01 -0.12890983374E-01  0.34792286479E-01  0.42147522678E-01  0.51100000000E-03 0.  1.
</event>
<event>
 8    1  0.1119901E+005  0.1043930E+01  0.7957747E-01            NaN
         13   -1    0    0    0    0  0.00000000000E+00  0.00000000000E+00  0.74505805969E-08  0.10566000000E+00  0.10566000000E+00 0.  1.
     999900   -1    0    0    0    0 -0.00000000000E+00 -0.00000000000E+00 -0.74505805969E-08  0.93827000000E+00  0.93827000000E+00 0. -1.
     999902    2    1    2    0    0 -0.77589854059E-02  0.20828559511E-01 -0.85487311499E-02  0.10201158960E+01  0.10198378938E+01 0.  0.
     999903    2    3    3    0    0 -0.10788932978E+00  0.60493762383E-01 -0.43975674791E-01  0.13284227273E+00  0.20337322457E-01 0.  0.
         14    1    1    2    0    0  0.77589854059E-02 -0.20828559511E-01  0.85487311499E-02  0.23814104016E-01  0.00000000000E+00 0. -1.
     999901    1    3    3    0    0  0.10013034437E+00 -0.39665202873E-01  0.35426943641E-01  0.88727362325E+00  0.88000000000E+00 0. -1.
        -11    1    4    4    0    0 -0.56855477355E-01  0.20341680214E-01 -0.19796044497E-01  0.63548987072E-01  0.51100000000E-03 0.  1.
         11    1    4    4    0    0 -0.51033852420E-01  0.40152082170E-01 -0.24179630294E-01  0.69293285660E-01  0.51100000000E-03 0. -1.
</event>
<event>
 6    1  0.1119901E+005  0.1043930E+01  0.7957747E-01            NaN
         13   -1    0    0    0    0  0.00000000000E+00  0.00000000000E+00  0.74505805969E-08  0.10566000000E+00  0.10566000000E+00 0. -1.
     999900   -1    0    0    0    0 -0.00000000000E+00 -0.00000000000E+00 -0.74505805969E-08  0.93827000000E+00  0.93827000000E+00 0.  1.
         14    1    1    2    0    0  0.27464699283E-01  0.86414646485E-02 -0.44932503980E-01  0.53365855488E-01  0.00000000000E+00 0.  1.
     999901    1    1    2    0    0 -0.12396389582E-01  0.44479704437E-01  0.12100552405E+00  0.88947987691E+00  0.88000000000E+00 0. -1.
        -11    1    1    2    0    0 -0.15856309172E-02  0.23878072428E-02 -0.22762138135E-01  0.22947590338E-01  0.51100000000E-03 0. -1.
         11    1    1    2    0    0 -0.13482678784E-01 -0.55508976328E-01 -0.53310881932E-01  0.78136677262E-01  0.51100000000E-03 0.  1.
</event>
<event>
 8    1  0.1119901E+005  0.1043930E+01  0.7957747E-01            NaN
         13   -1    0    0    0    0  0.00000000000E+00  0.00000000000E+00  0.74505805969E-08  0.10566000000E+00  0.10566000000E+00 0. -1.
     999900   -1    0    0    0    0 -0.00000000000E+00 -0.00000000000E+00 -0.74505805969E-08  0.93827000000E+00  0.93827000000E+00 0. -1.
     999902    2    1    2    0    0 -0.91662513774E-02 -0.12211900050E-01  0.18611050865E-01  0.10198567393E+01  0.10195725804E+01 0.  0.
     999903    2    3    3    0    0 -0.12677655318E+00 -0.30048027898E-01 -0.55853186493E-02  0.13152359522E+00  0.17090403668E-01 0.  0.
         14    1    1    2    0    0  0.91662513774E-02  0.12211900050E-01 -0.18611050865E-01  0.24073260715E-01  0.00000000000E+00 0.  1.
     999901    1    3    3    0    0  0.11761030181E+00  0.17836127848E-01  0.24196369515E-01  0.88833314407E+00  0.88000000000E+00 0.  1.
        -11    1    4    4    0    0 -0.45726030597E-01 -0.15130614978E-01  0.50313070650E-02  0.48429129205E-01  0.51100000000E-03 0.  1.
         11    1    4    4    0    0 -0.81050522586E-01 -0.14917412921E-01 -0.10616625714E-01  0.83094466014E-01  0.51100000000E-03 0. -1.
</event>
<event>
 8    1  0.1119901E+005  0.1043930E+01  0.7957747E-01            NaN
         13   -1    0    0    0    0  0.00000000000E+00  0.00000000000E+00  0.74505805969E-08  0.10566000000E+00  0.10566000000E+00 0. -1.
     999900   -1    0    0    0    0 -0.00000000000E+00 -0.00000000000E+00 -0.74505805969E-08  0.93827000000E+00  0.93827000000E+00 0.  1.
     999902    2    1    2    0    0  0.40015134060E-02 -0.28897995456E-02  0.23016446388E-01  0.10203902495E+01  0.10201186898E+01 0.  0.
     999903    2    3    3    0    0  0.90118801858E-01  0.54957061514E-01 -0.71812923286E-01  0.12923647146E+00  0.20082144935E-01 0.  0.
         14    1    1    2    0    0 -0.40015134060E-02  0.28897995456E-02 -0.23016446388E-01  0.23539750536E-01  0.00000000000E+00 0.  1.
     999901    1    3    3    0    0 -0.86117288452E-01 -0.57846861059E-01  0.94829369674E-01  0.89115377801E+00  0.88000000000E+00 0. -1.
        -11    1    4    4    0    0  0.49802587119E-01  0.36483135958E-01 -0.51754405849E-01  0.80561135412E-01  0.51100000000E-03 0.  1.
         11    1    4    4    0    0  0.40316214739E-01  0.18473925555E-01 -0.20058517437E-01  0.48675336045E-01  0.51100000000E-03 0. -1.
</event>
<event>
 8    1  0.1119901E+005  0.1043930E+01  0.7957747E-01            NaN
         13   -1    0    0    0    0  0.00000000000E+00  0.00000000000E+00  0.74505805969E-08  0.10566000000E+00  0.10566000000E+00 0. -1.
     999900   -1    0    0    0    0 -0.00000000000E+00 -0.00000000000E+00 -0.74505805969E-08  0.93827000000E+00  0.93827000000E+00 0.  1.
     999902    2    1    2    0    0  0.11714959458E-01  0.16727917097E-01  0.91619257040E-02  0.10215468731E+01  0.10213016252E+01 0.  0.
     999903    2    3    3    0    0  0.72678577225E-01 -0.83815547455E-01 -0.65731573249E-01  0.13057291889E+00  0.20528659095E-01 0.  0.
         14    1    1    2    0    0 -0.11714959458E-01 -0.16727917097E-01 -0.91619257040E-02  0.22383126862E-01  0.00000000000E+00 0.  1.
     999901    1    3    3    0    0 -0.60963617767E-01  0.10054346455E+00  0.74893498953E-01  0.89097395424E+00  0.88000000000E+00 0. -1.
        -11    1    4    4    0    0  0.43462976406E-01 -0.64115712255E-01 -0.42356006152E-01  0.88284467797E-01  0.51100000000E-03 0.  1.
         11    1    4    4    0    0  0.29215600819E-01 -0.19699835200E-01 -0.23375567096E-01  0.42288451097E-01  0.51100000000E-03 0. -1.
</event>
<event>
 8    1  0.1119901E+005  0.1043930E+01  0.7957747E-01            NaN
         13   -1    0    0    0    0  0.00000000000E+00  0.00000000000E+00  0.74505805969E-08  0.10566000000E+00  0.10566000000E+00 0.  1.
     999900   -1    0    0    0    0 -0.00000000000E+00 -0.00000000000E+00 -0.74505805969E-08  0.93827000000E+00  0.93827000000E+00 0.  1.
     999902    2    1    2    0    0 -0.53457879038E-02 -0.18100354268E-01  0.18546522055E-01  0.10174692035E+01  0.10171250691E+01 0.  0.
     999903    2    3    3    0    0  0.12301784532E+00  0.95268196823E-02 -0.21700465194E-01  0.12681758636E+00  0.19688561641E-01 0.  0.
         14    1    1    2    0    0  0.53457879038E-02  0.18100354268E-01 -0.18546522055E-01  0.26460796535E-01  0.00000000000E+00 0. -1.
     999901    1    3    3    0    0 -0.12836363322E+00 -0.27627173951E-01  0.40246987248E-01  0.89065161711E+00  0.88000000000E+00 0.  1.
        -11    1    4    4    0    0  0.55386340897E-01 -0.19062630910E-02 -0.20249388744E-02  0.55458471809E-01  0.51100000000E-03 0. -1.
         11    1    4    4    0    0  0.67631504423E-01  0.11433082773E-01 -0.19675526319E-01  0.71359114548E-01  0.51100000000E-03 0.  1.
</event>
<event>
 8    1  0.1119901E+005  0.1043930E+01  0.7957747E-01            NaN
         13   -1    0    0    0    0  0.00000000000E+00  0.00000000000E+00  0.74505805969E-08  0.10566000000E+00  0.10566000000E+00 0.  1.
     999900   -1    0    0    0    0 -0.00000000000E+00 -0.00000000000E+00 -0.74505805969E-08  0.93827000000E+00  0.93827000000E+00 0.  1.
     999902    2    1    2    0    0 -0.16174131326E-01 -0.84209488989E-02 -0.16261315199E-01  0.10194975364E+01  0.10192047299E+01 0.  0.
     999903    2    3    3    0    0  0.67932319587E-02  0.12616202706E+00  0.12600156612E-01  0.12850199112E+00  0.19773535393E-01 0.  0.
         14    1    1    2    0    0  0.16174131326E-01  0.84209488989E-02  0.16261315199E-01  0.24432463578E-01  0.00000000000E+00 0.  1.
     999901    1    3    3    0    0 -0.22967363285E-01 -0.13458297596E+00 -0.28861471811E-01  0.89099554530E+00  0.88000000000E+00 0. -1.
        -11    1    4    4    0    0  0.88508079497E-05  0.55508413758E-01 -0.38369675432E-02  0.55643216273E-01  0.51100000000E-03 0.  1.
         11    1    4    4    0    0  0.67843811507E-02  0.70653613304E-01  0.16437124155E-01  0.72858774846E-01  0.51100000000E-03 0. -1.
</event>
<event>
 8    1  0.1119901E+005  0.1043930E+01  0.7957747E-01            NaN
         13   -1    0    0    0    0  0.00000000000E+00  0.00000000000E+00  0.74505805969E-08  0.10566000000E+00  0.10566000000E+00 0.  1.
     999900   -1    0    0    0    0 -0.00000000000E+00 -0.00000000000E+00 -0.74505805969E-08  0.93827000000E+00  0.93827000000E+00 0. -1.
     999902    2    1    2    0    0 -0.14705432587E-01  0.12333688723E-01 -0.14467846101E-01  0.10198948550E+01  0.10196116060E+01 0.  0.
     999903    2    3    3    0    0  0.97859121740E-01  0.50417910712E-01 -0.66959432613E-01  0.13035758566E+00  0.19777793004E-01 0.  0.
         14    1    1    2    0    0  0.14705432587E-01 -0.12333688723E-01  0.14467846101E-01  0.24035145015E-01  0.00000000000E+00 0.  1.
     999901    1    3    3    0    0 -0.11256455433E+00 -0.38084221990E-01  0.52491586512E-01  0.88953726932E+00  0.88000000000E+00 0.  1.
        -11    1    4    4    0    0  0.39435128347E-01  0.29795069030E-01 -0.35605053045E-01  0.60916799075E-01  0.51100000000E-03 0.  1.
         11    1    4    4    0    0  0.58423993394E-01  0.20622841682E-01 -0.31354379568E-01  0.69440786590E-01  0.51100000000E-03 0. -1.
</event>
<event>
 8    1  0.1119901E+005  0.1043930E+01  0.7957747E-01            NaN
         13   -1    0    0    0    0  0.00000000000E+00  0.00000000000E+00  0.74505805969E-08  0.10566000000E+00  0.10566000000E+00 0.  1.
     999900   -1    0    0    0    0 -0.00000000000E+00 -0.00000000000E+00 -0.74505805969E-08  0.93827000000E+00  0.93827000000E+00 0. -1.
     999902    2    1    2    0    0 -0.50933176397E-03 -0.23760965792E-01 -0.42321442025E-02  0.10197897026E+01  0.10195039399E+01 0.  0.
     999903    2    3    3    0    0  0.27350724630E-01 -0.93641434546E-01 -0.87577897564E-01  0.13265612908E+00  0.20272642631E-01 0.  0.
         14    1    1    2    0    0  0.50933176397E-03  0.23760965792E-01  0.42321442025E-02  0.24140297404E-01  0.00000000000E+00 0.  1.
     999901    1    3    3    0    0 -0.27860056394E-01  0.69880468754E-01  0.83345753361E-01  0.88713357352E+00  0.88000000000E+00 0.  1.
        -11    1    4    4    0    0  0.89890853147E-02 -0.80291171795E-02 -0.11334045411E-01  0.16552706240E-01  0.51100000000E-03 0.  1.
         11    1    4    4    0    0  0.18361639315E-01 -0.85612317366E-01 -0.76243852153E-01  0.11610342284E+00  0.51100000000E-03 0. -1.
</event>
<event>
 8    1  0.1119901E+005  0.1043930E+01  0.7957747E-01            NaN
         13   -1    0    0    0    0  0.00000000000E+00  0.00000000000E+00  0.74505805969E-08  0.10566000000E+00  0.10566000000E+00 0. -1.
     999900   -1    0    0    0    0 -0.00000000000E+00 -0.00000000000E+00 -0.74505805969E-08  0.93827000000E+00  0.93827000000E+00 0.  1.
     999902    2    1    2    0    0 -0.70737975432E-02  0.21776516893E-01  0.86743731841E-02  0.10194453099E+01  0.10191512350E+01 0.  0.
     999903    2    3    3    0    0 -0.16988057337E-01 -0.12452627844E+00 -0.32599277739E-02  0.12723164265E+00  0.19541638850E-01 0.  0.
         14    1    1    2    0    0  0.70737975432E-02 -0.21776516893E-01 -0.86743731841E-02  0.24484690111E-01  0.00000000000E+00 0.  1.
     999901    1    3    3    0    0  0.99142597942E-02  0.14630279533E+00  0.11934300958E-01  0.89221366724E+00  0.88000000000E+00 0.  1.
        -11    1    4    4    0    0 -0.59023224154E-02 -0.15715824586E-01 -0.59652250511E-02  0.17823287666E-01  0.51100000000E-03 0. -1.
         11    1    4    4    0    0 -0.11085734922E-01 -0.10881045385E+00  0.27052972772E-02  0.10940835498E+00  0.51100000000E-03 0.  1.
</event>
<event>
 8    1  0.1119901E+005  0.1043930E+01  0.7957747E-01            NaN
         13   -1    0    0    0    0  0.00000000000E+00  0.00000000000E+00  0.74505805969E-08  0.10566000000E+00  0.10566000000E+00 0.  1.
     999900   -1    0    0    0    0 -0.00000000000E+00 -0.00000000000E+00 -0.74505805969E-08  0.93827000000E+00  0.93827000000E+00 0.  1.
     999902    2    1    2    0    0  0.15575957084E-01  0.50339764507E-02  0.16493721019E-01  0.10206922249E+01  0.10204276671E+01 0.  0.
     999903    2    3    3    0    0 -0.10858925100E+00 -0.52748952620E-01  0.43037858564E-01  0.12970375303E+00  0.19918053214E-01 0.  0.
         14    1    1    2    0    0 -0.15575957084E-01 -0.50339764507E-02 -0.16493721019E-01  0.23237775088E-01  0.00000000000E+00 0. -1.
     999901    1    3    3    0    0  0.12416520809E+00  0.57782929070E-01 -0.26544137545E-01  0.89098847188E+00  0.88000000000E+00 0. -1.
        -11    1    4    4    0    0 -0.77173594413E-01 -0.39902200900E-01  0.21494772309E-01  0.89499919938E-01  0.51100000000E-03 0. -1.
         11    1    4    4    0    0 -0.31415656591E-01 -0.12846751720E-01  0.21543086255E-01  0.40203833090E-01  0.51100000000E-03 0.  1.
</event>
<event>
 8    1  0.1119901E+005  0.1043930E+01  0.7957747E-01            NaN
         13   -1    0    0    0    0  0.00000000000E+00  0.00000000000E+00  0.74505805969E-08  0.10566000000E+00  0.10566000000E+00 0.  1.
     999900   -1    0    0    0    0 -0.00000000000E+00 -0.00000000000E+00 -0.74505805969E-08  0.93827000000E+00  0.93827000000E+00 0. -1.
     999902    2    1    2    0    0  0.21509373954E-02  0.13869742827E-01 -0.13949455110E-01  0.10241415287E+01  0.10239503344E+01 0.  0.
     999903    2    3    3    0    0 -0.10163575004E+00 -0.26568847314E-01 -0.81228892562E-01  0.13457226286E+00  0.21813564835E-01 0.  0.
         14    1    1    2    0    0 -0.21509373954E-02 -0.13869742827E-01  0.13949455110E-01  0.19788471281E-01  0.00000000000E+00 0.  1.
     999901    1    3    3    0    0  0.10378668743E+00  0.40438590141E-01  0.67279437452E-01  0.88956926586E+00  0.88000000000E+00 0.  1.
        -11    1    4    4    0    0 -0.53731996485E-01 -0.23407406123E-01 -0.52072591678E-01  0.78401849677E-01  0.51100000000E-03 0.  1.
         11    1    4    4    0    0 -0.47903753552E-01 -0.31614411915E-02 -0.29156300884E-01  0.56170413182E-01  0.51100000000E-03 0. -1.
</event>
<event>
 8    1  0.1119901E+005  0.1043930E+01  0.7957747E-01            NaN
         13   -1    0    0    0    0  0.00000000000E+00  0.00000000000E+00  0.74505805969E-08  0.10566000000E+00  0.10566000000E+00 0. -1.
     999900   -1    0    0    0    0 -0.00000000000E+00 -0.00000000000E+00 -0.74505805969E-08  0.93827000000E+00  0.93827000000E+00 0. -1.
     999902    2    1    2    0    0 -0.96520481592E-02 -0.22144372700E-01  0.35644620205E-05  0.10197735249E+01  0.10194873745E+01 0.  0.
     999903    2    3    3    0    0 -0.45675336043E-01  0.11149022132E+00  0.38615719685E-01  0.12811956708E+00  0.20177806830E-01 0.  0.
         14    1    1    2    0    0  0.96520481592E-02  0.22144372700E-01 -0.35644620205E-05  0.24156475087E-01  0.00000000000E+00 0. -1.
     999901    1    3    3    0    0  0.36023287884E-01 -0.13363459402E+00 -0.38612155223E-01  0.89165395783E+00  0.88000000000E+00 0. -1.
        -11    1    4    4    0    0 -0.20254568527E-01  0.58275369805E-01  0.97689156795E-02  0.62465663421E-01  0.51100000000E-03 0. -1.
         11    1    4    4    0    0 -0.25420767516E-01  0.53214851518E-01  0.28846804005E-01  0.65653903658E-01  0.51100000000E-03 0.  1.
</event>
<event>
 8    1  0.1119901E+005  0.1043930E+01  0.7957747E-01            NaN
         13   -1    0    0    0    0  0.00000000000E+00  0.00000000000E+00  0.74505805969E-08  0.10566000000E+00  0.10566000000E+00 0. -1.
     999900   -1    0    0    0    0 -0.00000000000E+00 -0.00000000000E+00 -0.74505805969E-08  0.93827000000E+00  0.93827000000E+00 0. -1.
     999902    2    1    2    0    0  0.51959187876E-02  0.35091238163E-02 -0.23448459005E-01  0.10196577576E+01  0.10193688247E+01 0.  0.
     999903    2    3    3    0    0  0.64289413578E-01  0.10708740871E+00  0.30284407596E-01  0.12999055960E+00  0.19482259599E-01 0.  0.
         14    1    1    2    0    0 -0.51959187876E-02 -0.35091238163E-02  0.23448459005E-01  0.24272242412E-01  0.00000000000E+00 0. -1.
     999901    1    3    3    0    0 -0.59093494790E-01 -0.10357828489E+00 -0.53732866601E-01  0.88966719799E+00  0.88000000000E+00 0. -1.
        -11    1    4    4    0    0  0.53884796123E-01  0.73091536843E-01  0.23383565151E-01  0.93770977661E-01  0.51100000000E-03 0.  1.
         11    1    4    4    0    0  0.10404617455E-01  0.33995871864E-01  0.69008424455E-02  0.36219581936E-01  0.51100000000E-03 0. -1.
</event>
<event>
 8    1  0.1119901E+005  0.1043930E+01  0.7957747E-01            NaN
         13   -1    0    0    0    0  0.00000000000E+00  0.00000000000E+00  0.74505805969E-08  0.10566000000E+00  0.10566000000E+00 0. -1.
     999900   -1    0    0    0    0 -0.00000000000E+00 -0.00000000000E+00 -0.74505805969E-08  0.93827000000E+00  0.93827000000E+00 0. -1.
     999902    2    1    2    0    0  0.16783816080E-01 -0.13098463722E-01  0.22311638419E-02  0.10225233579E+01  0.10222992581E+01 0.  0.
     999903    2    3    3    0    0  0.11070449818E+00  0.43799983135E-01 -0.57465836596E-01  0.13369139423E+00  0.19928423753E-01 0.  0.
         14    1    1    2    0    0 -0.16783816080E-01  0.13098463722E-01 -0.22311638419E-02  0.21406642104E-01  0.00000000000E+00 0.  1.
     999901    1    3    3    0    0 -0.93920682104E-01 -0.56898446857E-01  0.59697000438E-01  0.88883196367E+00  0.88000000000E+00 0. -1.
        -11    1    4    4    0    0  0.80071412953E-01  0.25822907084E-01 -0.48273249544E-01  0.96999079610E-01  0.51100000000E-03 0. -1.
         11    1    4    4    0    0  0.30633085231E-01  0.17977076051E-01 -0.91925870521E-02  0.36692314615E-01  0.51100000000E-03 0.  1.
</event>
<event>
 8    1  0.1119901E+005  0.1043930E+01  0.7957747E-01            NaN
         13   -1    0    0    0    0  0.00000000000E+00  0.00000000000E+00  0.74505805969E-08  0.10566000000E+00  0.10566000000E+00 0. -1.
     999900   -1    0    0    0    0 -0.00000000000E+00 -0.00000000000E+00 -0.74505805969E-08  0.93827000000E+00  0.93827000000E+00 0.  1.
     999902    2    1    2    0    0  0.25645403120E-01 -0.63779474819E-02 -0.49370833328E-02  0.10170461813E+01  0.10166908061E+01 0.  0.
     999903    2    3    3    0    0 -0.65510673716E-01 -0.68271247316E-01  0.80801952528E-01  0.12604034902E+00  0.20114732624E-01 0.  0.
         14    1    1    2    0    0 -0.25645403120E-01  0.63779474819E-02  0.49370833328E-02  0.26883818686E-01  0.00000000000E+00 0.  1.
     999901    1    3    3    0    0  0.91156076836E-01  0.61893299834E-01 -0.85739035861E-01  0.89100583229E+00  0.88000000000E+00 0. -1.
        -11    1    4    4    0    0 -0.33565146393E-01 -0.23411002722E-01  0.42190473176E-01  0.58779173596E-01  0.51100000000E-03 0.  1.
         11    1    4    4    0    0 -0.31945527323E-01 -0.44860244593E-01  0.38611479352E-01  0.67261175426E-01  0.51100000000E-03 0. -1.
</event>
<event>
 8    1  0.1119901E+005  0.1043930E+01  0.7957747E-01            NaN
         13   -1    0    0    0    0  0.00000000000E+00  0.00000000000E+00  0.74505805969E-08  0.10566000000E+00  0.10566000000E+00 0. -1.
     999900   -1    0    0    0    0 -0.00000000000E+00 -0.00000000000E+00 -0.74505805969E-08  0.93827000000E+00  0.93827000000E+00 0.  1.
     999902    2    1    2    0    0  0.51567347791E-02 -0.41940314821E-02 -0.22782214499E-01  0.10201979307E+01  0.10199218631E+01 0.  0.
     999903    2    3    3    0    0  0.47746389348E-02 -0.11585585347E+00  0.55002357740E-01  0.12973796636E+00  0.19008014048E-01 0.  0.
         14    1    1    2    0    0 -0.51567347791E-02  0.41940314821E-02  0.22782214499E-01  0.23732069255E-01  0.00000000000E+00 0. -1.
     999901    1    3    3    0    0  0.38209584429E-03  0.11166182199E+00 -0.77784572239E-01  0.89045996438E+00  0.88000000000E+00 0.  1.
        -11    1    4    4    0    0  0.26439833487E-02 -0.25388747483E-01  0.39442718730E-02  0.25834038560E-01  0.51100000000E-03 0.  1.
         11    1    4    4    0    0  0.21306555861E-02 -0.90467105990E-01  0.51058085867E-01  0.10390392780E+00  0.51100000000E-03 0. -1.
</event>
<event>
 8    1  0.1119901E+005  0.1043930E+01  0.7957747E-01            NaN
         13   -1    0    0    0    0  0.00000000000E+00  0.00000000000E+00  0.74505805969E-08  0.10566000000E+00  0.10566000000E+00 0. -1.
     999900   -1    0    0    0    0 -0.00000000000E+00 -0.00000000000E+00 -0.74505805969E-08  0.93827000000E+00  0.93827000000E+00 0. -1.
     999902    2    1    2    0    0  0.35834992428E-03 -0.95245744431E-03 -0.23814428128E-01  0.10200938389E+01  0.10198153154E+01 0.  0.
     999903    2    3    3    0    0  0.21848106283E-01  0.12537301814E+00  0.16850788450E-01  0.12988397865E+00  0.19752605253E-01 0.  0.
         14    1    1    2    0    0 -0.35834992428E-03  0.95245744431E-03  0.23814428128E-01  0.23836161119E-01  0.00000000000E+00 0. -1.
     999901    1    3    3    0    0 -0.21489756359E-01 -0.12632547558E+00 -0.40665216578E-01  0.89020986023E+00  0.88000000000E+00 0. -1.
        -11    1    4    4    0    0  0.30986023575E-02  0.71996511795E-01  0.12497800912E-01  0.73140653510E-01  0.51100000000E-03 0.  1.
         11    1    4    4    0    0  0.18749503926E-01  0.53376506342E-01  0.43529875381E-02  0.56743325142E-01  0.51100000000E-03 0. -1.
</event>
<event>
 8    1  0.1119901E+005  0.1043930E+01  0.7957747E-01            NaN
         13   -1    0    0    0    0  0.00000000000E+00  0.00000000000E+00  0.74505805969E-08  0.10566000000E+00  0.10566000000E+00 0.  1.
     999900   -1    0    0    0    0 -0.00000000000E+00 -0.00000000000E+00 -0.74505805969E-08  0.93827000000E+00  0.93827000000E+00 0.  1.
     999902    2    1    2    0    0  0.13943843039E-01  0.94356006544E-02  0.18706093145E-01  0.10187629732E+01  0.10184520687E+01 0.  0.
     999903    2    3    3    0    0  0.12145552349E+00  0.45207372859E-01 -0.38913924728E-02  0.13121070571E+00  0.20148340188E-01 0.  0.
         14    1    1    2    0    0 -0.13943843039E-01 -0.94356006544E-02 -0.18706093145E-01  0.25167026824E-01  0.00000000000E+00 0. -1.
     999901    1    3    3    0    0 -0.10751168045E+00 -0.35771772205E-01  0.22597485618E-01  0.88755226746E+00  0.88000000000E+00 0. -1.
        -11    1    4    4    0    0  0.18914426534E-01  0.13500447677E-01  0.40120464788E-02  0.23587608114E-01  0.51100000000E-03 0.  1.
         11    1    4    4    0    0  0.10254109695E+00  0.31706925182E-01 -0.79034389516E-02  0.10762309760E+00  0.51100000000E-03 0. -1.
</event>
<event>
 8    1  0.1119901E+005  0.1043930E+01  0.7957747E-01            NaN
         13   -1    0    0    0    0  0.00000000000E+00  0.00000000000E+00  0.74505805969E-08  0.10566000000E+00  0.10566000000E+00 0.  1.
     999900   -1    0    0    0    0 -0.00000000000E+00 -0.00000000000E+00 -0.74505805969E-08  0.93827000000E+00  0.93827000000E+00 0. -1.
     999902    2    1    2    0    0  0.62989692426E-02  0.19784560298E-01  0.13025785539E-01  0.10194192487E+01  0.10191245398E+01 0.  0.
     999903    2    3    3    0    0 -0.58184546579E-01  0.55276613868E-01  0.10272762113E+00  0.13180208519E+00  0.19439136182E-01 0.  0.
         14    1    1    2    0    0 -0.62989692426E-02 -0.19784560298E-01 -0.13025785539E-01  0.24510751287E-01  0.00000000000E+00 0. -1.
     999901    1    3    3    0    0  0.64483515822E-01 -0.35492053569E-01 -0.89701835590E-01  0.88761716353E+00  0.88000000000E+00 0. -1.
        -11    1    4    4    0    0 -0.36338166642E-01  0.22265849998E-01  0.47034822300E-01  0.63472561480E-01  0.51100000000E-03 0. -1.
         11    1    4    4    0    0 -0.21846379937E-01  0.33010763869E-01  0.55692798829E-01  0.68329523707E-01  0.51100000000E-03 0.  1.
</event>
<event>
 8    1  0.1119901E+005  0.1043930E+01  0.7957747E-01            NaN
         13   -1    0    0    0    0  0.00000000000E+00  0.00000000000E+00  0.74505805969E-08  0.10566000000E+00  0.10566000000E+00 0.  1.
     999900   -1    0    0    0    0 -0.00000000000E+00 -0.00000000000E+00 -0.74505805969E-08  0.93827000000E+00  0.93827000000E+00 0. -1.
     999902    2    1    2    0    0  0.96798858931E-02  0.20653373632E-02  0.21445947516E-01  0.10203102101E+01  0.10200367789E+01 0.  0.
     999903    2    3    3    0    0 -0.84730431964E-01 -0.89283451247E-01  0.38063182434E-01  0.13040344995E+00  0.20136363465E-01 0.  0.
         14    1    1    2    0    0 -0.96798858931E-02 -0.20653373632E-02 -0.21445947516E-01  0.23619789884E-01  0.00000000000E+00 0. -1.
     999901    1    3    3    0    0  0.94410317857E-01  0.91348788611E-01 -0.16617234919E-01  0.88990676017E+00  0.88000000000E+00 0.  1.
        -11    1    4    4    0    0 -0.46582558180E-01 -0.58011949599E-01  0.30872098129E-01  0.80552272387E-01  0.51100000000E-03 0. -1.
         11    1    4    4    0    0 -0.38147873784E-01 -0.31271501648E-01  0.71910843051E-02  0.49851177559E-01  0.51100000000E-03 0.  1.
</event>
<event>
 8    1  0.1119901E+005  0.1043930E+01  0.7957747E-01            NaN
         13   -1    0    0    0    0  0.00000000000E+00  0.00000000000E+00  0.74505805969E-08  0.10566000000E+00  0.10566000000E+00 0. -1.
     999900   -1    0    0    0    0 -0.00000000000E+00 -0.00000000000E+00 -0.74505805969E-08  0.93827000000E+00  0.93827000000E+00 0.  1.
     999902    2    1    2    0    0 -0.23702256600E-01 -0.25678692686E-02  0.41277317061E-02  0.10197343580E+01  0.10194472678E+01 0.  0.
     999903    2    3    3    0    0 -0.10562164226E+00 -0.61301826015E-01 -0.47863713990E-01  0.13245561163E+00  0.18431189543E-01 0.  0.
         14    1    1    2    0    0  0.23702256600E-01  0.25678692686E-02 -0.41277317061E-02  0.24195641954E-01  0.00000000000E+00 0.  1.
     999901    1    3    3    0    0  0.81919385660E-01  0.58733956747E-01  0.51991445696E-01  0.88727874642E+00  0.88000000000E+00 0.  1.
        -11    1    4    4    0    0 -0.46782521698E-01 -0.30189623741E-01 -0.31262426809E-01  0.63856230463E-01  0.51100000000E-03 0. -1.
         11    1    4    4    0    0 -0.58839120563E-01 -0.31112202275E-01 -0.16601287181E-01  0.68599381163E-01  0.51100000000E-03 0.  1.
</event>
<event>
 8    1  0.1119901E+005  0.1043930E+01  0.7957747E-01            NaN
         13   -1    0    0    0    0  0.00000000000E+00  0.00000000000E+00  0.74505805969E-08  0.10566000000E+00  0.10566000000E+00 0. -1.
     999900   -1    0    0    0    0 -0.00000000000E+00 -0.00000000000E+00 -0.74505805969E-08  0.93827000000E+00  0.93827000000E+00 0.  1.
     999902    2    1    2    0    0  0.14282317555E-01 -0.18320709614E-01  0.48281198448E-02  0.10202035646E+01  0.10199276295E+01 0.  0.
     999903    2    3    3    0    0  0.42034374525E-01  0.45508985697E-01  0.11337011554E+00  0.13080726851E+00  0.20489069683E-01 0.  0.
         14    1    1    2    0    0 -0.14282317555E-01  0.18320709614E-01 -0.48281198448E-02  0.23726435399E-01  0.00000000000E+00 0. -1.
     999901    1    3    3    0    0 -0.27752056970E-01 -0.63829695311E-01 -0.10854199570E+00  0.88939629609E+00  0.88000000000E+00 0. -1.
        -11    1    4    4    0    0  0.17690150289E-02 -0.12700273630E-03  0.15129069205E-01  0.15241240103E-01  0.51100000000E-03 0.  1.
         11    1    4    4    0    0  0.40265359496E-01  0.45635988433E-01  0.98241046336E-01  0.11556602841E+00  0.51100000000E-03 0. -1.
</event>
<event>
 8    1  0.1119901E+005  0.1043930E+01  0.7957747E-01            NaN
         13   -1    0    0    0    0  0.00000000000E+00  0.00000000000E+00  0.74505805969E-08  0.10566000000E+00  0.10566000000E+00 0.  1.
     999900   -1    0    0    0    0 -0.00000000000E+00 -0.00000000000E+00 -0.74505805969E-08  0.93827000000E+00  0.93827000000E+00 0. -1.
     999902    2    1    2    0    0  0.54224142400E-02  0.19734731159E-01  0.11763285054E-01  0.10203241307E+01  0.10200510255E+01 0.  0.
     999903    2    3    3    0    0 -0.92366793018E-02 -0.89657826360E-01  0.90815140191E-01  0.12991365431E+00  0.22501684748E-01 0.  0.
         14    1    1    2    0    0 -0.54224142400E-02 -0.19734731159E-01 -0.11763285054E-01  0.23605869299E-01  0.00000000000E+00 0. -1.
     999901    1    3    3    0    0  0.14659093542E-01  0.10939255752E+00 -0.79051855137E-01  0.89041047639E+00  0.88000000000E+00 0. -1.
        -11    1    4    4    0    0 -0.10805437687E-01 -0.60680221334E-01  0.74232071992E-01  0.96485793659E-01  0.51100000000E-03 0.  1.
         11    1    4    4    0    0  0.15687583849E-02 -0.28977605026E-01  0.16583068199E-01  0.33427860653E-01  0.51100000000E-03 0. -1.
</event>
<event>
 8    1  0.1119901E+005  0.1043930E+01  0.7957747E-01            NaN
         13   -1    0    0    0    0  0.00000000000E+00  0.00000000000E+00  0.74505805969E-08  0.10566000000E+00  0.10566000000E+00 0.  1.
     999900   -1    0    0    0    0 -0.00000000000E+00 -0.00000000000E+00 -0.74505805969E-08  0.93827000000E+00  0.93827000000E+00 0. -1.
     999902    2    1    2    0    0  0.94086255116E-02 -0.16728202021E-01 -0.11415303835E-01  0.10215992110E+01  0.10213551213E+01 0.  0.
     999903    2    3    3    0    0 -0.75137483139E-01 -0.41186420715E-02 -0.10699135945E+00  0.13230633014E+00  0.19879874575E-01 0.  0.
         14    1    1    2    0    0 -0.94086255116E-02  0.16728202021E-01  0.11415303835E-01  0.22330789026E-01  0.00000000000E+00 0.  1.
     999901    1    3    3    0    0  0.84546108650E-01 -0.12609559950E-01  0.95576055619E-01  0.88929288083E+00  0.88000000000E+00 0.  1.
        -11    1    4    4    0    0 -0.94937204448E-02  0.19744020691E-02 -0.26730679083E-01  0.28439748885E-01  0.51100000000E-03 0. -1.
         11    1    4    4    0    0 -0.65643762694E-01 -0.60930441407E-02 -0.80260680370E-01  0.10386658126E+00  0.51100000000E-03 0.  1.
</event>
<event>
 8    1  0.1119901E+005  0.1043930E+01  0.7957747E-01            NaN
         13   -1    0    0    0    0  0.00000000000E+00  0.00000000000E+00  0.74505805969E-08  0.10566000000E+00  0.10566000000E+00 0. -1.
     999900   -1    0    0    0    0 -0.00000000000E+00 -0.00000000000E+00 -0.74505805969E-08  0.93827000000E+00  0.93827000000E+00 0.  1.
     999902    2    1    2    0    0  0.21994640657E-01 -0.79525510293E-02 -0.59116409945E-02  0.10198062610E+01  0.10195208949E+01 0.  0.
     999903    2    3    3    0    0  0.97686483512E-01 -0.72516159668E-01  0.48587850625E-01  0.13252507148E+00  0.20021809829E-01 0.  0.
         14    1    1    2    0    0 -0.21994640657E-01  0.79525510293E-02  0.59116409945E-02  0.24123739029E-01  0.00000000000E+00 0.  1.
     999901    1    3    3    0    0 -0.75691842854E-01  0.64563608639E-01 -0.54499491619E-01  0.88728118949E+00  0.88000000000E+00 0.  1.
        -11    1    4    4    0    0  0.43500650551E-01 -0.23507780414E-01  0.12342812995E-01  0.50965954244E-01  0.51100000000E-03 0. -1.
         11    1    4    4    0    0  0.54185832961E-01 -0.49008379254E-01  0.36245037629E-01  0.81559117237E-01  0.51100000000E-03 0.  1.
</event>
<event>
 8    1  0.1119901E+005  0.1043930E+01  0.7957747E-01            NaN
         13   -1    0    0    0    0  0.00000000000E+00  0.00000000000E+00  0.74505805969E-08  0.10566000000E+00  0.10566000000E+00 0. -1.
     999900   -1    0    0    0    0 -0.00000000000E+00 -0.00000000000E+00 -0.74505805969E-08  0.93827000000E+00  0.93827000000E+00 0. -1.
     999902    2    1    2    0    0  0.10641803471E-01 -0.16609443526E-01 -0.10255153992E-01  0.10216973713E+01  0.10214554463E+01 0.  0.
     999903    2    3    3    0    0 -0.12597630186E+00  0.71257271995E-03 -0.29048095613E-01  0.13078899577E+00  0.19784669956E-01 0.  0.
         14    1    1    2    0    0 -0.10641803471E-01  0.16609443526E-01  0.10255153992E-01  0.22232628696E-01  0.00000000000E+00 0. -1.
     999901    1    3    3    0    0  0.13661810533E+00 -0.17322016246E-01  0.18792941621E-01  0.89090837554E+00  0.88000000000E+00 0.  1.
        -11    1    4    4    0    0 -0.19302675730E-01 -0.73673490498E-03 -0.12011857958E-01  0.22752624491E-01  0.51100000000E-03 0.  1.
         11    1    4    4    0    0 -0.10667362613E+00  0.14493076249E-02 -0.17036237655E-01  0.10803637127E+00  0.51100000000E-03 0. -1.
</event>
<event>
 8    1  0.1119901E+005  0.1043930E+01  0.7957747E-01            NaN
         13   -1    0    0    0    0  0.00000000000E+00  0.00000000000E+00  0.74505805969E-08  0.10566000000E+00  0.10566000000E+00 0. -1.
     999900   -1    0    0    0    0 -0.00000000000E+00 -0.00000000000E+00 -0.74505805969E-08  0.93827000000E+00  0.93827000000E+00 0.  1.
     999902    2    1    2    0    0  0.20632754448E-01 -0.48990661746E-02 -0.11690006445E-01  0.10197149704E+01  0.10194274144E+01 0.  0.
     999903    2    3    3    0    0 -0.41560512289E-01 -0.90380250696E-01 -0.82094925692E-01  0.13059636869E+00  0.20493140164E-01 0.  0.
         14    1    1    2    0    0 -0.20632754448E-01  0.48990661746E-02  0.11690006445E-01  0.24215029551E-01  0.00000000000E+00 0.  1.
     999901    1    3    3    0    0  0.62193266737E-01  0.85481184521E-01  0.70404919246E-01  0.88911860176E+00  0.88000000000E+00 0. -1.
        -11    1    4    4    0    0 -0.26506838354E-01 -0.33596862013E-01 -0.33252036214E-01  0.54197053887E-01  0.51100000000E-03 0. -1.
         11    1    4    4    0    0 -0.15053673935E-01 -0.56783388683E-01 -0.48842889477E-01  0.76399314805E-01  0.51100000000E-03 0.  1.
</event>
<event>
 8    1  0.1119901E+005  0.1043930E+01  0.7957747E-01            NaN
         13   -1    0    0    0    0  0.00000000000E+00  0.00000000000E+00  0.74505805969E-08  0.10566000000E+00  0.10566000000E+00 0. -1.
     999900   -1    0    0    0    0 -0.00000000000E+00 -0.00000000000E+00 -0.74505805969E-08  0.93827000000E+00  0.93827000000E+00 0. -1.
     999902    2    1    2    0    0  0.54717016065E-02 -0.22721746337E-01 -0.86011470896E-02  0.10190262451E+01  0.10187218910E+01 0.  0.
     999903    2    3    3    0    0 -0.53729062247E-01  0.11047624989E+00 -0.24687295474E-01  0.12689105313E+00  0.20001572124E-01 0.  0.
         14    1    1    2    0    0 -0.54717016065E-02  0.22721746337E-01  0.86011470896E-02  0.24903754864E-01  0.00000000000E+00 0. -1.
     999901    1    3    3    0    0  0.59200763853E-01 -0.13319799623E+00  0.16086148384E-01  0.89213519200E+00  0.88000000000E+00 0. -1.
        -11    1    4    4    0    0 -0.36477230517E-01  0.63987247988E-01 -0.60098321138E-02  0.73900848806E-01  0.51100000000E-03 0.  1.
         11    1    4    4    0    0 -0.17251831729E-01  0.46489001904E-01 -0.18677463360E-01  0.52990204327E-01  0.51100000000E-03 0. -1.
</event>
<event>
 8    1  0.1119901E+005  0.1043930E+01  0.7957747E-01            NaN
         13   -1    0    0    0    0  0.00000000000E+00  0.00000000000E+00  0.74505805969E-08  0.10566000000E+00  0.10566000000E+00 0. -1.
     999900   -1    0    0    0    0 -0.00000000000E+00 -0.00000000000E+00 -0.74505805969E-08  0.93827000000E+00  0.93827000000E+00 0. -1.
     999902    2    1    2    0    0  0.30403186312E-03  0.38157232620E-02 -0.25512999619E-01  0.10181314472E+01  0.10178045384E+01 0.  0.
     999903    2    3    3    0    0 -0.65422563571E-01  0.15865717168E-01 -0.11113096997E+00  0.13145471658E+00  0.19960391227E-01 0.  0.
         14    1    1    2    0    0 -0.30403186312E-03 -0.38157232620E-02  0.25512999619E-01  0.25798552846E-01  0.00000000000E+00 0. -1.
     999901    1    3    3    0    0  0.65726595434E-01 -0.12049993906E-01  0.85617970353E-01  0.88667673058E+00  0.88000000000E+00 0.  1.
        -11    1    4    4    0    0 -0.45263921618E-01  0.79056132000E-02 -0.57487783063E-01  0.73596383354E-01  0.51100000000E-03 0.  1.
         11    1    4    4    0    0 -0.20158641953E-01  0.79601039676E-02 -0.53643186909E-01  0.57858333223E-01  0.51100000000E-03 0. -1.
</event>
<event>
 8    1  0.1119901E+005  0.1043930E+01  0.7957747E-01            NaN
         13   -1    0    0    0    0  0.00000000000E+00  0.00000000000E+00  0.74505805969E-08  0.10566000000E+00  0.10566000000E+00 0.  1.
     999900   -1    0    0    0    0 -0.00000000000E+00 -0.00000000000E+00 -0.74505805969E-08  0.93827000000E+00  0.93827000000E+00 0.  1.
     999902    2    1    2    0    0 -0.33790904892E-02  0.22800470714E-01  0.70503830771E-02  0.10198263152E+01  0.10195414291E+01 0.  0.
     999903    2    3    3    0    0  0.51141261533E-01  0.84156487040E-01  0.86331175324E-01  0.13245803006E+00  0.19857365218E-01 0.  0.
         14    1    1    2    0    0  0.33790904892E-02 -0.22800470714E-01 -0.70503830771E-02  0.24103684757E-01  0.00000000000E+00 0. -1.
     999901    1    3    3    0    0 -0.54520352022E-01 -0.61356016327E-01 -0.79280792246E-01  0.88736828518E+00  0.88000000000E+00 0. -1.
        -11    1    4    4    0    0  0.31569871296E-01  0.37868132728E-01  0.33931514288E-01  0.59851992722E-01  0.51100000000E-03 0.  1.
         11    1    4    4    0    0  0.19571390237E-01  0.46288354312E-01  0.52399661036E-01  0.72606037341E-01  0.51100000000E-03 0. -1.
</event>
<event>
 8    1  0.1119901E+005  0.1043930E+01  0.7957747E-01            NaN
         13   -1    0    0    0    0  0.00000000000E+00  0.00000000000E+00  0.74505805969E-08  0.10566000000E+00  0.10566000000E+00 0.  1.
     999900   -1    0    0    0    0 -0.00000000000E+00 -0.00000000000E+00 -0.74505805969E-08  0.93827000000E+00  0.93827000000E+00 0.  1.
     999902    2    1    2    0    0  0.42131001563E-02 -0.15192200718E-03 -0.23393247993E-01  0.10201599065E+01  0.10198829430E+01 0.  0.
     999903    2    3    3    0    0 -0.10433419889E-01 -0.78488220843E-01  0.98804390805E-01  0.12814905500E+00  0.19763997420E-01 0.  0.
         14    1    1    2    0    0 -0.42131001563E-02  0.15192200718E-03  0.23393247993E-01  0.23770093498E-01  0.00000000000E+00 0.  1.
     999901    1    3    3    0    0  0.14646520045E-01  0.78336298836E-01 -0.12219763880E+00  0.89201085150E+00  0.88000000000E+00 0.  1.
        -11    1    4    4    0    0 -0.21778993806E-02 -0.65659797963E-01  0.86018599197E-01  0.10823776071E+00  0.51100000000E-03 0.  1.
         11    1    4    4    0    0 -0.82555205079E-02 -0.12828422880E-01  0.12785791608E-01  0.19911294295E-01  0.51100000000E-03 0. -1.
</event>
<event>
 8    1  0.1119901E+005  0.1043930E+01  0.7957747E-01            NaN
         13   -1    0    0    0    0  0.00000000000E+00  0.00000000000E+00  0.74505805969E-08  0.10566000000E+00  0.10566000000E+00 0.  1.
     999900   -1    0    0    0    0 -0.00000000000E+00 -0.00000000000E+00 -0.74505805969E-08  0.93827000000E+00  0.93827000000E+00 0. -1.
     999902    2    1    2    0    0  0.18905948589E-01  0.11327039429E-01  0.33635680091E-02  0.10216353750E+01  0.10213920839E+01 0.  0.
     999903    2    3    3    0    0  0.34912375422E-01 -0.90247317125E-01 -0.85626537000E-01  0.13119009627E+00  0.22704301705E-01 0.  0.
         14    1    1    2    0    0 -0.18905948589E-01 -0.11327039429E-01 -0.33635680091E-02  0.22294625004E-01  0.00000000000E+00 0.  1.
     999901    1    3    3    0    0 -0.16006426833E-01  0.10157435655E+00  0.88990105009E-01  0.89044527872E+00  0.88000000000E+00 0.  1.
        -11    1    4    4    0    0  0.30196836101E-01 -0.67703715915E-01 -0.76159777198E-01  0.10628365276E+00  0.51100000000E-03 0. -1.
         11    1    4    4    0    0  0.47155393216E-02 -0.22543601210E-01 -0.94667598023E-02  0.24906443519E-01  0.51100000000E-03 0.  1.
</event>
<event>
 8    1  0.1119901E+005  0.1043930E+01  0.7957747E-01            NaN
         13   -1    0    0    0    0  0.00000000000E+00  0.00000000000E+00  0.74505805969E-08  0.10566000000E+00  0.10566000000E+00 0. -1.
     999900   -1    0    0    0    0 -0.00000000000E+00 -0.00000000000E+00 -0.74505805969E-08  0.93827000000E+00  0.93827000000E+00 0. -1.
     999902    2    1    2    0    0 -0.10281705938E-01  0.20693435824E-01 -0.76351824228E-02  0.10195942696E+01  0.10193038050E+01 0.  0.
     999903    2    3    3    0    0 -0.74021080932E-01  0.10845320184E+00 -0.52350327988E-02  0.13293185066E+00  0.20056269346E-01 0.  0.
         14    1    1    2    0    0  0.10281705938E-01 -0.20693435824E-01  0.76351824228E-02  0.24335730394E-01  0.00000000000E+00 0. -1.
     999901    1    3    3    0    0  0.63739374995E-01 -0.87759766013E-01 -0.24001496241E-02  0.88666241895E+00  0.88000000000E+00 0. -1.
        -11    1    4    4    0    0 -0.30906600315E-01  0.59107830404E-01  0.36539363173E-02  0.66802439550E-01  0.51100000000E-03 0.  1.
         11    1    4    4    0    0 -0.43114480617E-01  0.49345371432E-01 -0.88889691161E-02  0.66129411109E-01  0.51100000000E-03 0. -1.
</event>
<event>
 8    1  0.1119901E+005  0.1043930E+01  0.7957747E-01            NaN
         13   -1    0    0    0    0  0.00000000000E+00  0.00000000000E+00  0.74505805969E-08  0.10566000000E+00  0.10566000000E+00 0. -1.
     999900   -1    0    0    0    0 -0.00000000000E+00 -0.00000000000E+00 -0.74505805969E-08  0.93827000000E+00  0.93827000000E+00 0. -1.
     999902    2    1    2    0    0 -0.13705708057E-01 -0.11821442074E-01  0.15484832416E-01  0.10201104080E+01  0.10198322762E+01 0.  0.
     999903    2    3    3    0    0 -0.59816561119E-01  0.56968399094E-01  0.10096358853E+00  0.13209865656E+00  0.20808396784E-01 0.  0.
         14    1    1    2    0    0  0.13705708057E-01  0.11821442074E-01 -0.15484832416E-01  0.23819591958E-01  0.00000000000E+00 0.  1.
     999901    1    3    3    0    0  0.46110853062E-01 -0.68789841169E-01 -0.85478756117E-01  0.88801175148E+00  0.88000000000E+00 0. -1.
        -11    1    4    4    0    0 -0.44029015719E-01  0.43797575783E-01  0.88275246392E-01  0.10793313725E+00  0.51100000000E-03 0. -1.
         11    1    4    4    0    0 -0.15787545400E-01  0.13170823312E-01  0.12688342141E-01  0.24165519315E-01  0.51100000000E-03 0.  1.
</event>
<event>
 8    1  0.1183699E+005  0.1043930E+01  0.7957747E-01            NaN
         13   -1    0    0    0    0  0.00000000000E+00  0.00000000000E+00  0.74505805969E-08  0.10566000000E+00  0.10566000000E+00 0.  1.
     999900   -1    0    0    0    0 -0.00000000000E+00 -0.00000000000E+00 -0.74505805969E-08  0.93827000000E+00  0.93827000000E+00 0.  1.
     999902    2    1    2    0    0  0.21213118871E-01 -0.57524386602E-02  0.10150762735E-01  0.10197199825E+01  0.10194325470E+01 0.  0.
     999903    2    3    3    0    0 -0.12406631039E+00  0.14056477622E-01  0.17320491065E-01  0.12755973304E+00  0.19530799920E-01 0.  0.
         14    1    1    2    0    0 -0.21213118871E-01  0.57524386602E-02 -0.10150762735E-01  0.24210017490E-01  0.00000000000E+00 0. -1.
     999901    1    3    3    0    0  0.14527942926E+00 -0.19808916283E-01 -0.71697283301E-02  0.89216024947E+00  0.88000000000E+00 0. -1.
        -11    1    4    4    0    0 -0.52203740959E-01  0.15350941586E-01  0.97934464185E-02  0.55290638371E-01  0.51100000000E-03 0.  1.
         11    1    4    4    0    0 -0.71862569431E-01 -0.12944639633E-02  0.75270446463E-02  0.72269094669E-01  0.51100000000E-03 0. -1.
</event>
<event>
 8    1  0.1119901E+005  0.1043930E+01  0.7957747E-01            NaN
         13   -1    0    0    0    0  0.00000000000E+00  0.00000000000E+00  0.74505805969E-08  0.10566000000E+00  0.10566000000E+00 0.  1.
     999900   -1    0    0    0    0 -0.00000000000E+00 -0.00000000000E+00 -0.74505805969E-08  0.93827000000E+00  0.93827000000E+00 0. -1.
     999902    2    1    2    0    0 -0.18629701914E-01  0.99417600592E-02  0.11082660974E-01  0.10200819443E+01  0.10198031395E+01 0.  0.
     999903    2    3    3    0    0  0.67087918113E-01 -0.26381889438E-01  0.10647794097E+00  0.13004420502E+00  0.19420362969E-01 0.  0.
         14    1    1    2    0    0  0.18629701914E-01 -0.99417600592E-02 -0.11082660974E-01  0.23848055702E-01  0.00000000000E+00 0. -1.
     999901    1    3    3    0    0 -0.85717620028E-01  0.36323649498E-01 -0.95395280000E-01  0.89003773928E+00  0.88000000000E+00 0. -1.
        -11    1    4    4    0    0  0.32690505578E-01 -0.17025105481E-01  0.69553787774E-01  0.78717938783E-01  0.51100000000E-03 0. -1.
         11    1    4    4    0    0  0.34397412535E-01 -0.93567839571E-02  0.36924153200E-01  0.51326266235E-01  0.51100000000E-03 0.  1.
</event>
<event>
 8    1  0.1119901E+005  0.1043930E+01  0.7957747E-01            NaN
         13   -1    0    0    0    0  0.00000000000E+00  0.00000000000E+00  0.74505805969E-08  0.10566000000E+00  0.10566000000E+00 0. -1.
     999900   -1    0    0    0    0 -0.00000000000E+00 -0.00000000000E+00 -0.74505805969E-08  0.93827000000E+00  0.93827000000E+00 0. -1.
     999902    2    1    2    0    0 -0.56800560965E-02 -0.22900538708E-01  0.27052073592E-03  0.10203340069E+01  0.10200611328E+01 0.  0.
     999903    2    3    3    0    0  0.74622926132E-01  0.45055744285E-01  0.93250272224E-01  0.12920446548E+00  0.19989483038E-01 0.  0.
         14    1    1    2    0    0  0.56800560965E-02  0.22900538708E-01 -0.27052073592E-03  0.23595993131E-01  0.00000000000E+00 0.  1.
     999901    1    3    3    0    0 -0.80302982228E-01 -0.67956282993E-01 -0.92979751488E-01  0.89112954139E+00  0.88000000000E+00 0. -1.
        -11    1    4    4    0    0  0.33749095059E-01  0.21164141244E-01  0.28472829977E-01  0.48968208664E-01  0.51100000000E-03 0. -1.
         11    1    4    4    0    0  0.40873831073E-01  0.23891603041E-01  0.64777442247E-01  0.80236256814E-01  0.51100000000E-03 0.  1.
</event>
<event>
 8    1  0.1119901E+005  0.1043930E+01  0.7957747E-01            NaN
         13   -1    0    0    0    0  0.00000000000E+00  0.00000000000E+00  0.74505805969E-08  0.10566000000E+00  0.10566000000E+00 0.  1.
     999900   -1    0    0    0    0 -0.00000000000E+00 -0.00000000000E+00 -0.74505805969E-08  0.93827000000E+00  0.93827000000E+00 0. -1.
     999902    2    1    2    0    0  0.27382981307E-02 -0.27038898128E-02 -0.23053693973E-01  0.10205573215E+01  0.10202896472E+01 0.  0.
     999903    2    3    3    0    0  0.10923560517E+00  0.37554931533E-01 -0.61390615320E-01  0.13239507915E+00  0.20417125574E-01 0.  0.
         14    1    1    2    0    0 -0.27382981307E-02  0.27038898128E-02  0.23053693973E-01  0.23372678549E-01  0.00000000000E+00 0.  1.
     999901    1    3    3    0    0 -0.10649730703E+00 -0.40258821346E-01  0.38336921348E-01  0.88816224230E+00  0.88000000000E+00 0.  1.
        -11    1    4    4    0    0  0.82342575237E-01  0.30332353243E-01 -0.36495503388E-01  0.95039645614E-01  0.51100000000E-03 0. -1.
         11    1    4    4    0    0  0.26893029928E-01  0.72225782900E-02 -0.24895111932E-01  0.37355433541E-01  0.51100000000E-03 0.  1.
</event>
<event>
 8    1  0.1119901E+005  0.1043930E+01  0.7957747E-01            NaN
         13   -1    0    0    0    0  0.00000000000E+00  0.00000000000E+00  0.74505805969E-08  0.10566000000E+00  0.10566000000E+00 0.  1.
     999900   -1    0    0    0    0 -0.00000000000E+00 -0.00000000000E+00 -0.74505805969E-08  0.93827000000E+00  0.93827000000E+00 0. -1.
     999902    2    1    2    0    0 -0.25809656429E-02 -0.15698992986E-01 -0.19266352999E-01  0.10189437613E+01  0.10186373627E+01 0.  0.
     999903    2    3    3    0    0 -0.52722827900E-01 -0.55849702988E-01  0.10107417481E+00  0.12843372294E+00  0.19502473393E-01 0.  0.
         14    1    1    2    0    0  0.25809656429E-02  0.15698992986E-01  0.19266352999E-01  0.24986238659E-01  0.00000000000E+00 0.  1.
     999901    1    3    3    0    0  0.50141862257E-01  0.40150710001E-01 -0.12034052781E+00  0.89051003840E+00  0.88000000000E+00 0. -1.
        -11    1    4    4    0    0 -0.24853343341E-01 -0.27102670917E-01  0.64264015605E-01  0.74043016340E-01  0.51100000000E-03 0. -1.
         11    1    4    4    0    0 -0.27869484559E-01 -0.28747032071E-01  0.36810159205E-01  0.54390706597E-01  0.51100000000E-03 0.  1.
</event>
<event>
 8    1  0.1119901E+005  0.1043930E+01  0.7957747E-01            NaN
         13   -1    0    0    0    0  0.00000000000E+00  0.00000000000E+00  0.74505805969E-08  0.10566000000E+00  0.10566000000E+00 0. -1.
     999900   -1    0    0    0    0 -0.00000000000E+00 -0.00000000000E+00 -0.74505805969E-08  0.93827000000E+00  0.93827000000E+00 0. -1.
     999902    2    1    2    0    0 -0.85276526730E-02  0.21856321634E-01  0.16856470688E-02  0.10204084979E+01  0.10201373640E+01 0.  0.
     999903    2    3    3    0    0 -0.81312772700E-01 -0.34185865300E-01 -0.94115543389E-01  0.13045553930E+00  0.19505687262E-01 0.  0.
         14    1    1    2    0    0  0.85276526730E-02 -0.21856321634E-01 -0.16856470688E-02  0.23521502110E-01  0.00000000000E+00 0.  1.
     999901    1    3    3    0    0  0.72785120027E-01  0.56042186934E-01  0.95801190458E-01  0.88995295859E+00  0.88000000000E+00 0.  1.
        -11    1    4    4    0    0 -0.49677482510E-01 -0.29646335860E-01 -0.53764973638E-01  0.78979054247E-01  0.51100000000E-03 0.  1.
         11    1    4    4    0    0 -0.31635290190E-01 -0.45395294402E-02 -0.40350569751E-01  0.51476485051E-01  0.51100000000E-03 0. -1.
</event>
<event>
 8    1  0.1119901E+005  0.1043930E+01  0.7957747E-01            NaN
         13   -1    0    0    0    0  0.00000000000E+00  0.00000000000E+00  0.74505805969E-08  0.10566000000E+00  0.10566000000E+00 0. -1.
     999900   -1    0    0    0    0 -0.00000000000E+00 -0.00000000000E+00 -0.74505805969E-08  0.93827000000E+00  0.93827000000E+00 0. -1.
     999902    2    1    2    0    0 -0.38653021554E-02  0.16049363914E-01  0.18792192362E-01  0.10189166208E+01  0.10186095479E+01 0.  0.
     999903    2    3    3    0    0 -0.72070707186E-02  0.12682731000E+00 -0.24861039742E-01  0.13089155058E+00  0.19427256279E-01 0.  0.
         14    1    1    2    0    0  0.38653021554E-02 -0.16049363914E-01 -0.18792192362E-01  0.25013379151E-01  0.00000000000E+00 0.  1.
     999901    1    3    3    0    0  0.33417685631E-02 -0.11077794608E+00  0.43653232104E-01  0.88802507027E+00  0.88000000000E+00 0.  1.
        -11    1    4    4    0    0 -0.11011592849E-01  0.51013955900E-01 -0.50283008079E-02  0.52433041144E-01  0.51100000000E-03 0.  1.
         11    1    4    4    0    0  0.38045221303E-02  0.75813354097E-01 -0.19832738935E-01  0.78458509434E-01  0.51100000000E-03 0. -1.
</event>
<event>
 8    1  0.1119901E+005  0.1043930E+01  0.7957747E-01            NaN
         13   -1    0    0    0    0  0.00000000000E+00  0.00000000000E+00  0.74505805969E-08  0.10566000000E+00  0.10566000000E+00 0.  1.
     999900   -1    0    0    0    0 -0.00000000000E+00 -0.00000000000E+00 -0.74505805969E-08  0.93827000000E+00  0.93827000000E+00 0.  1.
     999902    2    1    2    0    0 -0.16150919718E-02 -0.20648898999E-01  0.78083565662E-02  0.10217950506E+01  0.10215552699E+01 0.  0.
     999903    2    3    3    0    0  0.10385704354E+00 -0.26551072596E-01 -0.73843640595E-01  0.13172412330E+00  0.20177126989E-01 0.  0.
         14    1    1    2    0    0  0.16150919718E-02  0.20648898999E-01 -0.78083565662E-02  0.22134949384E-01  0.00000000000E+00 0. -1.
     999901    1    3    3    0    0 -0.10547213551E+00  0.59021735971E-02  0.81651997161E-01  0.89007092732E+00  0.88000000000E+00 0.  1.
        -11    1    4    4    0    0  0.10512413923E-01 -0.33504482258E-02 -0.16138336550E-01  0.19556159577E-01  0.51100000000E-03 0.  1.
         11    1    4    4    0    0  0.93344629613E-01 -0.23200624370E-01 -0.57705304046E-01  0.11216796372E+00  0.51100000000E-03 0. -1.
</event>
<event>
 8    1  0.1173589E+005  0.1043930E+01  0.7957747E-01            NaN
         13   -1    0    0    0    0  0.00000000000E+00  0.00000000000E+00  0.74505805969E-08  0.10566000000E+00  0.10566000000E+00 0.  1.
     999900   -1    0    0    0    0 -0.00000000000E+00 -0.00000000000E+00 -0.74505805969E-08  0.93827000000E+00  0.93827000000E+00 0.  1.
     999902    2    1    2    0    0 -0.73663956666E-02 -0.54189977001E-02  0.21480444334E-01  0.10205839337E+01  0.10203168758E+01 0.  0.
     999903    2    3    3    0    0 -0.15590016639E-01  0.79696512779E-01 -0.97794815541E-01  0.12842987435E+00  0.18325498911E-01 0.  0.
         14    1    1    2    0    0  0.73663956666E-02  0.54189977001E-02 -0.21480444334E-01  0.23346066263E-01  0.00000000000E+00 0. -1.
     999901    1    3    3    0    0  0.82236209726E-02 -0.85115510480E-01  0.11927525987E+00  0.89215405939E+00  0.88000000000E+00 0. -1.
        -11    1    4    4    0    0 -0.18547491089E-01  0.49873319327E-01 -0.64921655578E-01  0.83943075298E-01  0.51100000000E-03 0.  1.
         11    1    4    4    0    0  0.29574744495E-02  0.29823193452E-01 -0.32873159962E-01  0.44486799050E-01  0.51100000000E-03 0. -1.
</event>
<event>
 8    1  0.1119901E+005  0.1043930E+01  0.7957747E-01            NaN
         13   -1    0    0    0    0  0.00000000000E+00  0.00000000000E+00  0.74505805969E-08  0.10566000000E+00  0.10566000000E+00 0.  1.
     999900   -1    0    0    0    0 -0.00000000000E+00 -0.00000000000E+00 -0.74505805969E-08  0.93827000000E+00  0.93827000000E+00 0. -1.
     999902    2    1    2    0    0  0.75979289770E-02 -0.90357111883E-02  0.20198523276E-01  0.10205344247E+01  0.10202662197E+01 0.  0.
     999903    2    3    3    0    0  0.10250250683E+00  0.38304098181E-01 -0.67171364720E-01  0.12987094516E+00  0.19506468528E-01 0.  0.
         14    1    1    2    0    0 -0.75979289770E-02  0.90357111883E-02 -0.20198523276E-01  0.23395575307E-01  0.00000000000E+00 0. -1.
     999901    1    3    3    0    0 -0.94904577852E-01 -0.47339809370E-01  0.87369887995E-01  0.89066347953E+00  0.88000000000E+00 0.  1.
        -11    1    4    4    0    0  0.40711917587E-01  0.12413213887E-01 -0.36977491093E-01  0.56383899131E-01  0.51100000000E-03 0. -1.
         11    1    4    4    0    0  0.61790589241E-01  0.25890884294E-01 -0.30193873627E-01  0.73487046028E-01  0.51100000000E-03 0.  1.
</event>
<event>
 8    1  0.1119901E+005  0.1043930E+01  0.7957747E-01            NaN
         13   -1    0    0    0    0  0.00000000000E+00  0.00000000000E+00  0.74505805969E-08  0.10566000000E+00  0.10566000000E+00 0.  1.
     999900   -1    0    0    0    0 -0.00000000000E+00 -0.00000000000E+00 -0.74505805969E-08  0.93827000000E+00  0.93827000000E+00 0.  1.
     999902    2    1    2    0    0 -0.13833482340E-02 -0.96312157980E-02  0.21861232685E-01  0.10200012001E+01  0.10197204817E+01 0.  0.
     999903    2    3    3    0    0  0.30946098245E-01 -0.12441229521E+00  0.25132753923E-01  0.13195244460E+00  0.18539474605E-01 0.  0.
         14    1    1    2    0    0  0.13833482340E-02  0.96312157980E-02 -0.21861232685E-01  0.23928799899E-01  0.00000000000E+00 0. -1.
     999901    1    3    3    0    0 -0.32329446479E-01  0.11478107941E+00 -0.32715212373E-02  0.88804875550E+00  0.88000000000E+00 0. -1.
        -11    1    4    4    0    0  0.27136131662E-01 -0.72760296784E-01  0.12739457244E-01  0.78695522882E-01  0.51100000000E-03 0. -1.
         11    1    4    4    0    0  0.38099665830E-02 -0.51651998428E-01  0.12393296678E-01  0.53256921715E-01  0.51100000000E-03 0.  1.
</event>
<event>
 8    1  0.1119901E+005  0.1043930E+01  0.7957747E-01            NaN
         13   -1    0    0    0    0  0.00000000000E+00  0.00000000000E+00  0.74505805969E-08  0.10566000000E+00  0.10566000000E+00 0.  1.
     999900   -1    0    0    0    0 -0.00000000000E+00 -0.00000000000E+00 -0.74505805969E-08  0.93827000000E+00  0.93827000000E+00 0. -1.
     999902    2    1    2    0    0 -0.25866992493E-03 -0.18106276047E-01  0.15238735061E-01  0.10202630782E+01  0.10199885418E+01 0.  0.
     999903    2    3    3    0    0 -0.46832914598E-01  0.58219805454E-02  0.12215262450E+00  0.13224714280E+00  0.18461466840E-01 0.  0.
         14    1    1    2    0    0  0.25866992493E-03  0.18106276047E-01 -0.15238735061E-01  0.23666921825E-01  0.00000000000E+00 0. -1.
     999901    1    3    3    0    0  0.46574244673E-01 -0.23928256592E-01 -0.10691388944E+00  0.88801593538E+00  0.88000000000E+00 0. -1.
        -11    1    4    4    0    0 -0.38728311118E-01  0.69384550847E-02  0.78254451946E-01  0.87590208422E-01  0.51100000000E-03 0. -1.
         11    1    4    4    0    0 -0.81046034793E-02 -0.11164745393E-02  0.43898172556E-01  0.44656934375E-01  0.51100000000E-03 0.  1.
</event>
<event>
 8    1  0.1119901E+005  0.1043930E+01  0.7957747E-01            NaN
         13   -1    0    0    0    0  0.00000000000E+00  0.00000000000E+00  0.74505805969E-08  0.10566000000E+00  0.10566000000E+00 0. -1.
     999900   -1    0    0    0    0 -0.00000000000E+00 -0.00000000000E+00 -0.74505805969E-08  0.93827000000E+00  0.93827000000E+00 0.  1.
     999902    2    1    2    0    0  0.24771747868E-02 -0.13488844512E-01 -0.15023829811E-01  0.10235879061E+01  0.10233857536E+01 0.  0.
     999903    2    3    3    0    0  0.12460175779E+00  0.11588328828E-01 -0.44702919719E-01  0.13430497770E+00  0.19483033505E-01 0.  0.
         14    1    1    2    0    0 -0.24771747868E-02  0.13488844512E-01  0.15023829811E-01  0.20342093879E-01  0.00000000000E+00 0. -1.
     999901    1    3    3    0    0 -0.12212458301E+00 -0.25077173340E-01  0.29679089907E-01  0.88928292842E+00  0.88000000000E+00 0.  1.
        -11    1    4    4    0    0  0.50400211999E-01  0.13643783428E-01 -0.22173036896E-01  0.56729523901E-01  0.51100000000E-03 0.  1.
         11    1    4    4    0    0  0.74201545793E-01 -0.20554545997E-02 -0.22529882823E-01  0.77575453803E-01  0.51100000000E-03 0. -1.
</event>
<event>
 8    1  0.1119901E+005  0.1043930E+01  0.7957747E-01            NaN
         13   -1    0    0    0    0  0.00000000000E+00  0.00000000000E+00  0.74505805969E-08  0.10566000000E+00  0.10566000000E+00 0.  1.
     999900   -1    0    0    0    0 -0.00000000000E+00 -0.00000000000E+00 -0.74505805969E-08  0.93827000000E+00  0.93827000000E+00 0.  1.
     999902    2    1    2    0    0  0.50961476651E-02 -0.23431572762E-01 -0.71379070369E-02  0.10189108266E+01  0.10186036096E+01 0.  0.
     999903    2    3    3    0    0  0.88110848859E-02  0.84392280014E-01 -0.93820769377E-01  0.12809451406E+00  0.20153799197E-01 0.  0.
         14    1    1    2    0    0 -0.50961476651E-02  0.23431572762E-01  0.71379070369E-02  0.25019173447E-01  0.00000000000E+00 0.  1.
     999901    1    3    3    0    0 -0.37149372209E-02 -0.10782385278E+00  0.86682862340E-01  0.89081631250E+00  0.88000000000E+00 0. -1.
        -11    1    4    4    0    0  0.76138407731E-02  0.34218765667E-01 -0.25650820856E-01  0.43440997072E-01  0.51100000000E-03 0.  1.
         11    1    4    4    0    0  0.11972441128E-02  0.50173514347E-01 -0.68169948521E-01  0.84653516984E-01  0.51100000000E-03 0. -1.
</event>
<event>
 8    1  0.1119901E+005  0.1043930E+01  0.7957747E-01            NaN
         13   -1    0    0    0    0  0.00000000000E+00  0.00000000000E+00  0.74505805969E-08  0.10566000000E+00  0.10566000000E+00 0.  1.
     999900   -1    0    0    0    0 -0.00000000000E+00 -0.00000000000E+00 -0.74505805969E-08  0.93827000000E+00  0.93827000000E+00 0. -1.
     999902    2    1    2    0    0  0.78829922349E-02  0.14835838403E-01 -0.16965085023E-01  0.10200541172E+01  0.10197746537E+01 0.  0.
     999903    2    3    3    0    0  0.38381340410E-01  0.40635371081E-01  0.11497981973E+00  0.12932114770E+00  0.19474075680E-01 0.  0.
         14    1    1    2    0    0 -0.78829922349E-02 -0.14835838403E-01  0.16965085023E-01  0.23875882759E-01  0.00000000000E+00 0.  1.
     999901    1    3    3    0    0 -0.30498348175E-01 -0.25799532678E-01 -0.13194490475E+00  0.89073296954E+00  0.88000000000E+00 0. -1.
        -11    1    4    4    0    0  0.71951474274E-02  0.14024241771E-01  0.50544722419E-01  0.52947895040E-01  0.51100000000E-03 0. -1.
         11    1    4    4    0    0  0.31186192983E-01  0.26611129310E-01  0.64435097312E-01  0.76373252665E-01  0.51100000000E-03 0.  1.
</event>
<event>
 8    1  0.1119901E+005  0.1043930E+01  0.7957747E-01            NaN
         13   -1    0    0    0    0  0.00000000000E+00  0.00000000000E+00  0.74505805969E-08  0.10566000000E+00  0.10566000000E+00 0.  1.
     999900   -1    0    0    0    0 -0.00000000000E+00 -0.00000000000E+00 -0.74505805969E-08  0.93827000000E+00  0.93827000000E+00 0.  1.
     999902    2    1    2    0    0  0.18664472140E-01 -0.13133130755E-01  0.85253062074E-02  0.10195676830E+01  0.10192765757E+01 0.  0.
     999903    2    3    3    0    0  0.38278208185E-01 -0.12076356241E+00 -0.30756946907E-01  0.13192355168E+00  0.20218171959E-01 0.  0.
         14    1    1    2    0    0 -0.18664472140E-01  0.13133130755E-01 -0.85253062074E-02  0.24362317000E-01  0.00000000000E+00 0.  1.
     999901    1    3    3    0    0 -0.19613736046E-01  0.10763043165E+00  0.39282253115E-01  0.88764413132E+00  0.88000000000E+00 0. -1.
        -11    1    4    4    0    0  0.28239610536E-01 -0.75391722896E-01 -0.10360242019E-01  0.81172552135E-01  0.51100000000E-03 0. -1.
         11    1    4    4    0    0  0.10038597650E-01 -0.45371839511E-01 -0.20396704888E-01  0.50750999544E-01  0.51100000000E-03 0.  1.
</event>
<event>
 8    1  0.1119901E+005  0.1043930E+01  0.7957747E-01            NaN
         13   -1    0    0    0    0  0.00000000000E+00  0.00000000000E+00  0.74505805969E-08  0.10566000000E+00  0.10566000000E+00 0. -1.
     999900   -1    0    0    0    0 -0.00000000000E+00 -0.00000000000E+00 -0.74505805969E-08  0.93827000000E+00  0.93827000000E+00 0. -1.
     999902    2    1    2    0    0 -0.14039473446E-01  0.16337493832E-01 -0.98661145599E-02  0.10202369475E+01  0.10199617975E+01 0.  0.
     999903    2    3    3    0    0 -0.64333841596E-01 -0.16675504178E-01  0.10978243636E+00  0.13010484651E+00  0.21404955961E-01 0.  0.
         14    1    1    2    0    0  0.14039473446E-01 -0.16337493832E-01  0.98661145599E-02  0.23693052481E-01  0.00000000000E+00 0. -1.
     999901    1    3    3    0    0  0.50294368150E-01  0.33012998010E-01 -0.11964855092E+00  0.89013210101E+00  0.88000000000E+00 0. -1.
        -11    1    4    4    0    0 -0.34169913998E-01 -0.77820511701E-02  0.37785526392E-01  0.51537854716E-01  0.51100000000E-03 0. -1.
         11    1    4    4    0    0 -0.30163927599E-01 -0.88934530077E-02  0.71996909964E-01  0.78566991797E-01  0.51100000000E-03 0.  1.
</event>
<event>
 8    1  0.1119901E+005  0.1043930E+01  0.7957747E-01            NaN
         13   -1    0    0    0    0  0.00000000000E+00  0.00000000000E+00  0.74505805969E-08  0.10566000000E+00  0.10566000000E+00 0. -1.
     999900   -1    0    0    0    0 -0.00000000000E+00 -0.00000000000E+00 -0.74505805969E-08  0.93827000000E+00  0.93827000000E+00 0.  1.
     999902    2    1    2    0    0 -0.19223448624E-01  0.75260495392E-02  0.66987925588E-02  0.10222261704E+01  0.10219957374E+01 0.  0.
     999903    2    3    3    0    0 -0.66247257085E-01 -0.10141115377E+00 -0.49660542494E-01  0.13247624625E+00  0.20269809073E-01 0.  0.
         14    1    1    2    0    0  0.19223448624E-01 -0.75260495392E-02 -0.66987925588E-02  0.21703829626E-01  0.00000000000E+00 0.  1.
     999901    1    3    3    0    0  0.47023808461E-01  0.10893720331E+00  0.56359335053E-01  0.88974992412E+00  0.88000000000E+00 0.  1.
        -11    1    4    4    0    0 -0.15328061947E-01 -0.22004447298E-01 -0.20440530456E-01  0.33722716235E-01  0.51100000000E-03 0. -1.
         11    1    4    4    0    0 -0.50919195138E-01 -0.79406706474E-01 -0.29220012038E-01  0.98753530018E-01  0.51100000000E-03 0.  1.
</event>
<event>
 8    1  0.1119901E+005  0.1043930E+01  0.7957747E-01            NaN
         13   -1    0    0    0    0  0.00000000000E+00  0.00000000000E+00  0.74505805969E-08  0.10566000000E+00  0.10566000000E+00 0. -1.
     999900   -1    0    0    0    0 -0.00000000000E+00 -0.00000000000E+00 -0.74505805969E-08  0.93827000000E+00  0.93827000000E+00 0. -1.
     999902    2    1    2    0    0  0.13124814082E-01  0.15914293209E-01 -0.58378409269E-02  0.10224915798E+01  0.10222668071E+01 0.  0.
     999903    2    3    3    0    0  0.30994269878E-01 -0.11790575085E+00 -0.41626399478E-01  0.13147646067E+00  0.26284819334E-01 0.  0.
         14    1    1    2    0    0 -0.13124814082E-01 -0.15914293209E-01  0.58378409269E-02  0.21438420178E-01  0.00000000000E+00 0. -1.
     999901    1    3    3    0    0 -0.17869455796E-01  0.13382004406E+00  0.35788558551E-01  0.89101511916E+00  0.88000000000E+00 0. -1.
        -11    1    4    4    0    0  0.18563684416E-01 -0.50034329965E-01 -0.30830956097E-01  0.61634840221E-01  0.51100000000E-03 0. -1.
         11    1    4    4    0    0  0.12430585461E-01 -0.67871420884E-01 -0.10795443381E-01  0.69841620446E-01  0.51100000000E-03 0.  1.
</event>
<event>
 8    1  0.1119901E+005  0.1043930E+01  0.7957747E-01            NaN
         13   -1    0    0    0    0  0.00000000000E+00  0.00000000000E+00  0.74505805969E-08  0.10566000000E+00  0.10566000000E+00 0.  1.
     999900   -1    0    0    0    0 -0.00000000000E+00 -0.00000000000E+00 -0.74505805969E-08  0.93827000000E+00  0.93827000000E+00 0. -1.
     999902    2    1    2    0    0  0.21146982680E-01 -0.63431042900E-03  0.83045140272E-02  0.10212019957E+01  0.10209490457E+01 0.  0.
     999903    2    3    3    0    0  0.23485228356E-01 -0.67779555909E-01  0.11075100762E+00  0.13271494716E+00  0.14207299503E-01 0.  0.
         14    1    1    2    0    0 -0.21146982680E-01  0.63431042900E-03 -0.83045140272E-02  0.22728004299E-01  0.00000000000E+00 0. -1.
     999901    1    3    3    0    0 -0.23382456764E-02  0.67145245480E-01 -0.10244649359E+00  0.88848704855E+00  0.88000000000E+00 0. -1.
        -11    1    4    4    0    0  0.20274541621E-01 -0.37285166076E-01  0.62960896889E-01  0.75931392094E-01  0.51100000000E-03 0. -1.
         11    1    4    4    0    0  0.32106867346E-02 -0.30494389833E-01  0.47790110732E-01  0.56783555061E-01  0.51100000000E-03 0.  1.
</event>
<event>
 8    1  0.1119901E+005  0.1043930E+01  0.7957747E-01            NaN
         13   -1    0    0    0    0  0.00000000000E+00  0.00000000000E+00  0.74505805969E-08  0.10566000000E+00  0.10566000000E+00 0. -1.
     999900   -1    0    0    0    0 -0.00000000000E+00 -0.00000000000E+00 -0.74505805969E-08  0.93827000000E+00  0.93827000000E+00 0. -1.
     999902    2    1    2    0    0 -0.90452633117E-02  0.31580198881E-02 -0.17824655335E-01  0.10236936907E+01  0.10234936561E+01 0.  0.
     999903    2    3    3    0    0  0.70428516163E-01  0.10815977559E+00  0.24537458650E-01  0.13288731494E+00  0.19955917669E-01 0.  0.
         14    1    1    2    0    0  0.90452633117E-02 -0.31580198881E-02  0.17824655335E-01  0.20236309342E-01  0.00000000000E+00 0. -1.
     999901    1    3    3    0    0 -0.79473779475E-01 -0.10500175570E+00 -0.42362113985E-01  0.89080637572E+00  0.88000000000E+00 0. -1.
        -11    1    4    4    0    0  0.50174405547E-01  0.78997509729E-01  0.26675326930E-01  0.97313471335E-01  0.51100000000E-03 0.  1.
         11    1    4    4    0    0  0.20254110617E-01  0.29162265858E-01 -0.21378682795E-02  0.35573843602E-01  0.51100000000E-03 0. -1.
</event>
<event>
 8    1  0.1119901E+005  0.1043930E+01  0.7957747E-01            NaN
         13   -1    0    0    0    0  0.00000000000E+00  0.00000000000E+00  0.74505805969E-08  0.10566000000E+00  0.10566000000E+00 0.  1.
     999900   -1    0    0    0    0 -0.00000000000E+00 -0.00000000000E+00 -0.74505805969E-08  0.93827000000E+00  0.93827000000E+00 0. -1.
     999902    2    1    2    0    0 -0.22867170352E-01  0.61454228056E-02  0.52047370832E-02  0.10196861763E+01  0.10193979277E+01 0.  0.
     999903    2    3    3    0    0  0.12070827834E+00 -0.32112662422E-01  0.13083906056E-01  0.12719546379E+00  0.20144127236E-01 0.  0.
         14    1    1    2    0    0  0.22867170352E-01 -0.61454228056E-02 -0.52047370832E-02  0.24243823738E-01  0.00000000000E+00 0.  1.
     999901    1    3    3    0    0 -0.14357544869E+00  0.38258085228E-01 -0.78791689730E-02  0.89249071248E+00  0.88000000000E+00 0. -1.
        -11    1    4    4    0    0  0.85728278341E-01 -0.31188578021E-01  0.55345810914E-02  0.91394517424E-01  0.51100000000E-03 0.  1.
         11    1    4    4    0    0  0.34980000000E-01 -0.92408440099E-03  0.75493249647E-02  0.35800946362E-01  0.51100000000E-03 0. -1.
</event>
<event>
 8    1  0.1119901E+005  0.1043930E+01  0.7957747E-01            NaN
         13   -1    0    0    0    0  0.00000000000E+00  0.00000000000E+00  0.74505805969E-08  0.10566000000E+00  0.10566000000E+00 0.  1.
     999900   -1    0    0    0    0 -0.00000000000E+00 -0.00000000000E+00 -0.74505805969E-08  0.93827000000E+00  0.93827000000E+00 0. -1.
     999902    2    1    2    0    0 -0.15167054577E-01 -0.28016205381E-02 -0.18994907096E-01  0.10194617529E+01  0.10191680776E+01 0.  0.
     999903    2    3    3    0    0  0.88672284622E-01 -0.25479454206E-01 -0.89782198686E-01  0.13024426926E+00  0.19767393027E-01 0.  0.
         14    1    1    2    0    0  0.15167054577E-01  0.28016205381E-02  0.18994907096E-01  0.24468247133E-01  0.00000000000E+00 0.  1.
     999901    1    3    3    0    0 -0.10383933920E+00  0.22677833668E-01  0.70787291590E-01  0.88921748361E+00  0.88000000000E+00 0.  1.
        -11    1    4    4    0    0  0.56554508847E-01 -0.22516166527E-01 -0.48374656756E-01  0.77754477448E-01  0.51100000000E-03 0.  1.
         11    1    4    4    0    0  0.32117775775E-01 -0.29632876787E-02 -0.41407541930E-01  0.52489791810E-01  0.51100000000E-03 0. -1.
</event>
<event>
 8    1  0.1119901E+005  0.1043930E+01  0.7957747E-01            NaN
         13   -1    0    0    0    0  0.00000000000E+00  0.00000000000E+00  0.74505805969E-08  0.10566000000E+00  0.10566000000E+00 0. -1.
     999900   -1    0    0    0    0 -0.00000000000E+00 -0.00000000000E+00 -0.74505805969E-08  0.93827000000E+00  0.93827000000E+00 0. -1.
     999902    2    1    2    0    0  0.23465919983E-01  0.33096211981E-02  0.12480731490E-02  0.10201989933E+01  0.10199229506E+01 0.  0.
     999903    2    3    3    0    0 -0.56248085723E-01 -0.11418809157E+00  0.57114155375E-02  0.12880684802E+00  0.18863096923E-01 0.  0.
         14    1    1    2    0    0 -0.23465919983E-01 -0.33096211981E-02 -0.12480731490E-02  0.23731006715E-01  0.00000000000E+00 0. -1.
     999901    1    3    3    0    0  0.79714005706E-01  0.11749771277E+00 -0.44633423885E-02  0.89139214526E+00  0.88000000000E+00 0. -1.
        -11    1    4    4    0    0 -0.38774309442E-01 -0.93887997326E-01  0.81449968155E-02  0.10190684574E+00  0.51100000000E-03 0.  1.
         11    1    4    4    0    0 -0.17473776281E-01 -0.20300094246E-01 -0.24335812780E-02  0.26900002282E-01  0.51100000000E-03 0. -1.
</event>
<event>
 8    1  0.1119901E+005  0.1043930E+01  0.7957747E-01            NaN
         13   -1    0    0    0    0  0.00000000000E+00  0.00000000000E+00  0.74505805969E-08  0.10566000000E+00  0.10566000000E+00 0. -1.
     999900   -1    0    0    0    0 -0.00000000000E+00 -0.00000000000E+00 -0.74505805969E-08  0.93827000000E+00  0.93827000000E+00 0. -1.
     999902    2    1    2    0    0 -0.12275734269E-01  0.46710198393E-02 -0.19889940006E-01  0.10200946944E+01  0.10198161912E+01 0.  0.
     999903    2    3    3    0    0  0.90797201906E-01  0.73753211503E-01 -0.54677496626E-01  0.13070920238E+00  0.20287899548E-01 0.  0.
         14    1    1    2    0    0  0.12275734269E-01 -0.46710198393E-02  0.19889940006E-01  0.23835305571E-01  0.00000000000E+00 0. -1.
     999901    1    3    3    0    0 -0.10307293617E+00 -0.69082191663E-01  0.34787556619E-01  0.88938549205E+00  0.88000000000E+00 0.  1.
        -11    1    4    4    0    0  0.18528304455E-01  0.21081225348E-01 -0.53408436904E-02  0.28574496679E-01  0.51100000000E-03 0.  1.
         11    1    4    4    0    0  0.72268897451E-01  0.52671986155E-01 -0.49336652935E-01  0.10213470570E+00  0.51100000000E-03 0. -1.
</event>
<event>
 8    1  0.1119901E+005  0.1043930E+01  0.7957747E-01            NaN
         13   -1    0    0    0    0  0.00000000000E+00  0.00000000000E+00  0.74505805969E-08  0.10566000000E+00  0.10566000000E+00 0.  1.
     999900   -1    0    0    0    0 -0.00000000000E+00 -0.00000000000E+00 -0.74505805969E-08  0.93827000000E+00  0.93827000000E+00 0. -1.
     999902    2    1    2    0    0  0.24115719924E-02  0.22617549773E-01 -0.71557499804E-02  0.10200852103E+01  0.10198064828E+01 0.  0.
     999903    2    3    3    0    0 -0.73095837049E-01 -0.93078749508E-01 -0.44807312656E-01  0.12851096066E+00  0.22376700774E-01 0.  0.
         14    1    1    2    0    0 -0.24115719924E-02 -0.22617549773E-01  0.71557499804E-02  0.23844789682E-01  0.00000000000E+00 0.  1.
     999901    1    3    3    0    0  0.75507409041E-01  0.11569629928E+00  0.37651562676E-01  0.89157424966E+00  0.88000000000E+00 0.  1.
        -11    1    4    4    0    0 -0.37107865990E-01 -0.31379494533E-01 -0.12924973996E-01  0.50288989543E-01  0.51100000000E-03 0. -1.
         11    1    4    4    0    0 -0.35987971059E-01 -0.61699254975E-01 -0.31882338661E-01  0.78221971113E-01  0.51100000000E-03 0.  1.
</event>
<event>
 8    1  0.1119901E+005  0.1043930E+01  0.7957747E-01            NaN
         13   -1    0    0    0    0  0.00000000000E+00  0.00000000000E+00  0.74505805969E-08  0.10566000000E+00  0.10566000000E+00 0.  1.
     999900   -1    0    0    0    0 -0.00000000000E+00 -0.00000000000E+00 -0.74505805969E-08  0.93827000000E+00  0.93827000000E+00 0. -1.
     999902    2    1    2    0    0  0.23459852570E-01 -0.67069379810E-02  0.15529373320E-02  0.10194808832E+01  0.10191876725E+01 0.  0.
     999903    2    3    3    0    0  0.69906959182E-01  0.96813638546E-01 -0.49062439307E-01  0.13075383855E+00  0.20726306813E-01 0.  0.
         14    1    1    2    0    0 -0.23459852570E-01  0.67069379810E-02 -0.15529373320E-02  0.24449116836E-01  0.00000000000E+00 0. -1.
     999901    1    3    3    0    0 -0.46447106611E-01 -0.10352057653E+00  0.50615376639E-01  0.88872704461E+00  0.88000000000E+00 0. -1.
        -11    1    4    4    0    0  0.29870488944E-01  0.55588125074E-01 -0.19052033533E-01  0.65920610295E-01  0.51100000000E-03 0. -1.
         11    1    4    4    0    0  0.40036470237E-01  0.41225513473E-01 -0.30010405774E-01  0.64833228254E-01  0.51100000000E-03 0.  1.
</event>
<event>
 8    1  0.1119901E+005  0.1043930E+01  0.7957747E-01            NaN
         13   -1    0    0    0    0  0.00000000000E+00  0.00000000000E+00  0.74505805969E-08  0.10566000000E+00  0.10566000000E+00 0. -1.
     999900   -1    0    0    0    0 -0.00000000000E+00 -0.00000000000E+00 -0.74505805969E-08  0.93827000000E+00  0.93827000000E+00 0. -1.
     999902    2    1    2    0    0  0.33698457906E-03  0.12894613051E-01  0.52371513701E-02  0.10300083493E+01  0.10299142621E+01 0.  0.
     999903    2    3    3    0    0 -0.26013003457E-01 -0.93096979574E-01  0.97227993910E-01  0.13849791485E+00  0.19612895365E-01 0.  0.
         14    1    1    2    0    0 -0.33698457906E-03 -0.12894613051E-01 -0.52371513701E-02  0.13921650721E-01  0.00000000000E+00 0. -1.
     999901    1    3    3    0    0  0.26349988036E-01  0.10599159262E+00 -0.91990842540E-01  0.89151043442E+00  0.88000000000E+00 0. -1.
        -11    1    4    4    0    0 -0.75676285214E-02 -0.35219438617E-01  0.49609253247E-01  0.61310822753E-01  0.51100000000E-03 0.  1.
         11    1    4    4    0    0 -0.18445374935E-01 -0.57877540957E-01  0.47618740663E-01  0.77187092101E-01  0.51100000000E-03 0. -1.
</event>
<event>
 8    1  0.1119901E+005  0.1043930E+01  0.7957747E-01            NaN
         13   -1    0    0    0    0  0.00000000000E+00  0.00000000000E+00  0.74505805969E-08  0.10566000000E+00  0.10566000000E+00 0.  1.
     999900   -1    0    0    0    0 -0.00000000000E+00 -0.00000000000E+00 -0.74505805969E-08  0.93827000000E+00  0.93827000000E+00 0. -1.
     999902    2    1    2    0    0 -0.22535345259E-01  0.63487042563E-02 -0.46934397252E-02  0.10200516372E+01  0.10197721149E+01 0.  0.
     999903    2    3    3    0    0  0.20880986239E-01  0.57476637043E-01 -0.11455860752E+00  0.13068703347E+00  0.14691724469E-01 0.  0.
         14    1    1    2    0    0  0.22535345259E-01 -0.63487042563E-02  0.46934397252E-02  0.23878362761E-01  0.00000000000E+00 0. -1.
     999901    1    3    3    0    0 -0.43416331498E-01 -0.51127932787E-01  0.10986516779E+00  0.88936460377E+00  0.88000000000E+00 0.  1.
        -11    1    4    4    0    0  0.18661970811E-01  0.40009398912E-01 -0.92176222582E-01  0.10220439465E+00  0.51100000000E-03 0. -1.
         11    1    4    4    0    0  0.22190154281E-02  0.17467238131E-01 -0.22382384934E-01  0.28482638813E-01  0.51100000000E-03 0.  1.
</event>
<event>
 8    1  0.1119901E+005  0.1043930E+01  0.7957747E-01            NaN
         13   -1    0    0    0    0  0.00000000000E+00  0.00000000000E+00  0.74505805969E-08  0.10566000000E+00  0.10566000000E+00 0.  1.
     999900   -1    0    0    0    0 -0.00000000000E+00 -0.00000000000E+00 -0.74505805969E-08  0.93827000000E+00  0.93827000000E+00 0. -1.
     999902    2    1    2    0    0  0.21345519628E-01  0.99274235697E-03 -0.47671662201E-02  0.10220361054E+01  0.10218015748E+01 0.  0.
     999903    2    3    3    0    0 -0.12600484480E-01  0.10041770294E+00  0.81637630877E-01  0.13158484739E+00  0.20183706694E-01 0.  0.
         14    1    1    2    0    0 -0.21345519628E-01 -0.99274235697E-03  0.47671662201E-02  0.21893894567E-01  0.00000000000E+00 0. -1.
     999901    1    3    3    0    0  0.33946004108E-01 -0.99424960581E-01 -0.86404797097E-01  0.89045125804E+00  0.88000000000E+00 0. -1.
        -11    1    4    4    0    0 -0.14826896746E-01  0.88460874258E-01  0.64140693738E-01  0.11026990911E+00  0.51100000000E-03 0. -1.
         11    1    4    4    0    0  0.22264122655E-02  0.11956828680E-01  0.17496937139E-01  0.21314938281E-01  0.51100000000E-03 0.  1.
</event>
<event>
 7    1  0.1119901E+005  0.1043930E+01  0.7957747E-01            NaN
         13   -1    0    0    0    0  0.00000000000E+00  0.00000000000E+00  0.74505805969E-08  0.10566000000E+00  0.10566000000E+00 0. -1.
     999900   -1    0    0    0    0 -0.00000000000E+00 -0.00000000000E+00 -0.74505805969E-08  0.93827000000E+00  0.93827000000E+00 0.  1.
     999903    2    1    2    0    0 -0.32113890076E-01  0.62393344898E-01 -0.76477708487E-01  0.10653272909E+00  0.24003146626E-01 0.  0.
         14    1    1    2    0    0  0.22984308644E-02  0.10898627649E-01  0.52345828765E-01  0.53517741527E-01  0.00000000000E+00 0. -1.
     999901    1    1    2    0    0  0.29815459212E-01 -0.73291972548E-01  0.24131879722E-01  0.88387952939E+00  0.88000000000E+00 0. -1.
        -11    1    3    3    0    0 -0.10591868024E-01  0.40606095794E-01 -0.54727105236E-01  0.68966367546E-01  0.51100000000E-03 0. -1.
         11    1    3    3    0    0 -0.21522022052E-01  0.21787249104E-01 -0.21750603251E-01  0.37566361542E-01  0.51100000000E-03 0.  1.
</event>
<event>
 8    1  0.1119901E+005  0.1043930E+01  0.7957747E-01            NaN
         13   -1    0    0    0    0  0.00000000000E+00  0.00000000000E+00  0.74505805969E-08  0.10566000000E+00  0.10566000000E+00 0.  1.
     999900   -1    0    0    0    0 -0.00000000000E+00 -0.00000000000E+00 -0.74505805969E-08  0.93827000000E+00  0.93827000000E+00 0. -1.
     999902    2    1    2    0    0 -0.12030932353E-01 -0.13649834586E-01 -0.27126005667E-01  0.10112668480E+01  0.10107392128E+01 0.  0.
     999903    2    3    3    0    0  0.30681092796E-01 -0.90038687028E-01 -0.79331261807E-01  0.12538595155E+00  0.19490847289E-01 0.  0.
         14    1    1    2    0    0  0.12030932353E-01  0.13649834586E-01  0.27126005667E-01  0.32663152037E-01  0.00000000000E+00 0.  1.
     999901    1    3    3    0    0 -0.42712025149E-01  0.76388852443E-01  0.52205256140E-01  0.88588089642E+00  0.88000000000E+00 0. -1.
        -11    1    4    4    0    0  0.10202330776E-01 -0.59109398570E-01 -0.50094580228E-01  0.78152009838E-01  0.51100000000E-03 0.  1.
         11    1    4    4    0    0  0.20478762020E-01 -0.30929288458E-01 -0.29236681580E-01  0.47233941707E-01  0.51100000000E-03 0. -1.
</event>
<event>
 8    1  0.1119901E+005  0.1043930E+01  0.7957747E-01            NaN
         13   -1    0    0    0    0  0.00000000000E+00  0.00000000000E+00  0.74505805969E-08  0.10566000000E+00  0.10566000000E+00 0.  1.
     999900   -1    0    0    0    0 -0.00000000000E+00 -0.00000000000E+00 -0.74505805969E-08  0.93827000000E+00  0.93827000000E+00 0. -1.
     999902    2    1    2    0    0 -0.89896316749E-02 -0.14146701622E-01  0.17042836831E-01  0.10200260059E+01  0.10197458761E+01 0.  0.
     999903    2    3    3    0    0  0.10240986629E+00 -0.77031347397E-01 -0.12448720126E-01  0.13028779796E+00  0.19958218085E-01 0.  0.
         14    1    1    2    0    0  0.89896316749E-02  0.14146701622E-01 -0.17042836831E-01  0.23903994053E-01  0.00000000000E+00 0.  1.
     999901    1    3    3    0    0 -0.11139949796E+00  0.62884645775E-01  0.29491556957E-01  0.88973820799E+00  0.88000000000E+00 0.  1.
        -11    1    4    4    0    0  0.44040938912E-01 -0.32787434012E-01 -0.15262012004E-01  0.56989562735E-01  0.51100000000E-03 0. -1.
         11    1    4    4    0    0  0.58368927378E-01 -0.44243913385E-01  0.28132918777E-02  0.73298235225E-01  0.51100000000E-03 0.  1.
</event>
<event>
 8    1  0.1119901E+005  0.1043930E+01  0.7957747E-01            NaN
         13   -1    0    0    0    0  0.00000000000E+00  0.00000000000E+00  0.74505805969E-08  0.10566000000E+00  0.10566000000E+00 0.  1.
     999900   -1    0    0    0    0 -0.00000000000E+00 -0.00000000000E+00 -0.74505805969E-08  0.93827000000E+00  0.93827000000E+00 0.  1.
     999902    2    1    2    0    0  0.14127304151E-01  0.20087569867E-01 -0.24975848113E-02  0.10192454073E+01  0.10189464516E+01 0.  0.
     999903    2    3    3    0    0 -0.96379699351E-01  0.47841556802E-01  0.68368520089E-01  0.12907458864E+00  0.20202323845E-01 0.  0.
         14    1    1    2    0    0 -0.14127304151E-01 -0.20087569867E-01  0.24975848113E-02  0.24684592677E-01  0.00000000000E+00 0. -1.
     999901    1    3    3    0    0  0.11050700350E+00 -0.27753986935E-01 -0.70866104900E-01  0.89017081868E+00  0.88000000000E+00 0.  1.
        -11    1    4    4    0    0 -0.56030108917E-01  0.28639127455E-01  0.51476591791E-01  0.81299897602E-01  0.51100000000E-03 0. -1.
         11    1    4    4    0    0 -0.40349590434E-01  0.19202429347E-01  0.16891928298E-01  0.47774691037E-01  0.51100000000E-03 0.  1.
</event>
<event>
 8    1  0.1119901E+005  0.1043930E+01  0.7957747E-01            NaN
         13   -1    0    0    0    0  0.00000000000E+00  0.00000000000E+00  0.74505805969E-08  0.10566000000E+00  0.10566000000E+00 0.  1.
     999900   -1    0    0    0    0 -0.00000000000E+00 -0.00000000000E+00 -0.74505805969E-08  0.93827000000E+00  0.93827000000E+00 0. -1.
     999902    2    1    2    0    0  0.22264455431E-01  0.14069078458E-02  0.78243626233E-02  0.10202888068E+01  0.10200148740E+01 0.  0.
     999903    2    3    3    0    0  0.12091767481E+00 -0.37625772271E-01 -0.34650666021E-01  0.13289930052E+00  0.20610012181E-01 0.  0.
         14    1    1    2    0    0 -0.22264455431E-01 -0.14069078458E-02 -0.78243626233E-02  0.23641193197E-01  0.00000000000E+00 0. -1.
     999901    1    3    3    0    0 -0.98653219376E-01  0.39032680117E-01  0.42475028644E-01  0.88738950629E+00  0.88000000000E+00 0. -1.
        -11    1    4    4    0    0  0.68809153409E-01 -0.11230069846E-01 -0.22219685672E-01  0.73176427994E-01  0.51100000000E-03 0.  1.
         11    1    4    4    0    0  0.52108521398E-01 -0.26395702424E-01 -0.12430980349E-01  0.59722872521E-01  0.51100000000E-03 0. -1.
</event>
<event>
 8    1  0.1119901E+005  0.1043930E+01  0.7957747E-01            NaN
         13   -1    0    0    0    0  0.00000000000E+00  0.00000000000E+00  0.74505805969E-08  0.10566000000E+00  0.10566000000E+00 0.  1.
     999900   -1    0    0    0    0 -0.00000000000E+00 -0.00000000000E+00 -0.74505805969E-08  0.93827000000E+00  0.93827000000E+00 0.  1.
     999902    2    1    2    0    0  0.22660495204E-01  0.56195167436E-02 -0.24043011078E-02  0.10204596426E+01  0.10201897003E+01 0.  0.
     999903    2    3    3    0    0 -0.46388252924E-01 -0.36821247860E-01  0.11311990646E+00  0.12921624677E+00  0.19825511070E-01 0.  0.
         14    1    1    2    0    0 -0.22660495204E-01 -0.56195167436E-02  0.24043011078E-02  0.23470357371E-01  0.00000000000E+00 0. -1.
     999901    1    3    3    0    0  0.69048748128E-01  0.42440764603E-01 -0.11552420757E+00  0.89124339585E+00  0.88000000000E+00 0.  1.
        -11    1    4    4    0    0 -0.28338540400E-01 -0.15537258385E-01  0.43376054743E-01  0.54094570117E-01  0.51100000000E-03 0.  1.
         11    1    4    4    0    0 -0.18049712524E-01 -0.21283989475E-01  0.69743851720E-01  0.75121676658E-01  0.51100000000E-03 0. -1.
</event>
<event>
 8    1  0.1119901E+005  0.1043930E+01  0.7957747E-01            NaN
         13   -1    0    0    0    0  0.00000000000E+00  0.00000000000E+00  0.74505805969E-08  0.10566000000E+00  0.10566000000E+00 0.  1.
     999900   -1    0    0    0    0 -0.00000000000E+00 -0.00000000000E+00 -0.74505805969E-08  0.93827000000E+00  0.93827000000E+00 0. -1.
     999902    2    1    2    0    0 -0.12157776645E-01 -0.96502329135E-02  0.17765699656E-01  0.10203385055E+01  0.10200657367E+01 0.  0.
     999903    2    3    3    0    0  0.11748313156E+00 -0.43531818991E-02 -0.47680413805E-01  0.12842033796E+00  0.19927994056E-01 0.  0.
         14    1    1    2    0    0  0.12157776645E-01  0.96502329135E-02 -0.17765699656E-01  0.23591494495E-01  0.00000000000E+00 0. -1.
     999901    1    3    3    0    0 -0.12964090821E+00 -0.52970510143E-02  0.65446113461E-01  0.89191816755E+00  0.88000000000E+00 0. -1.
        -11    1    4    4    0    0  0.10472666182E+00 -0.90898372502E-02 -0.45832009455E-01  0.11467838963E+00  0.51100000000E-03 0.  1.
         11    1    4    4    0    0  0.12756469741E-01  0.47366553511E-02 -0.18484043497E-02  0.13741948327E-01  0.51100000000E-03 0. -1.
</event>
<event>
 8    1  0.1119901E+005  0.1043930E+01  0.7957747E-01            NaN
         13   -1    0    0    0    0  0.00000000000E+00  0.00000000000E+00  0.74505805969E-08  0.10566000000E+00  0.10566000000E+00 0. -1.
     999900   -1    0    0    0    0 -0.00000000000E+00 -0.00000000000E+00 -0.74505805969E-08  0.93827000000E+00  0.93827000000E+00 0.  1.
     999902    2    1    2    0    0  0.14067475964E-01  0.32291248824E-02 -0.18656792019E-01  0.10203419306E+01  0.10200692420E+01 0.  0.
     999903    2    3    3    0    0 -0.24567320216E-01 -0.11636656667E+00  0.45933669735E-01  0.12906884979E+00  0.20103106949E-01 0.  0.
         14    1    1    2    0    0 -0.14067475964E-01 -0.32291248824E-02  0.18656792019E-01  0.23588069356E-01  0.00000000000E+00 0. -1.
     999901    1    3    3    0    0  0.38634796181E-01  0.11959569155E+00 -0.64590461754E-01  0.89127308086E+00  0.88000000000E+00 0.  1.
        -11    1    4    4    0    0 -0.16921148066E-02 -0.15658281333E-01  0.13700131495E-01  0.20880607051E-01  0.51100000000E-03 0. -1.
         11    1    4    4    0    0 -0.22875205410E-01 -0.10070828533E+00  0.32233538240E-01  0.10818824273E+00  0.51100000000E-03 0.  1.
</event>
<event>
 8    1  0.1119901E+005  0.1043930E+01  0.7957747E-01            NaN
         13   -1    0    0    0    0  0.00000000000E+00  0.00000000000E+00  0.74505805969E-08  0.10566000000E+00  0.10566000000E+00 0.  1.
     999900   -1    0    0    0    0 -0.00000000000E+00 -0.00000000000E+00 -0.74505805969E-08  0.93827000000E+00  0.93827000000E+00 0. -1.
     999902    2    1    2    0    0  0.12997284307E-01 -0.17906167820E-01  0.83828968691E-02  0.10202692053E+01  0.10199948128E+01 0.  0.
     999903    2    3    3    0    0  0.12645648167E-01  0.95921390552E-01  0.83917476005E-01  0.12972874619E+00  0.20653794457E-01 0.  0.
         14    1    1    2    0    0 -0.12997284307E-01  0.17906167820E-01 -0.83828968691E-02  0.23660794688E-01  0.00000000000E+00 0. -1.
     999901    1    3    3    0    0  0.35163613928E-03 -0.11382755837E+00 -0.75534579135E-01  0.89054045912E+00  0.88000000000E+00 0. -1.
        -11    1    4    4    0    0 -0.49111138417E-02  0.40164977489E-01  0.33599244063E-01  0.52597668945E-01  0.51100000000E-03 0.  1.
         11    1    4    4    0    0  0.17556762009E-01  0.55756413063E-01  0.50318231941E-01  0.77131077242E-01  0.51100000000E-03 0. -1.
</event>
<event>
 8    1  0.1119901E+005  0.1043930E+01  0.7957747E-01            NaN
         13   -1    0    0    0    0  0.00000000000E+00  0.00000000000E+00  0.74505805969E-08  0.10566000000E+00  0.10566000000E+00 0.  1.
     999900   -1    0    0    0    0 -0.00000000000E+00 -0.00000000000E+00 -0.74505805969E-08  0.93827000000E+00  0.93827000000E+00 0.  1.
     999902    2    1    2    0    0 -0.11246569115E-01  0.14656141915E-01 -0.15439522813E-01  0.10198537321E+01  0.10195695014E+01 0.  0.
     999903    2    3    3    0    0 -0.88421561883E-01  0.94948663323E-01  0.15374489157E-01  0.13229958058E+00  0.20813044737E-01 0.  0.
         14    1    1    2    0    0  0.11246569115E-01 -0.14656141915E-01  0.15439522813E-01  0.24076267929E-01  0.00000000000E+00 0.  1.
     999901    1    3    3    0    0  0.77174992767E-01 -0.80292521407E-01 -0.30814011970E-01  0.88755415150E+00  0.88000000000E+00 0. -1.
        -11    1    4    4    0    0 -0.11429657411E-01  0.82129872863E-02 -0.41641560809E-02  0.14686440875E-01  0.51100000000E-03 0. -1.
         11    1    4    4    0    0 -0.76991904471E-01  0.86735676036E-01  0.19538645238E-01  0.11761313970E+00  0.51100000000E-03 0.  1.
</event>
<event>
 8    1  0.1119901E+005  0.1043930E+01  0.7957747E-01            NaN
         13   -1    0    0    0    0  0.00000000000E+00  0.00000000000E+00  0.74505805969E-08  0.10566000000E+00  0.10566000000E+00 0.  1.
     999900   -1    0    0    0    0 -0.00000000000E+00 -0.00000000000E+00 -0.74505805969E-08  0.93827000000E+00  0.93827000000E+00 0.  1.
     999902    2    1    2    0    0  0.76903750175E-03 -0.10920464370E-01 -0.21469281673E-01  0.10198306636E+01  0.10195458814E+01 0.  0.
     999903    2    3    3    0    0 -0.63711727632E-01 -0.96443649872E-01 -0.61367494076E-01  0.13243906361E+00  0.20336528762E-01 0.  0.
         14    1    1    2    0    0 -0.76903750175E-03  0.10920464370E-01  0.21469281673E-01  0.24099336429E-01  0.00000000000E+00 0.  1.
     999901    1    3    3    0    0  0.64480765134E-01  0.85523185502E-01  0.39898212403E-01  0.88739159996E+00  0.88000000000E+00 0. -1.
        -11    1    4    4    0    0 -0.46375446498E-01 -0.69583711184E-01 -0.33703987562E-01  0.90159829185E-01  0.51100000000E-03 0.  1.
         11    1    4    4    0    0 -0.17336281133E-01 -0.26859938688E-01 -0.27663506514E-01  0.42279234425E-01  0.51100000000E-03 0. -1.
</event>
<event>
 8    1  0.1119901E+005  0.1043930E+01  0.7957747E-01            NaN
         13   -1    0    0    0    0  0.00000000000E+00  0.00000000000E+00  0.74505805969E-08  0.10566000000E+00  0.10566000000E+00 0. -1.
     999900   -1    0    0    0    0 -0.00000000000E+00 -0.00000000000E+00 -0.74505805969E-08  0.93827000000E+00  0.93827000000E+00 0. -1.
     999902    2    1    2    0    0 -0.44454570712E-04 -0.89603435340E-02 -0.22007575339E-01  0.10201682007E+01  0.10198914328E+01 0.  0.
     999903    2    3    3    0    0 -0.29116419373E-01 -0.73286580053E-01 -0.10564218618E+00  0.13338875127E+00  0.20337127920E-01 0.  0.
         14    1    1    2    0    0  0.44454570712E-04  0.89603435340E-02  0.22007575339E-01  0.23761799274E-01  0.00000000000E+00 0. -1.
     999901    1    3    3    0    0  0.29071964802E-01  0.64326236519E-01  0.83634610842E-01  0.88677944945E+00  0.88000000000E+00 0.  1.
        -11    1    4    4    0    0 -0.28744911098E-02 -0.28532836696E-01 -0.28590998005E-01  0.40498046335E-01  0.51100000000E-03 0. -1.
         11    1    4    4    0    0 -0.26241928263E-01 -0.44753743357E-01 -0.77051188176E-01  0.92890704937E-01  0.51100000000E-03 0.  1.
</event>
<event>
 8    1  0.1119901E+005  0.1043930E+01  0.7957747E-01            NaN
         13   -1    0    0    0    0  0.00000000000E+00  0.00000000000E+00  0.74505805969E-08  0.10566000000E+00  0.10566000000E+00 0.  1.
     999900   -1    0    0    0    0 -0.00000000000E+00 -0.00000000000E+00 -0.74505805969E-08  0.93827000000E+00  0.93827000000E+00 0. -1.
     999902    2    1    2    0    0 -0.12792542439E-01  0.13586562101E-01  0.14225053868E-01  0.10204652185E+01  0.10201954059E+01 0.  0.
     999903    2    3    3    0    0  0.39830348276E-01  0.11031085950E+00  0.58216030025E-01  0.13251253718E+00  0.20384405598E-01 0.  0.
         14    1    1    2    0    0  0.12792542439E-01 -0.13586562101E-01 -0.14225053868E-01  0.23464781468E-01  0.00000000000E+00 0. -1.
     999901    1    3    3    0    0 -0.52622890714E-01 -0.96724297397E-01 -0.43990976156E-01  0.88795268135E+00  0.88000000000E+00 0.  1.
        -11    1    4    4    0    0  0.23434690993E-01  0.42366373829E-01  0.16708348436E-01  0.51220351441E-01  0.51100000000E-03 0. -1.
         11    1    4    4    0    0  0.16395657283E-01  0.67944485670E-01  0.41507681588E-01  0.81292185740E-01  0.51100000000E-03 0.  1.
</event>
<event>
 8    1  0.1119901E+005  0.1043930E+01  0.7957747E-01            NaN
         13   -1    0    0    0    0  0.00000000000E+00  0.00000000000E+00  0.74505805969E-08  0.10566000000E+00  0.10566000000E+00 0.  1.
     999900   -1    0    0    0    0 -0.00000000000E+00 -0.00000000000E+00 -0.74505805969E-08  0.93827000000E+00  0.93827000000E+00 0. -1.
     999902    2    1    2    0    0 -0.19936088238E-01 -0.53477711934E-02  0.11740619273E-01  0.10201836653E+01  0.10199072617E+01 0.  0.
     999903    2    3    3    0    0 -0.82338798530E-01 -0.37348992046E-01 -0.93093824432E-01  0.13119073114E+00  0.19233378277E-01 0.  0.
         14    1    1    2    0    0  0.19936088238E-01  0.53477711934E-02 -0.11740619273E-01  0.23746334704E-01  0.00000000000E+00 0. -1.
     999901    1    3    3    0    0  0.62402710292E-01  0.32001220852E-01  0.10483444371E+00  0.88899293415E+00  0.88000000000E+00 0. -1.
        -11    1    4    4    0    0 -0.62326263282E-01 -0.19857346961E-01 -0.71791816417E-01  0.97124679400E-01  0.51100000000E-03 0.  1.
         11    1    4    4    0    0 -0.20012535248E-01 -0.17491645085E-01 -0.21302008015E-01  0.34066051742E-01  0.51100000000E-03 0. -1.
</event>
<event>
 8    1  0.1119901E+005  0.1043930E+01  0.7957747E-01            NaN
         13   -1    0    0    0    0  0.00000000000E+00  0.00000000000E+00  0.74505805969E-08  0.10566000000E+00  0.10566000000E+00 0. -1.
     999900   -1    0    0    0    0 -0.00000000000E+00 -0.00000000000E+00 -0.74505805969E-08  0.93827000000E+00  0.93827000000E+00 0.  1.
     999902    2    1    2    0    0  0.18499403899E-01  0.58736209103E-03 -0.13334823686E-01  0.10211179317E+01  0.10208630858E+01 0.  0.
     999903    2    3    3    0    0 -0.65580290999E-01  0.93239537194E-02 -0.11207145539E+00  0.13157049304E+00  0.19054470484E-01 0.  0.
         14    1    1    2    0    0 -0.18499403899E-01 -0.58736209103E-03  0.13334823686E-01  0.22812068333E-01  0.00000000000E+00 0.  1.
     999901    1    3    3    0    0  0.84079694898E-01 -0.87365916283E-02  0.98736631703E-01  0.88954743863E+00  0.88000000000E+00 0. -1.
        -11    1    4    4    0    0 -0.43590358596E-01  0.67050488470E-02 -0.56009426943E-01  0.71290911552E-01  0.51100000000E-03 0.  1.
         11    1    4    4    0    0 -0.21989932403E-01  0.26189048723E-02 -0.56062028447E-01  0.60279581488E-01  0.51100000000E-03 0. -1.
</event>
<event>
 8    1  0.1119901E+005  0.1043930E+01  0.7957747E-01            NaN
         13   -1    0    0    0    0  0.00000000000E+00  0.00000000000E+00  0.74505805969E-08  0.10566000000E+00  0.10566000000E+00 0. -1.
     999900   -1    0    0    0    0 -0.00000000000E+00 -0.00000000000E+00 -0.74505805969E-08  0.93827000000E+00  0.93827000000E+00 0.  1.
     999902    2    1    2    0    0  0.16454517160E-01  0.28914188903E-02 -0.16607899317E-01  0.10203729680E+01  0.10201010048E+01 0.  0.
     999903    2    3    3    0    0  0.11907014301E+00 -0.53694967753E-01  0.47886401187E-02  0.13234718134E+00  0.20784533136E-01 0.  0.
         14    1    1    2    0    0 -0.16454517160E-01 -0.28914188903E-02  0.16607899317E-01  0.23557032026E-01  0.00000000000E+00 0. -1.
     999901    1    3    3    0    0 -0.10261562585E+00  0.56586386643E-01 -0.21396539436E-01  0.88802578663E+00  0.88000000000E+00 0.  1.
        -11    1    4    4    0    0  0.11157188771E+00 -0.43969673738E-01  0.33374644652E-02  0.11997090533E+00  0.51100000000E-03 0.  1.
         11    1    4    4    0    0  0.74982552979E-02 -0.97252940150E-02  0.14511756534E-02  0.12376276014E-01  0.51100000000E-03 0. -1.
</event>
<event>
 8    1  0.1119901E+005  0.1043930E+01  0.7957747E-01            NaN
         13   -1    0    0    0    0  0.00000000000E+00  0.00000000000E+00  0.74505805969E-08  0.10566000000E+00  0.10566000000E+00 0. -1.
     999900   -1    0    0    0    0 -0.00000000000E+00 -0.00000000000E+00 -0.74505805969E-08  0.93827000000E+00  0.93827000000E+00 0.  1.
     999902    2    1    2    0    0 -0.11630202299E-01 -0.21752124970E-01  0.56135691600E-02  0.10186331879E+01  0.10183190280E+01 0.  0.
     999903    2    3    3    0    0 -0.10671882554E+00  0.14664868466E-01  0.70603216208E-01  0.13038114147E+00  0.20259857323E-01 0.  0.
         14    1    1    2    0    0  0.11630202299E-01  0.21752124970E-01 -0.56135691600E-02  0.25296812149E-01  0.00000000000E+00 0. -1.
     999901    1    3    3    0    0  0.95088623245E-01 -0.36416993435E-01 -0.64989647048E-01  0.88825204638E+00  0.88000000000E+00 0. -1.
        -11    1    4    4    0    0 -0.53109734093E-01  0.10307560129E-01  0.46901127337E-01  0.71602140455E-01  0.51100000000E-03 0.  1.
         11    1    4    4    0    0 -0.53609091451E-01  0.43573083365E-02  0.23702088871E-01  0.58779001012E-01  0.51100000000E-03 0. -1.
</event>
<event>
 8    1  0.1119901E+005  0.1043930E+01  0.7957747E-01            NaN
         13   -1    0    0    0    0  0.00000000000E+00  0.00000000000E+00  0.74505805969E-08  0.10566000000E+00  0.10566000000E+00 0. -1.
     999900   -1    0    0    0    0 -0.00000000000E+00 -0.00000000000E+00 -0.74505805969E-08  0.93827000000E+00  0.93827000000E+00 0.  1.
     999902    2    1    2    0    0  0.15748668966E-01  0.91928846803E-03 -0.17987949690E-01  0.10200044488E+01  0.10197238075E+01 0.  0.
     999903    2    3    3    0    0  0.77931157872E-01 -0.94593791124E-01 -0.45820316333E-01  0.13221840988E+00  0.18998837723E-01 0.  0.
         14    1    1    2    0    0 -0.15748668966E-01 -0.91928846803E-03  0.17987949690E-01  0.23925551186E-01  0.00000000000E+00 0. -1.
     999901    1    3    3    0    0 -0.62182488907E-01  0.95513079592E-01  0.27832366643E-01  0.88778603894E+00  0.88000000000E+00 0.  1.
        -11    1    4    4    0    0  0.17004131117E-01 -0.30516272876E-01 -0.19257593630E-01  0.39893601225E-01  0.51100000000E-03 0.  1.
         11    1    4    4    0    0  0.60927026756E-01 -0.64077518248E-01 -0.26562722703E-01  0.92324808652E-01  0.51100000000E-03 0. -1.
</event>
<event>
 8    1  0.1119901E+005  0.1043930E+01  0.7957747E-01            NaN
         13   -1    0    0    0    0  0.00000000000E+00  0.00000000000E+00  0.74505805969E-08  0.10566000000E+00  0.10566000000E+00 0. -1.
     999900   -1    0    0    0    0 -0.00000000000E+00 -0.00000000000E+00 -0.74505805969E-08  0.93827000000E+00  0.93827000000E+00 0.  1.
     999902    2    1    2    0    0 -0.15372113568E-01 -0.22730226295E-01 -0.11977203208E-01  0.10139897518E+01  0.10135476301E+01 0.  0.
     999903    2    3    3    0    0 -0.12452075612E+00  0.41623133071E-02 -0.12696031386E-01  0.12683860826E+00  0.20102233077E-01 0.  0.
         14    1    1    2    0    0  0.15372113568E-01  0.22730226295E-01  0.11977203208E-01  0.29940248156E-01  0.00000000000E+00 0. -1.
     999901    1    3    3    0    0  0.10914864255E+00 -0.26892539602E-01  0.71882817822E-03  0.88715114359E+00  0.88000000000E+00 0.  1.
        -11    1    4    4    0    0 -0.95870254803E-01  0.10331557208E-01 -0.51139161331E-02  0.96562208392E-01  0.51100000000E-03 0.  1.
         11    1    4    4    0    0 -0.28650501316E-01 -0.61692439013E-02 -0.75821152529E-02  0.30276399863E-01  0.51100000000E-03 0. -1.
</event>
<event>
 8    1  0.1119901E+005  0.1043930E+01  0.7957747E-01            NaN
         13   -1    0    0    0    0  0.00000000000E+00  0.00000000000E+00  0.74505805969E-08  0.10566000000E+00  0.10566000000E+00 0. -1.
     999900   -1    0    0    0    0 -0.00000000000E+00 -0.00000000000E+00 -0.74505805969E-08  0.93827000000E+00  0.93827000000E+00 0.  1.
     999902    2    1    2    0    0  0.17055135194E-02 -0.12585632765E-02  0.23225373479E-01  0.10206081062E+01  0.10203416073E+01 0.  0.
     999903    2    3    3    0    0 -0.71640913634E-01 -0.17873578493E-01 -0.10311483262E+00  0.12840991924E+00  0.20113511344E-01 0.  0.
         14    1    1    2    0    0 -0.17055135194E-02  0.12585632765E-02 -0.23225373479E-01  0.23321893815E-01  0.00000000000E+00 0.  1.
     999901    1    3    3    0    0  0.73346427153E-01  0.16615015217E-01  0.12634020610E+00  0.89219818694E+00  0.88000000000E+00 0. -1.
        -11    1    4    4    0    0 -0.62193307881E-01 -0.21884115774E-01 -0.84886053383E-01  0.10748406974E+00  0.51100000000E-03 0.  1.
         11    1    4    4    0    0 -0.94476057532E-02  0.40105372806E-02 -0.18228779239E-01  0.20925849500E-01  0.51100000000E-03 0. -1.
</event>
<event>
 8    1  0.1119901E+005  0.1043930E+01  0.7957747E-01            NaN
         13   -1    0    0    0    0  0.00000000000E+00  0.00000000000E+00  0.74505805969E-08  0.10566000000E+00  0.10566000000E+00 0. -1.
     999900   -1    0    0    0    0 -0.00000000000E+00 -0.00000000000E+00 -0.74505805969E-08  0.93827000000E+00  0.93827000000E+00 0.  1.
     999902    2    1    2    0    0  0.11929351243E-01 -0.20407978829E-01  0.31887292460E-02  0.10200770544E+01  0.10197981339E+01 0.  0.
     999903    2    3    3    0    0  0.12603328353E+00 -0.22229683336E-01 -0.25165182377E-01  0.13225558004E+00  0.21902161308E-01 0.  0.
         14    1    1    2    0    0 -0.11929351243E-01  0.20407978829E-01 -0.31887292460E-02  0.23852945629E-01  0.00000000000E+00 0.  1.
     999901    1    3    3    0    0 -0.11410393229E+00  0.18217045067E-02  0.28353911623E-01  0.88782147433E+00  0.88000000000E+00 0. -1.
        -11    1    4    4    0    0  0.89927161410E-01 -0.25753914874E-01 -0.17249011966E-01  0.95120702401E-01  0.51100000000E-03 0.  1.
         11    1    4    4    0    0  0.36106122122E-01  0.35242315380E-02 -0.79161704111E-02  0.37134877643E-01  0.51100000000E-03 0. -1.
</event>
<event>
 8    1  0.1160319E+005  0.1043930E+01  0.7957747E-01            NaN
         13   -1    0    0    0    0  0.00000000000E+00  0.00000000000E+00  0.74505805969E-08  0.10566000000E+00  0.10566000000E+00 0.  1.
     999900   -1    0    0    0    0 -0.00000000000E+00 -0.00000000000E+00 -0.74505805969E-08  0.93827000000E+00  0.93827000000E+00 0. -1.
     999902    2    1    2    0    0  0.14255418205E-01  0.23230918099E-02 -0.20501715529E-01  0.10188514426E+01  0.10185427472E+01 0.  0.
     999903    2    3    3    0    0  0.36986473093E-01 -0.45334328023E-01  0.11147993435E+00  0.12744407977E+00  0.19774155288E-01 0.  0.
         14    1    1    2    0    0 -0.14255418205E-01 -0.23230918099E-02  0.20501715529E-01  0.25078557443E-01  0.00000000000E+00 0.  1.
     999901    1    3    3    0    0 -0.22731054888E-01  0.47657419833E-01 -0.13198164988E+00  0.89140736278E+00  0.88000000000E+00 0. -1.
        -11    1    4    4    0    0  0.90322131585E-02 -0.23368795409E-01  0.58478589614E-01  0.63621443222E-01  0.51100000000E-03 0. -1.
         11    1    4    4    0    0  0.27954259934E-01 -0.21965532614E-01  0.53001344736E-01  0.63822636551E-01  0.51100000000E-03 0.  1.
</event>
<event>
 8    1  0.1119901E+005  0.1043930E+01  0.7957747E-01            NaN
         13   -1    0    0    0    0  0.00000000000E+00  0.00000000000E+00  0.74505805969E-08  0.10566000000E+00  0.10566000000E+00 0. -1.
     999900   -1    0    0    0    0 -0.00000000000E+00 -0.00000000000E+00 -0.74505805969E-08  0.93827000000E+00  0.93827000000E+00 0. -1.
     999902    2    1    2    0    0  0.12428702015E-01 -0.79783695840E-02 -0.18672800019E-01  0.10201224282E+01  0.10198445803E+01 0.  0.
     999903    2    3    3    0    0  0.12387548246E+00 -0.35931617430E-01  0.18140601524E-01  0.13188991613E+00  0.20728055118E-01 0.  0.
         14    1    1    2    0    0 -0.12428702015E-01  0.79783695840E-02  0.18672800019E-01  0.23807571812E-01  0.00000000000E+00 0. -1.
     999901    1    3    3    0    0 -0.11144678044E+00  0.27953247846E-01 -0.36813401544E-01  0.88823251205E+00  0.88000000000E+00 0. -1.
        -11    1    4    4    0    0  0.82526369838E-01 -0.17983188880E-01  0.19896401427E-01  0.86776291184E-01  0.51100000000E-03 0.  1.
         11    1    4    4    0    0  0.41349112620E-01 -0.17948428550E-01 -0.17557999025E-02  0.45113624951E-01  0.51100000000E-03 0. -1.
</event>
<event>
 8    1  0.1119901E+005  0.1043930E+01  0.7957747E-01            NaN
         13   -1    0    0    0    0  0.00000000000E+00  0.00000000000E+00  0.74505805969E-08  0.10566000000E+00  0.10566000000E+00 0. -1.
     999900   -1    0    0    0    0 -0.00000000000E+00 -0.00000000000E+00 -0.74505805969E-08  0.93827000000E+00  0.93827000000E+00 0. -1.
     999902    2    1    2    0    0 -0.12025553904E-01  0.17514880338E-01 -0.11238774033E-01  0.10198947130E+01  0.10196114606E+01 0.  0.
     999903    2    3    3    0    0 -0.73326080222E-01 -0.66818388975E-01 -0.82401615470E-01  0.13088739871E+00  0.22362329107E-01 0.  0.
         14    1    1    2    0    0  0.12025553904E-01 -0.17514880338E-01  0.11238774033E-01  0.24035287011E-01  0.00000000000E+00 0.  1.
     999901    1    3    3    0    0  0.61300526318E-01  0.84333269313E-01  0.71162841436E-01  0.88900731428E+00  0.88000000000E+00 0.  1.
        -11    1    4    4    0    0 -0.19719640744E-01 -0.77945055682E-02 -0.24140309022E-01  0.32134626010E-01  0.51100000000E-03 0. -1.
         11    1    4    4    0    0 -0.53606439478E-01 -0.59023883407E-01 -0.58261306448E-01  0.98752772700E-01  0.51100000000E-03 0.  1.
</event>
<event>
 8    1  0.1119901E+005  0.1043930E+01  0.7957747E-01            NaN
         13   -1    0    0    0    0  0.00000000000E+00  0.00000000000E+00  0.74505805969E-08  0.10566000000E+00  0.10566000000E+00 0.  1.
     999900   -1    0    0    0    0 -0.00000000000E+00 -0.00000000000E+00 -0.74505805969E-08  0.93827000000E+00  0.93827000000E+00 0. -1.
     999902    2    1    2    0    0 -0.43561684766E-02 -0.95935475735E-02  0.20377498167E-01  0.10209897561E+01  0.10207320056E+01 0.  0.
     999903    2    3    3    0    0  0.95622836882E-01  0.45619981186E-01  0.76058288405E-01  0.13186395753E+00  0.19450718341E-01 0.  0.
         14    1    1    2    0    0  0.43561684766E-02  0.95935475735E-02 -0.20377498167E-01  0.22940243904E-01  0.00000000000E+00 0. -1.
     999901    1    3    3    0    0 -0.99979005359E-01 -0.55213528760E-01 -0.55680790238E-01  0.88912579856E+00  0.88000000000E+00 0. -1.
        -11    1    4    4    0    0  0.41886400248E-01  0.12447823431E-01  0.39422097457E-01  0.58853901509E-01  0.51100000000E-03 0. -1.
         11    1    4    4    0    0  0.53736436634E-01  0.33172157755E-01  0.36636190948E-01  0.73010056023E-01  0.51100000000E-03 0.  1.
</event>
<event>
 8    1  0.1119901E+005  0.1043930E+01  0.7957747E-01            NaN
         13   -1    0    0    0    0  0.00000000000E+00  0.00000000000E+00  0.74505805969E-08  0.10566000000E+00  0.10566000000E+00 0.  1.
     999900   -1    0    0    0    0 -0.00000000000E+00 -0.00000000000E+00 -0.74505805969E-08  0.93827000000E+00  0.93827000000E+00 0. -1.
     999902    2    1    2    0    0  0.50145899733E-02  0.64419253616E-02 -0.12819611183E-01  0.10287317453E+01  0.10286194714E+01 0.  0.
     999903    2    3    3    0    0 -0.67692212552E-01  0.11253619258E+00  0.39398428382E-01  0.13785072276E+00  0.14281292899E-01 0.  0.
         14    1    1    2    0    0 -0.50145899733E-02 -0.64419253616E-02  0.12819611183E-01  0.15198254698E-01  0.00000000000E+00 0.  1.
     999901    1    3    3    0    0  0.72706802526E-01 -0.10609426721E+00 -0.52218039565E-01  0.89088102254E+00  0.88000000000E+00 0.  1.
        -11    1    4    4    0    0 -0.42565697278E-01  0.82414603205E-01  0.30274961714E-01  0.97574790976E-01  0.51100000000E-03 0.  1.
         11    1    4    4    0    0 -0.25126515275E-01  0.30121589371E-01  0.91234666675E-02  0.40275931785E-01  0.51100000000E-03 0. -1.
</event>
<event>
 8    1  0.1119901E+005  0.1043930E+01  0.7957747E-01            NaN
         13   -1    0    0    0    0  0.00000000000E+00  0.00000000000E+00  0.74505805969E-08  0.10566000000E+00  0.10566000000E+00 0.  1.
     999900   -1    0    0    0    0 -0.00000000000E+00 -0.00000000000E+00 -0.74505805969E-08  0.93827000000E+00  0.93827000000E+00 0. -1.
     999902    2    1    2    0    0  0.15456474668E-01 -0.11275211760E-01  0.14561492897E-01  0.10198869119E+01  0.10196034734E+01 0.  0.
     999903    2    3    3    0    0 -0.12229259732E+00 -0.20098031779E-01 -0.26116437311E-01  0.12819899398E+00  0.19836923126E-01 0.  0.
         14    1    1    2    0    0 -0.15456474668E-01  0.11275211760E-01 -0.14561492897E-01  0.24043088088E-01  0.00000000000E+00 0. -1.
     999901    1    3    3    0    0  0.13774907198E+00  0.88228200189E-02  0.40677930208E-01  0.89168791794E+00  0.88000000000E+00 0. -1.
        -11    1    4    4    0    0 -0.74783381691E-01 -0.14711910238E-01 -0.25525221560E-01  0.80379055335E-01  0.51100000000E-03 0. -1.
         11    1    4    4    0    0 -0.47509215626E-01 -0.53861215411E-02 -0.59121575150E-03  0.47819938642E-01  0.51100000000E-03 0.  1.
</event>
<event>
 8    1  0.1119901E+005  0.1043930E+01  0.7957747E-01            NaN
         13   -1    0    0    0    0  0.00000000000E+00  0.00000000000E+00  0.74505805969E-08  0.10566000000E+00  0.10566000000E+00 0. -1.
     999900   -1    0    0    0    0 -0.00000000000E+00 -0.00000000000E+00 -0.74505805969E-08  0.93827000000E+00  0.93827000000E+00 0. -1.
     999902    2    1    2    0    0 -0.17397319782E-01  0.16831313481E-01 -0.11689960646E-03  0.10197231102E+01  0.10194357498E+01 0.  0.
     999903    2    3    3    0    0  0.12230993374E+00  0.33057143443E-01 -0.55802332926E-02  0.12853780832E+00  0.20936440499E-01 0.  0.
         14    1    1    2    0    0  0.17397319782E-01 -0.16831313481E-01  0.11689960646E-03  0.24206889817E-01  0.00000000000E+00 0.  1.
     999901    1    3    3    0    0 -0.13970725352E+00 -0.16225829962E-01  0.54633336862E-02  0.89118530186E+00  0.88000000000E+00 0.  1.
        -11    1    4    4    0    0  0.51091281334E-02  0.37203581831E-02 -0.43935698893E-02  0.77141968257E-02  0.51100000000E-03 0.  1.
         11    1    4    4    0    0  0.11720080560E+00  0.29336785260E-01 -0.11866634034E-02  0.12082361149E+00  0.51100000000E-03 0. -1.
</event>
<event>
 7    1  0.1119901E+005  0.1043930E+01  0.7957747E-01            NaN
         13   -1    0    0    0    0  0.00000000000E+00  0.00000000000E+00  0.74505805969E-08  0.10566000000E+00  0.10566000000E+00 0. -1.
     999900   -1    0    0    0    0 -0.00000000000E+00 -0.00000000000E+00 -0.74505805969E-08  0.93827000000E+00  0.93827000000E+00 0.  1.
     999903    2    1    2    0    0  0.60796701992E-03  0.63425087938E-01  0.50929220624E-01  0.83986201535E-01  0.20899405040E-01 0.  0.
         14    1    1    2    0    0 -0.54850352646E-01 -0.22525411514E-01  0.41682172509E-01  0.72480058322E-01  0.00000000000E+00 0. -1.
     999901    1    1    2    0    0  0.54242385626E-01 -0.40899676425E-01 -0.92611393134E-01  0.88746374014E+00  0.88000000000E+00 0.  1.
        -11    1    3    3    0    0  0.74927962956E-02  0.89948790183E-02  0.65932331224E-02  0.13445508130E-01  0.51100000000E-03 0.  1.
         11    1    3    3    0    0 -0.68848292756E-02  0.54430208920E-01  0.44335987502E-01  0.70540693405E-01  0.51100000000E-03 0. -1.
</event>
<event>
 8    1  0.1119901E+005  0.1043930E+01  0.7957747E-01            NaN
         13   -1    0    0    0    0  0.00000000000E+00  0.00000000000E+00  0.74505805969E-08  0.10566000000E+00  0.10566000000E+00 0.  1.
     999900   -1    0    0    0    0 -0.00000000000E+00 -0.00000000000E+00 -0.74505805969E-08  0.93827000000E+00  0.93827000000E+00 0.  1.
     999902    2    1    2    0    0  0.12872402471E-01 -0.59369444052E-02  0.20328061784E-01  0.10191474224E+01  0.10188460593E+01 0.  0.
     999903    2    3    3    0    0  0.38589192283E-01  0.11053765263E+00 -0.48878984488E-01  0.12840767354E+00  0.19790833436E-01 0.  0.
         14    1    1    2    0    0 -0.12872402471E-01  0.59369444052E-02 -0.20328061784E-01  0.24782577552E-01  0.00000000000E+00 0. -1.
     999901    1    3    3    0    0 -0.25716789812E-01 -0.11647459704E+00  0.69207046273E-01  0.89073974891E+00  0.88000000000E+00 0. -1.
        -11    1    4    4    0    0  0.35441649277E-01  0.74521749884E-01 -0.32065968335E-01  0.88532983433E-01  0.51100000000E-03 0.  1.
         11    1    4    4    0    0  0.31475430064E-02  0.36015902749E-01 -0.16813016154E-01  0.39874690105E-01  0.51100000000E-03 0. -1.
</event>
<event>
 8    1  0.1119901E+005  0.1043930E+01  0.7957747E-01            NaN
         13   -1    0    0    0    0  0.00000000000E+00  0.00000000000E+00  0.74505805969E-08  0.10566000000E+00  0.10566000000E+00 0. -1.
     999900   -1    0    0    0    0 -0.00000000000E+00 -0.00000000000E+00 -0.74505805969E-08  0.93827000000E+00  0.93827000000E+00 0.  1.
     999902    2    1    2    0    0  0.11274861727E-01  0.86061839639E-02  0.17670253745E-01  0.10212710773E+01  0.10210196798E+01 0.  0.
     999903    2    3    3    0    0  0.69430205286E-03 -0.19058654075E-01  0.13066682280E+00  0.13355179956E+00  0.19963722961E-01 0.  0.
         14    1    1    2    0    0 -0.11274861727E-01 -0.86061839639E-02 -0.17670253745E-01  0.22658922675E-01  0.00000000000E+00 0.  1.
     999901    1    3    3    0    0  0.10580559674E-01  0.27664838039E-01 -0.11299656905E+00  0.88771927777E+00  0.88000000000E+00 0.  1.
        -11    1    4    4    0    0 -0.76323723487E-02 -0.16179568992E-01  0.10197021219E+00  0.10352882137E+00  0.51100000000E-03 0.  1.
         11    1    4    4    0    0  0.83266744016E-02 -0.28790850825E-02  0.28696610610E-01  0.30022978183E-01  0.51100000000E-03 0. -1.
</event>
<event>
 8    1  0.1119901E+005  0.1043930E+01  0.7957747E-01            NaN
         13   -1    0    0    0    0  0.00000000000E+00  0.00000000000E+00  0.74505805969E-08  0.10566000000E+00  0.10566000000E+00 0. -1.
     999900   -1    0    0    0    0 -0.00000000000E+00 -0.00000000000E+00 -0.74505805969E-08  0.93827000000E+00  0.93827000000E+00 0. -1.
     999902    2    1    2    0    0  0.76724214918E-02  0.21901700833E-01  0.60838649277E-02  0.10199390858E+01  0.10196568907E+01 0.  0.
     999903    2    3    3    0    0 -0.12111058070E+00  0.20964033066E-01 -0.34678028801E-01  0.12963156992E+00  0.22237688695E-01 0.  0.
         14    1    1    2    0    0 -0.76724214918E-02 -0.21901700833E-01 -0.60838649277E-02  0.23990914184E-01  0.00000000000E+00 0.  1.
     999901    1    3    3    0    0  0.12878300219E+00  0.93766776780E-03  0.40761893729E-01  0.89030751589E+00  0.88000000000E+00 0. -1.
        -11    1    4    4    0    0 -0.67379851167E-01  0.22017629728E-01 -0.15449675630E-01  0.72551870825E-01  0.51100000000E-03 0. -1.
         11    1    4    4    0    0 -0.53730729536E-01 -0.10535966629E-02 -0.19228353171E-01  0.57079699098E-01  0.51100000000E-03 0.  1.
</event>
<event>
 8    1  0.1119901E+005  0.1043930E+01  0.7957747E-01            NaN
         13   -1    0    0    0    0  0.00000000000E+00  0.00000000000E+00  0.74505805969E-08  0.10566000000E+00  0.10566000000E+00 0. -1.
     999900   -1    0    0    0    0 -0.00000000000E+00 -0.00000000000E+00 -0.74505805969E-08  0.93827000000E+00  0.93827000000E+00 0. -1.
     999902    2    1    2    0    0 -0.89781187564E-02 -0.20313971694E-01 -0.10984168143E-01  0.10191526714E+01  0.10188514375E+01 0.  0.
     999903    2    3    3    0    0  0.11211493530E+00 -0.14495652477E-01 -0.55864338960E-01  0.12970811984E+00  0.30388967188E-01 0.  0.
         14    1    1    2    0    0  0.89781187564E-02  0.20313971694E-01  0.10984168143E-01  0.24777328592E-01  0.00000000000E+00 0. -1.
     999901    1    3    3    0    0 -0.12109305406E+00 -0.58183192168E-02  0.44880170816E-01  0.88944455157E+00  0.88000000000E+00 0.  1.
        -11    1    4    4    0    0  0.76810830021E-01 -0.11407258017E-01 -0.22055450234E-01  0.80726285372E-01  0.51100000000E-03 0.  1.
         11    1    4    4    0    0  0.35304105281E-01 -0.30883944598E-02 -0.33808888726E-01  0.48981834469E-01  0.51100000000E-03 0. -1.
</event>
<event>
 8    1  0.1119901E+005  0.1043930E+01  0.7957747E-01            NaN
         13   -1    0    0    0    0  0.00000000000E+00  0.00000000000E+00  0.74505805969E-08  0.10566000000E+00  0.10566000000E+00 0.  1.
     999900   -1    0    0    0    0 -0.00000000000E+00 -0.00000000000E+00 -0.74505805969E-08  0.93827000000E+00  0.93827000000E+00 0.  1.
     999902    2    1    2    0    0 -0.49702448224E-02  0.21335953691E-01  0.82771381675E-02  0.10205112624E+01  0.10202425199E+01 0.  0.
     999903    2    3    3    0    0  0.92557168166E-01  0.31369684402E-02  0.90640706061E-01  0.13111452493E+00  0.19965247356E-01 0.  0.
         14    1    1    2    0    0  0.49702448224E-02 -0.21335953691E-01 -0.82771381675E-02  0.23418737578E-01  0.00000000000E+00 0.  1.
     999901    1    3    3    0    0 -0.97527412988E-01  0.18198985251E-01 -0.82363567894E-01  0.88939673749E+00  0.88000000000E+00 0. -1.
        -11    1    4    4    0    0  0.69203913928E-01  0.81800577769E-02  0.75886752347E-01  0.10302987601E+00  0.51100000000E-03 0. -1.
         11    1    4    4    0    0  0.23353254238E-01 -0.50430893367E-02  0.14753953714E-01  0.28084648916E-01  0.51100000000E-03 0.  1.
</event>
<event>
 8    1  0.1119901E+005  0.1043930E+01  0.7957747E-01            NaN
         13   -1    0    0    0    0  0.00000000000E+00  0.00000000000E+00  0.74505805969E-08  0.10566000000E+00  0.10566000000E+00 0. -1.
     999900   -1    0    0    0    0 -0.00000000000E+00 -0.00000000000E+00 -0.74505805969E-08  0.93827000000E+00  0.93827000000E+00 0. -1.
     999902    2    1    2    0    0  0.20092874281E-01  0.97282781689E-02 -0.19027034157E-01  0.10145975773E+01  0.10141734826E+01 0.  0.
     999903    2    3    3    0    0  0.10799362298E+00  0.65314969886E-01 -0.11341757142E-01  0.12843986819E+00  0.20964169189E-01 0.  0.
         14    1    1    2    0    0 -0.20092874281E-01 -0.97282781689E-02  0.19027034157E-01  0.29332422706E-01  0.00000000000E+00 0. -1.
     999901    1    3    3    0    0 -0.87900748703E-01 -0.55586691717E-01 -0.76852770146E-02  0.88615770910E+00  0.88000000000E+00 0.  1.
        -11    1    4    4    0    0  0.73594359994E-01  0.35439781485E-01 -0.13650048391E-01  0.82817225725E-01  0.51100000000E-03 0.  1.
         11    1    4    4    0    0  0.34399262989E-01  0.29875188401E-01  0.23082912493E-02  0.45622642467E-01  0.51100000000E-03 0. -1.
</event>
<event>
 8    1  0.1119901E+005  0.1043930E+01  0.7957747E-01            NaN
         13   -1    0    0    0    0  0.00000000000E+00  0.00000000000E+00  0.74505805969E-08  0.10566000000E+00  0.10566000000E+00 0. -1.
     999900   -1    0    0    0    0 -0.00000000000E+00 -0.00000000000E+00 -0.74505805969E-08  0.93827000000E+00  0.93827000000E+00 0. -1.
     999902    2    1    2    0    0  0.22442051663E-01  0.90786431892E-02 -0.68760463754E-02  0.10187636046E+01  0.10184527159E+01 0.  0.
     999903    2    3    3    0    0  0.97212752617E-01  0.80299656671E-01  0.33080140291E-01  0.13182528240E+00  0.19627920573E-01 0.  0.
         14    1    1    2    0    0 -0.22442051663E-01 -0.90786431892E-02  0.68760463754E-02  0.25166395426E-01  0.00000000000E+00 0.  1.
     999901    1    3    3    0    0 -0.74770700954E-01 -0.71221013482E-01 -0.39956186667E-01  0.88693832217E+00  0.88000000000E+00 0. -1.
        -11    1    4    4    0    0  0.21632175761E-01  0.25898700708E-01  0.15138874962E-01  0.36988381725E-01  0.51100000000E-03 0. -1.
         11    1    4    4    0    0  0.75580576855E-01  0.54400955964E-01  0.17941265329E-01  0.94836900678E-01  0.51100000000E-03 0.  1.
</event>
<event>
 8    1  0.1119901E+005  0.1043930E+01  0.7957747E-01            NaN
         13   -1    0    0    0    0  0.00000000000E+00  0.00000000000E+00  0.74505805969E-08  0.10566000000E+00  0.10566000000E+00 0.  1.
     999900   -1    0    0    0    0 -0.00000000000E+00 -0.00000000000E+00 -0.74505805969E-08  0.93827000000E+00  0.93827000000E+00 0. -1.
     999902    2    1    2    0    0 -0.44589107667E-02  0.76220399756E-02 -0.24498498265E-01  0.10178886138E+01  0.10175554414E+01 0.  0.
     999903    2    3    3    0    0  0.10930222265E+00  0.48804883746E-01 -0.44864478720E-01  0.12937727719E+00  0.19918982114E-01 0.  0.
         14    1    1    2    0    0  0.44589107667E-02 -0.76220399756E-02  0.24498498265E-01  0.26041386212E-01  0.00000000000E+00 0.  1.
     999901    1    3    3    0    0 -0.11376113342E+00 -0.41182843770E-01  0.20365980455E-01  0.88851133660E+00  0.88000000000E+00 0.  1.
        -11    1    4    4    0    0  0.17209421513E-01  0.30105470446E-02 -0.83663665662E-03  0.17498247461E-01  0.51100000000E-03 0.  1.
         11    1    4    4    0    0  0.92092801141E-01  0.45794336701E-01 -0.44027842064E-01  0.11187902973E+00  0.51100000000E-03 0. -1.
</event>
<event>
 8    1  0.1119901E+005  0.1043930E+01  0.7957747E-01            NaN
         13   -1    0    0    0    0  0.00000000000E+00  0.00000000000E+00  0.74505805969E-08  0.10566000000E+00  0.10566000000E+00 0.  1.
     999900   -1    0    0    0    0 -0.00000000000E+00 -0.00000000000E+00 -0.74505805969E-08  0.93827000000E+00  0.93827000000E+00 0. -1.
     999902    2    1    2    0    0  0.67059928397E-02 -0.17224046142E-01 -0.15499953343E-01  0.10198076730E+01  0.10195223407E+01 0.  0.
     999903    2    3    3    0    0  0.10688153495E+00  0.34273781017E-01 -0.64497641048E-01  0.13127633489E+00  0.21798527976E-01 0.  0.
         14    1    1    2    0    0 -0.67059928397E-02  0.17224046142E-01  0.15499953343E-01  0.24122326983E-01  0.00000000000E+00 0. -1.
     999901    1    3    3    0    0 -0.10017554211E+00 -0.51497827158E-01  0.48997687706E-01  0.88853133813E+00  0.88000000000E+00 0.  1.
        -11    1    4    4    0    0  0.45364311043E-01  0.33659852350E-02 -0.25459838499E-01  0.52131708877E-01  0.51100000000E-03 0.  1.
         11    1    4    4    0    0  0.61517223908E-01  0.30907795782E-01 -0.39037802550E-01  0.79144626010E-01  0.51100000000E-03 0. -1.
</event>
<event>
 8    1  0.1119901E+005  0.1043930E+01  0.7957747E-01            NaN
         13   -1    0    0    0    0  0.00000000000E+00  0.00000000000E+00  0.74505805969E-08  0.10566000000E+00  0.10566000000E+00 0.  1.
     999900   -1    0    0    0    0 -0.00000000000E+00 -0.00000000000E+00 -0.74505805969E-08  0.93827000000E+00  0.93827000000E+00 0. -1.
     999902    2    1    2    0    0 -0.16606460044E-01 -0.92783804025E-02  0.14132029211E-01  0.10202323818E+01  0.10199571245E+01 0.  0.
     999903    2    3    3    0    0 -0.11801059821E+00 -0.51430721042E-01 -0.21503427032E-01  0.13269111246E+00  0.23935613531E-01 0.  0.
         14    1    1    2    0    0  0.16606460044E-01  0.92783804025E-02 -0.14132029211E-01  0.23697618186E-01  0.00000000000E+00 0. -1.
     999901    1    3    3    0    0  0.10140413817E+00  0.42152340639E-01  0.35635456243E-01  0.88754126935E+00  0.88000000000E+00 0.  1.
        -11    1    4    4    0    0 -0.61893760901E-01 -0.14714842793E-01 -0.63453852210E-02  0.63936603534E-01  0.51100000000E-03 0.  1.
         11    1    4    4    0    0 -0.56116837312E-01 -0.36715878249E-01 -0.15158041811E-01  0.68754508929E-01  0.51100000000E-03 0. -1.
</event>
<event>
 8    1  0.1119901E+005  0.1043930E+01  0.7957747E-01            NaN
         13   -1    0    0    0    0  0.00000000000E+00  0.00000000000E+00  0.74505805969E-08  0.10566000000E+00  0.10566000000E+00 0.  1.
     999900   -1    0    0    0    0 -0.00000000000E+00 -0.00000000000E+00 -0.74505805969E-08  0.93827000000E+00  0.93827000000E+00 0.  1.
     999902    2    1    2    0    0  0.20788737015E-01 -0.10821138985E-01  0.58131962174E-02  0.10197833256E+01  0.10194974101E+01 0.  0.
     999903    2    3    3    0    0 -0.56221709726E-01 -0.38295148499E-01  0.10911155670E+00  0.12997661545E+00  0.19004991860E-01 0.  0.
         14    1    1    2    0    0 -0.20788737015E-01  0.10821138985E-01 -0.58131962174E-02  0.24146674427E-01  0.00000000000E+00 0. -1.
     999901    1    3    3    0    0  0.77010446742E-01  0.27474009514E-01 -0.10329836048E+00  0.88980671013E+00  0.88000000000E+00 0.  1.
        -11    1    4    4    0    0 -0.14369929384E-01 -0.22142872249E-02  0.31551399096E-01  0.34744062001E-01  0.51100000000E-03 0.  1.
         11    1    4    4    0    0 -0.41851780343E-01 -0.36080861274E-01  0.77560157600E-01  0.95232553447E-01  0.51100000000E-03 0. -1.
</event>
<event>
 8    1  0.1119901E+005  0.1043930E+01  0.7957747E-01            NaN
         13   -1    0    0    0    0  0.00000000000E+00  0.00000000000E+00  0.74505805969E-08  0.10566000000E+00  0.10566000000E+00 0.  1.
     999900   -1    0    0    0    0 -0.00000000000E+00 -0.00000000000E+00 -0.74505805969E-08  0.93827000000E+00  0.93827000000E+00 0. -1.
     999902    2    1    2    0    0  0.93326863912E-02  0.63883557024E-03 -0.21737807476E-01  0.10202648480E+01  0.10199903532E+01 0.  0.
     999903    2    3    3    0    0  0.11150567620E+00  0.33355336192E-01  0.55379193566E-01  0.13040153201E+00  0.19789143334E-01 0.  0.
         14    1    1    2    0    0 -0.93326863912E-02 -0.63883557024E-03  0.21737807476E-01  0.23665152018E-01  0.00000000000E+00 0.  1.
     999901    1    3    3    0    0 -0.10217298981E+00 -0.32716500622E-01 -0.77117001042E-01  0.88986331597E+00  0.88000000000E+00 0. -1.
        -11    1    4    4    0    0  0.59354896087E-01  0.26522662524E-01  0.24960225287E-01  0.69639997733E-01  0.51100000000E-03 0. -1.
         11    1    4    4    0    0  0.52150780112E-01  0.68326736680E-02  0.30418968279E-01  0.60761534279E-01  0.51100000000E-03 0.  1.
</event>
<event>
 7    1  0.1119901E+005  0.1043930E+01  0.7957747E-01            NaN
         13   -1    0    0    0    0  0.00000000000E+00  0.00000000000E+00  0.74505805969E-08  0.10566000000E+00  0.10566000000E+00 0. -1.
     999900   -1    0    0    0    0 -0.00000000000E+00 -0.00000000000E+00 -0.74505805969E-08  0.93827000000E+00  0.93827000000E+00 0.  1.
     999903    2    1    2    0    0  0.70102394276E-01 -0.22596853532E-01 -0.45021454274E-01  0.88614209674E-01  0.20014578147E-01 0.  0.
         14    1    1    2    0    0 -0.52856293781E-01  0.17686280157E-02  0.52988274545E-01  0.74864364530E-01  0.00000000000E+00 0. -1.
     999901    1    1    2    0    0 -0.17246100496E-01  0.20828225517E-01 -0.79668202709E-02  0.88045142580E+00  0.88000000000E+00 0.  1.
        -11    1    3    3    0    0  0.33297789523E-01 -0.48315462499E-02 -0.29964124175E-01  0.45057701726E-01  0.51100000000E-03 0.  1.
         11    1    3    3    0    0  0.36804604754E-01 -0.17765307283E-01 -0.15057330099E-01  0.43556507948E-01  0.51100000000E-03 0. -1.
</event>
<event>
 8    1  0.1119901E+005  0.1043930E+01  0.7957747E-01            NaN
         13   -1    0    0    0    0  0.00000000000E+00  0.00000000000E+00  0.74505805969E-08  0.10566000000E+00  0.10566000000E+00 0. -1.
     999900   -1    0    0    0    0 -0.00000000000E+00 -0.00000000000E+00 -0.74505805969E-08  0.93827000000E+00  0.93827000000E+00 0. -1.
     999902    2    1    2    0    0 -0.13567193934E-01 -0.17606877630E-01  0.42208893797E-02  0.10213050846E+01  0.10210544496E+01 0.  0.
     999903    2    3    3    0    0  0.23425988553E-01 -0.12960269599E+00  0.32870717613E-02  0.13343548215E+00  0.21179879828E-01 0.  0.
         14    1    1    2    0    0  0.13567193934E-01  0.17606877630E-01 -0.42208893797E-02  0.22624915432E-01  0.00000000000E+00 0. -1.
     999901    1    3    3    0    0 -0.36993182487E-01  0.11199581836E+00  0.93381761846E-03  0.88786960242E+00  0.88000000000E+00 0. -1.
        -11    1    4    4    0    0  0.15591453477E-01 -0.84445545551E-01  0.12217176565E-01  0.86739057576E-01  0.51100000000E-03 0. -1.
         11    1    4    4    0    0  0.78345350752E-02 -0.45157150436E-01 -0.89301048041E-02  0.46696424576E-01  0.51100000000E-03 0.  1.
</event>
<event>
 8    1  0.1119901E+005  0.1043930E+01  0.7957747E-01            NaN
         13   -1    0    0    0    0  0.00000000000E+00  0.00000000000E+00  0.74505805969E-08  0.10566000000E+00  0.10566000000E+00 0.  1.
     999900   -1    0    0    0    0 -0.00000000000E+00 -0.00000000000E+00 -0.74505805969E-08  0.93827000000E+00  0.93827000000E+00 0. -1.
     999902    2    1    2    0    0 -0.13931879713E-02  0.20863093711E-01 -0.11583513372E-01  0.10200262883E+01  0.10197461652E+01 0.  0.
     999903    2    3    3    0    0  0.29852528507E-01 -0.56527185271E-01  0.10917450022E+00  0.12786708280E+00  0.18558643059E-01 0.  0.
         14    1    1    2    0    0  0.13931879713E-02 -0.20863093711E-01  0.11583513372E-01  0.23903711719E-01  0.00000000000E+00 0.  1.
     999901    1    3    3    0    0 -0.31245716478E-01  0.77390278983E-01 -0.12075801359E+00  0.89215920548E+00  0.88000000000E+00 0. -1.
        -11    1    4    4    0    0  0.10432064687E-01 -0.24538423639E-01  0.29063809960E-01  0.39445258000E-01  0.51100000000E-03 0.  1.
         11    1    4    4    0    0  0.19420463819E-01 -0.31988761633E-01  0.80110690260E-01  0.88421824799E-01  0.51100000000E-03 0. -1.
</event>
<event>
 8    1  0.1119901E+005  0.1043930E+01  0.7957747E-01            NaN
         13   -1    0    0    0    0  0.00000000000E+00  0.00000000000E+00  0.74505805969E-08  0.10566000000E+00  0.10566000000E+00 0. -1.
     999900   -1    0    0    0    0 -0.00000000000E+00 -0.00000000000E+00 -0.74505805969E-08  0.93827000000E+00  0.93827000000E+00 0.  1.
     999902    2    1    2    0    0 -0.21791286520E-01  0.44962933511E-02  0.80891871072E-02  0.10202548702E+01  0.10199801412E+01 0.  0.
     999903    2    3    3    0    0 -0.97367882671E-01  0.78602335187E-01  0.41116004613E-01  0.13329698058E+00  0.20462832724E-01 0.  0.
         14    1    1    2    0    0  0.21791286520E-01 -0.44962933511E-02 -0.80891871072E-02  0.23675129781E-01  0.00000000000E+00 0.  1.
     999901    1    3    3    0    0  0.75576596151E-01 -0.74106041836E-01 -0.33026817506E-01  0.88695788964E+00  0.88000000000E+00 0. -1.
        -11    1    4    4    0    0 -0.69291802616E-01  0.67075590449E-01  0.31626812441E-01  0.10149386745E+00  0.51100000000E-03 0.  1.
         11    1    4    4    0    0 -0.28076080055E-01  0.11526744738E-01  0.94891921723E-02  0.31803113127E-01  0.51100000000E-03 0. -1.
</event>
<event>
 8    1  0.1119901E+005  0.1043930E+01  0.7957747E-01            NaN
         13   -1    0    0    0    0  0.00000000000E+00  0.00000000000E+00  0.74505805969E-08  0.10566000000E+00  0.10566000000E+00 0.  1.
     999900   -1    0    0    0    0 -0.00000000000E+00 -0.00000000000E+00 -0.74505805969E-08  0.93827000000E+00  0.93827000000E+00 0.  1.
     999902    2    1    2    0    0  0.16576394739E-01  0.16626587175E-01  0.74102441949E-02  0.10193102522E+01  0.10190128842E+01 0.  0.
     999903    2    3    3    0    0 -0.53050032101E-01 -0.90857899776E-01 -0.68063238892E-01  0.12684344557E+00  0.19677178110E-01 0.  0.
         14    1    1    2    0    0 -0.16576394739E-01 -0.16626587175E-01 -0.74102441949E-02  0.24619747819E-01  0.00000000000E+00 0.  1.
     999901    1    3    3    0    0  0.69626426841E-01  0.10748448695E+00  0.75473483087E-01  0.89246680661E+00  0.88000000000E+00 0.  1.
        -11    1    4    4    0    0 -0.34193106117E-01 -0.45903858567E-01 -0.45507861666E-01  0.73127008223E-01  0.51100000000E-03 0.  1.
         11    1    4    4    0    0 -0.18856925984E-01 -0.44954041209E-01 -0.22555377226E-01  0.53716437349E-01  0.51100000000E-03 0. -1.
</event>
<event>
 8    1  0.1119901E+005  0.1043930E+01  0.7957747E-01            NaN
         13   -1    0    0    0    0  0.00000000000E+00  0.00000000000E+00  0.74505805969E-08  0.10566000000E+00  0.10566000000E+00 0.  1.
     999900   -1    0    0    0    0 -0.00000000000E+00 -0.00000000000E+00 -0.74505805969E-08  0.93827000000E+00  0.93827000000E+00 0. -1.
     999902    2    1    2    0    0 -0.21296661904E-01  0.88181066176E-02 -0.21232914116E-03  0.10208789285E+01  0.10206186530E+01 0.  0.
     999903    2    3    3    0    0 -0.13767189362E-02  0.98504235714E-01  0.85531718269E-01  0.13195123318E+00  0.19760397242E-01 0.  0.
         14    1    1    2    0    0  0.21296661904E-01 -0.88181066176E-02  0.21232914116E-03  0.23051071477E-01  0.00000000000E+00 0.  1.
     999901    1    3    3    0    0 -0.19919942968E-01 -0.89686129097E-01 -0.85744047410E-01  0.88892769534E+00  0.88000000000E+00 0. -1.
        -11    1    4    4    0    0  0.56657354348E-02  0.84523010142E-01  0.74252476362E-01  0.11264959462E+00  0.51100000000E-03 0.  1.
         11    1    4    4    0    0 -0.70424543710E-02  0.13981225572E-01  0.11279241907E-01  0.19301638559E-01  0.51100000000E-03 0. -1.
</event>
<event>
 8    1  0.1119901E+005  0.1043930E+01  0.7957747E-01            NaN
         13   -1    0    0    0    0  0.00000000000E+00  0.00000000000E+00  0.74505805969E-08  0.10566000000E+00  0.10566000000E+00 0. -1.
     999900   -1    0    0    0    0 -0.00000000000E+00 -0.00000000000E+00 -0.74505805969E-08  0.93827000000E+00  0.93827000000E+00 0. -1.
     999902    2    1    2    0    0 -0.10010554736E-01 -0.20285190919E-01  0.74144973373E-02  0.10201250646E+01  0.10198472790E+01 0.  0.
     999903    2    3    3    0    0 -0.83652195917E-01  0.40009394245E-01  0.90865754490E-01  0.13106790077E+00  0.17993547800E-01 0.  0.
         14    1    1    2    0    0  0.10010554736E-01  0.20285190919E-01 -0.74144973373E-02  0.23804935360E-01  0.00000000000E+00 0.  1.
     999901    1    3    3    0    0  0.73641641181E-01 -0.60294585164E-01 -0.83451257152E-01  0.88905716387E+00  0.88000000000E+00 0. -1.
        -11    1    4    4    0    0 -0.60749688526E-01  0.23585794563E-01  0.72192328663E-01  0.97256402360E-01  0.51100000000E-03 0. -1.
         11    1    4    4    0    0 -0.22902507391E-01  0.16423599682E-01  0.18673425826E-01  0.33811498405E-01  0.51100000000E-03 0.  1.
</event>
<event>
 8    1  0.1119901E+005  0.1043930E+01  0.7957747E-01            NaN
         13   -1    0    0    0    0  0.00000000000E+00  0.00000000000E+00  0.74505805969E-08  0.10566000000E+00  0.10566000000E+00 0. -1.
     999900   -1    0    0    0    0 -0.00000000000E+00 -0.00000000000E+00 -0.74505805969E-08  0.93827000000E+00  0.93827000000E+00 0.  1.
     999902    2    1    2    0    0  0.13564404789E-01 -0.90615737456E-02 -0.20971735575E-01  0.10173608659E+01  0.10170138704E+01 0.  0.
     999903    2    3    3    0    0  0.33218236166E-01 -0.97199671123E-01  0.73238435336E-01  0.12773726365E+00  0.20042775121E-01 0.  0.
         14    1    1    2    0    0 -0.13564404789E-01  0.90615737456E-02  0.20971735575E-01  0.26569134142E-01  0.00000000000E+00 0. -1.
     999901    1    3    3    0    0 -0.19653831377E-01  0.88138097378E-01 -0.94210170911E-01  0.88962360221E+00  0.88000000000E+00 0.  1.
        -11    1    4    4    0    0  0.22758673376E-01 -0.71479719846E-01  0.63578108254E-01  0.98334859197E-01  0.51100000000E-03 0. -1.
         11    1    4    4    0    0  0.10459562790E-01 -0.25719951278E-01  0.96603270824E-02  0.29402404456E-01  0.51100000000E-03 0.  1.
</event>
<event>
 8    1  0.1119901E+005  0.1043930E+01  0.7957747E-01            NaN
         13   -1    0    0    0    0  0.00000000000E+00  0.00000000000E+00  0.74505805969E-08  0.10566000000E+00  0.10566000000E+00 0. -1.
     999900   -1    0    0    0    0 -0.00000000000E+00 -0.00000000000E+00 -0.74505805969E-08  0.93827000000E+00  0.93827000000E+00 0.  1.
     999902    2    1    2    0    0 -0.17506910544E-01  0.13383129182E-02 -0.14522720090E-01  0.10211442062E+01  0.10208899537E+01 0.  0.
     999903    2    3    3    0    0 -0.76496310424E-01 -0.66498951799E-01  0.81291948693E-01  0.13139025456E+00  0.19524906461E-01 0.  0.
         14    1    1    2    0    0  0.17506910544E-01 -0.13383129182E-02  0.14522720090E-01  0.22785793756E-01  0.00000000000E+00 0. -1.
     999901    1    3    3    0    0  0.58989399880E-01  0.67837264718E-01 -0.95814668784E-01  0.88975395168E+00  0.88000000000E+00 0.  1.
        -11    1    4    4    0    0 -0.34668934121E-01 -0.43000488079E-01  0.42780114824E-01  0.69866847027E-01  0.51100000000E-03 0.  1.
         11    1    4    4    0    0 -0.41827376303E-01 -0.23498463720E-01  0.38511833870E-01  0.61523407534E-01  0.51100000000E-03 0. -1.
</event>
<event>
 8    1  0.1119901E+005  0.1043930E+01  0.7957747E-01            NaN
         13   -1    0    0    0    0  0.00000000000E+00  0.00000000000E+00  0.74505805969E-08  0.10566000000E+00  0.10566000000E+00 0.  1.
     999900   -1    0    0    0    0 -0.00000000000E+00 -0.00000000000E+00 -0.74505805969E-08  0.93827000000E+00  0.93827000000E+00 0.  1.
     999902    2    1    2    0    0  0.24883035766E-01 -0.73874410098E-03 -0.16524939123E-02  0.10189812135E+01  0.10186757440E+01 0.  0.
     999903    2    3    3    0    0 -0.51390861490E-01 -0.96199766286E-01  0.64187686977E-01  0.12810218491E+00  0.19866930844E-01 0.  0.
         14    1    1    2    0    0 -0.24883035766E-01  0.73874410098E-03  0.16524939123E-02  0.24948786502E-01  0.00000000000E+00 0.  1.
     999901    1    3    3    0    0  0.76273897256E-01  0.95461022185E-01 -0.65840180889E-01  0.89087902859E+00  0.88000000000E+00 0.  1.
        -11    1    4    4    0    0 -0.18566005243E-01 -0.31136862811E-01  0.11021373991E-01  0.37893701087E-01  0.51100000000E-03 0.  1.
         11    1    4    4    0    0 -0.32824856247E-01 -0.65062903475E-01  0.53166312986E-01  0.90208483823E-01  0.51100000000E-03 0. -1.
</event>
<event>
 8    1  0.1119901E+005  0.1043930E+01  0.7957747E-01            NaN
         13   -1    0    0    0    0  0.00000000000E+00  0.00000000000E+00  0.74505805969E-08  0.10566000000E+00  0.10566000000E+00 0. -1.
     999900   -1    0    0    0    0 -0.00000000000E+00 -0.00000000000E+00 -0.74505805969E-08  0.93827000000E+00  0.93827000000E+00 0. -1.
     999902    2    1    2    0    0 -0.78143541562E-02 -0.21126525087E-01 -0.31551996439E-02  0.10211846823E+01  0.10209313424E+01 0.  0.
     999903    2    3    3    0    0  0.12778150852E+00 -0.66023436541E-03 -0.16700091087E-01  0.13046106010E+00  0.20313673492E-01 0.  0.
         14    1    1    2    0    0  0.78143541562E-02  0.21126525087E-01  0.31551996439E-02  0.22745317714E-01  0.00000000000E+00 0.  1.
     999901    1    3    3    0    0 -0.13559586268E+00 -0.20466290722E-01  0.13544891443E-01  0.89072362218E+00  0.88000000000E+00 0.  1.
        -11    1    4    4    0    0  0.37927588323E-01  0.44971915104E-02 -0.13118137912E-01  0.40386549131E-01  0.51100000000E-03 0. -1.
         11    1    4    4    0    0  0.89853920201E-01 -0.51574258758E-02 -0.35819531749E-02  0.90074510971E-01  0.51100000000E-03 0.  1.
</event>
<event>
 8    1  0.1119901E+005  0.1043930E+01  0.7957747E-01            NaN
         13   -1    0    0    0    0  0.00000000000E+00  0.00000000000E+00  0.74505805969E-08  0.10566000000E+00  0.10566000000E+00 0.  1.
     999900   -1    0    0    0    0 -0.00000000000E+00 -0.00000000000E+00 -0.74505805969E-08  0.93827000000E+00  0.93827000000E+00 0.  1.
     999902    2    1    2    0    0 -0.99006114982E-02  0.24337876223E-01  0.44277432557E-02  0.10172849397E+01  0.10169359318E+01 0.  0.
     999903    2    3    3    0    0  0.11769262750E+00  0.21627596595E-01 -0.34309054810E-01  0.12723554795E+00  0.26314747165E-01 0.  0.
         14    1    1    2    0    0  0.99006114982E-02 -0.24337876223E-01 -0.44277432557E-02  0.26645060282E-01  0.00000000000E+00 0.  1.
     999901    1    3    3    0    0 -0.12759323900E+00  0.27102796282E-02  0.38736798066E-01  0.89004939176E+00  0.88000000000E+00 0.  1.
        -11    1    4    4    0    0  0.65206042448E-01  0.30507021590E-02 -0.28581784567E-01  0.71262292171E-01  0.51100000000E-03 0. -1.
         11    1    4    4    0    0  0.52486585055E-01  0.18576894436E-01 -0.57272702431E-02  0.55973255784E-01  0.51100000000E-03 0.  1.
</event>
<event>
 8    1  0.1119901E+005  0.1043930E+01  0.7957747E-01            NaN
         13   -1    0    0    0    0  0.00000000000E+00  0.00000000000E+00  0.74505805969E-08  0.10566000000E+00  0.10566000000E+00 0.  1.
     999900   -1    0    0    0    0 -0.00000000000E+00 -0.00000000000E+00 -0.74505805969E-08  0.93827000000E+00  0.93827000000E+00 0.  1.
     999902    2    1    2    0    0 -0.13369957606E-01 -0.14737381838E-01  0.12287645008E-01  0.10205434139E+01  0.10202754173E+01 0.  0.
     999903    2    3    3    0    0  0.25823586683E-01  0.80843731248E-01  0.97311238939E-01  0.13043055891E+00  0.18441446835E-01 0.  0.
         14    1    1    2    0    0  0.13369957606E-01  0.14737381838E-01 -0.12287645008E-01  0.23386586105E-01  0.00000000000E+00 0. -1.
     999901    1    3    3    0    0 -0.39193544289E-01 -0.95581113086E-01 -0.85023593931E-01  0.89011285499E+00  0.88000000000E+00 0. -1.
        -11    1    4    4    0    0  0.89577776175E-02  0.50173684943E-01  0.66578775124E-01  0.83848881082E-01  0.51100000000E-03 0. -1.
         11    1    4    4    0    0  0.16865809066E-01  0.30670046305E-01  0.30732463815E-01  0.46581677824E-01  0.51100000000E-03 0.  1.
</event>
<event>
 8    1  0.1119901E+005  0.1043930E+01  0.7957747E-01            NaN
         13   -1    0    0    0    0  0.00000000000E+00  0.00000000000E+00  0.74505805969E-08  0.10566000000E+00  0.10566000000E+00 0. -1.
     999900   -1    0    0    0    0 -0.00000000000E+00 -0.00000000000E+00 -0.74505805969E-08  0.93827000000E+00  0.93827000000E+00 0. -1.
     999902    2    1    2    0    0  0.19424688215E-01  0.10978053917E-01 -0.35210934162E-03  0.10216149790E+01  0.10213712377E+01 0.  0.
     999903    2    3    3    0    0  0.60058900044E-01 -0.15092693844E-01 -0.11615556567E+00  0.13271607389E+00  0.16928672402E-01 0.  0.
         14    1    1    2    0    0 -0.19424688215E-01 -0.10978053917E-01  0.35210934162E-03  0.22315020973E-01  0.00000000000E+00 0. -1.
     999901    1    3    3    0    0 -0.40634211828E-01  0.26070747760E-01  0.11580345633E+00  0.88889890514E+00  0.88000000000E+00 0.  1.
        -11    1    4    4    0    0  0.57191764371E-01 -0.11439428483E-01 -0.98699422540E-01  0.11464552135E+00  0.51100000000E-03 0. -1.
         11    1    4    4    0    0  0.28671356725E-02 -0.36532653604E-02 -0.17456143133E-01  0.18070552533E-01  0.51100000000E-03 0.  1.
</event>
<event>
 8    1  0.1119901E+005  0.1043930E+01  0.7957747E-01            NaN
         13   -1    0    0    0    0  0.00000000000E+00  0.00000000000E+00  0.74505805969E-08  0.10566000000E+00  0.10566000000E+00 0.  1.
     999900   -1    0    0    0    0 -0.00000000000E+00 -0.00000000000E+00 -0.74505805969E-08  0.93827000000E+00  0.93827000000E+00 0.  1.
     999902    2    1    2    0    0  0.18496390121E-01  0.14408574374E-01  0.84194820441E-04  0.10204836666E+01  0.10202142830E+01 0.  0.
     999903    2    3    3    0    0  0.26342475206E-01 -0.26791687629E-01 -0.12478620313E+00  0.13067939655E+00  0.96844032555E-02 0.  0.
         14    1    1    2    0    0 -0.18496390121E-01 -0.14408574374E-01 -0.84194820441E-04  0.23446333440E-01  0.00000000000E+00 0. -1.
     999901    1    3    3    0    0 -0.78460850845E-02  0.41200262004E-01  0.12487039795E+00  0.88980427001E+00  0.88000000000E+00 0. -1.
        -11    1    4    4    0    0  0.20009207421E-01 -0.18690638739E-01 -0.10307219303E+00  0.10664823700E+00  0.51100000000E-03 0.  1.
         11    1    4    4    0    0  0.63332677850E-02 -0.81010488907E-02 -0.21714010098E-01  0.24031159554E-01  0.51100000000E-03 0. -1.
</event>
<event>
 8    1  0.1119901E+005  0.1043930E+01  0.7957747E-01            NaN
         13   -1    0    0    0    0  0.00000000000E+00  0.00000000000E+00  0.74505805969E-08  0.10566000000E+00  0.10566000000E+00 0.  1.
     999900   -1    0    0    0    0 -0.00000000000E+00 -0.00000000000E+00 -0.74505805969E-08  0.93827000000E+00  0.93827000000E+00 0.  1.
     999902    2    1    2    0    0 -0.30947031650E-02 -0.11108816947E-01  0.20755254793E-01  0.10201862934E+01  0.10199099517E+01 0.  0.
     999903    2    3    3    0    0 -0.38318079745E-01 -0.11948485243E+00 -0.32855997670E-01  0.13122047982E+00  0.19859318822E-01 0.  0.
         14    1    1    2    0    0  0.30947031650E-02  0.11108816947E-01 -0.20755254793E-01  0.23743706602E-01  0.00000000000E+00 0. -1.
     999901    1    3    3    0    0  0.35223376580E-01  0.10837603549E+00  0.53611252463E-01  0.88896581358E+00  0.88000000000E+00 0. -1.
        -11    1    4    4    0    0 -0.16514532617E-02 -0.31096340778E-01 -0.49028707737E-02  0.31527907803E-01  0.51100000000E-03 0.  1.
         11    1    4    4    0    0 -0.36666626483E-01 -0.88388511656E-01 -0.27953126896E-01  0.99692572014E-01  0.51100000000E-03 0. -1.
</event>
<event>
 8    1  0.1119901E+005  0.1043930E+01  0.7957747E-01            NaN
         13   -1    0    0    0    0  0.00000000000E+00  0.00000000000E+00  0.74505805969E-08  0.10566000000E+00  0.10566000000E+00 0. -1.
     999900   -1    0    0    0    0 -0.00000000000E+00 -0.00000000000E+00 -0.74505805969E-08  0.93827000000E+00  0.93827000000E+00 0. -1.
     999902    2    1    2    0    0  0.12521647407E-01  0.18778662858E-01  0.45350851357E-02  0.10209083400E+01  0.10206487358E+01 0.  0.
     999903    2    3    3    0    0  0.99385320055E-01  0.84928979490E-01 -0.18968629328E-01  0.13384938670E+00  0.21574893314E-01 0.  0.
         14    1    1    2    0    0 -0.12521647407E-01 -0.18778662858E-01 -0.45350851357E-02  0.23021660012E-01  0.00000000000E+00 0.  1.
     999901    1    3    3    0    0 -0.86863672649E-01 -0.66150316632E-01  0.23503714464E-01  0.88705895329E+00  0.88000000000E+00 0.  1.
        -11    1    4    4    0    0  0.57536195392E-01  0.43609737289E-01 -0.20384295343E-01  0.75020021222E-01  0.51100000000E-03 0.  1.
         11    1    4    4    0    0  0.41849124663E-01  0.41319242201E-01  0.14156660146E-02  0.58829365477E-01  0.51100000000E-03 0. -1.
</event>
<event>
 8    1  0.1119901E+005  0.1043930E+01  0.7957747E-01            NaN
         13   -1    0    0    0    0  0.00000000000E+00  0.00000000000E+00  0.74505805969E-08  0.10566000000E+00  0.10566000000E+00 0.  1.
     999900   -1    0    0    0    0 -0.00000000000E+00 -0.00000000000E+00 -0.74505805969E-08  0.93827000000E+00  0.93827000000E+00 0. -1.
     999902    2    1    2    0    0 -0.15340425273E-01 -0.10229642624E-01  0.15042623644E-01  0.10201338919E+01  0.10198563147E+01 0.  0.
     999903    2    3    3    0    0  0.11963634403E+00 -0.35538258327E-01 -0.24309910307E-01  0.12861391105E+00  0.19358299508E-01 0.  0.
         14    1    1    2    0    0  0.15340425273E-01  0.10229642624E-01 -0.15042623644E-01  0.23796108124E-01  0.00000000000E+00 0. -1.
     999901    1    3    3    0    0 -0.13497676930E+00  0.25308615703E-01  0.39352533951E-01  0.89151998082E+00  0.88000000000E+00 0.  1.
        -11    1    4    4    0    0  0.85694366220E-01 -0.18641235559E-01 -0.23031033030E-01  0.90673643736E-01  0.51100000000E-03 0.  1.
         11    1    4    4    0    0  0.33941977808E-01 -0.16897022768E-01 -0.12788772774E-02  0.37940267316E-01  0.51100000000E-03 0. -1.
</event>
<event>
 8    1  0.1119901E+005  0.1043930E+01  0.7957747E-01            NaN
         13   -1    0    0    0    0  0.00000000000E+00  0.00000000000E+00  0.74505805969E-08  0.10566000000E+00  0.10566000000E+00 0.  1.
     999900   -1    0    0    0    0 -0.00000000000E+00 -0.00000000000E+00 -0.74505805969E-08  0.93827000000E+00  0.93827000000E+00 0. -1.
     999902    2    1    2    0    0 -0.10075906994E-01  0.16676635005E-01 -0.13637034003E-01  0.10201475957E+01  0.10198703419E+01 0.  0.
     999903    2    3    3    0    0  0.10086489224E+00  0.52790823917E-01  0.58389398281E-01  0.12952988732E+00  0.20200799527E-01 0.  0.
         14    1    1    2    0    0  0.10075906994E-01 -0.16676635005E-01  0.13637034003E-01  0.23782404278E-01  0.00000000000E+00 0.  1.
     999901    1    3    3    0    0 -0.11094079923E+00 -0.36114188912E-01 -0.72026432284E-01  0.89061770840E+00  0.88000000000E+00 0. -1.
        -11    1    4    4    0    0  0.64286098128E-01  0.38840675887E-01  0.28751878977E-01  0.80425320525E-01  0.51100000000E-03 0.  1.
         11    1    4    4    0    0  0.36578794108E-01  0.13950148030E-01  0.29637519304E-01  0.49104566793E-01  0.51100000000E-03 0. -1.
</event>
<event>
 8    1  0.1119901E+005  0.1043930E+01  0.7957747E-01            NaN
         13   -1    0    0    0    0  0.00000000000E+00  0.00000000000E+00  0.74505805969E-08  0.10566000000E+00  0.10566000000E+00 0.  1.
     999900   -1    0    0    0    0 -0.00000000000E+00 -0.00000000000E+00 -0.74505805969E-08  0.93827000000E+00  0.93827000000E+00 0. -1.
     999902    2    1    2    0    0 -0.16923397842E-01 -0.69354130188E-02  0.15439697612E-01  0.10199949711E+01  0.10197141047E+01 0.  0.
     999903    2    3    3    0    0 -0.27861894492E-01 -0.12217169688E+00 -0.33343491393E-01  0.13107492327E+00  0.19147804296E-01 0.  0.
         14    1    1    2    0    0  0.16923397842E-01  0.69354130188E-02 -0.15439697612E-01  0.23935028945E-01  0.00000000000E+00 0. -1.
     999901    1    3    3    0    0  0.10938496650E-01  0.11523628386E+00  0.48783189005E-01  0.88892004779E+00  0.88000000000E+00 0. -1.
        -11    1    4    4    0    0 -0.17235107949E-01 -0.83523593352E-01 -0.31601405423E-01  0.90951358089E-01  0.51100000000E-03 0. -1.
         11    1    4    4    0    0 -0.10626786543E-01 -0.38648103524E-01 -0.17420859700E-02  0.40123565180E-01  0.51100000000E-03 0.  1.
</event>
<event>
 8    1  0.1119901E+005  0.1043930E+01  0.7957747E-01            NaN
         13   -1    0    0    0    0  0.00000000000E+00  0.00000000000E+00  0.74505805969E-08  0.10566000000E+00  0.10566000000E+00 0. -1.
     999900   -1    0    0    0    0 -0.00000000000E+00 -0.00000000000E+00 -0.74505805969E-08  0.93827000000E+00  0.93827000000E+00 0.  1.
     999902    2    1    2    0    0  0.14022030131E-01 -0.14080105337E-01 -0.12839248324E-01  0.10202717458E+01  0.10199974129E+01 0.  0.
     999903    2    3    3    0    0 -0.32779480968E-01 -0.34862592677E-01 -0.12126760217E+00  0.13213943517E+00  0.21566275798E-01 0.  0.
         14    1    1    2    0    0 -0.14022030131E-01  0.14080105337E-01  0.12839248324E-01  0.23658254222E-01  0.00000000000E+00 0.  1.
     999901    1    3    3    0    0  0.46801511099E-01  0.20782487339E-01  0.10842835384E+00  0.88813231060E+00  0.88000000000E+00 0. -1.
        -11    1    4    4    0    0 -0.59219008133E-02 -0.62391685640E-02 -0.50355347871E-01  0.51087359629E-01  0.51100000000E-03 0. -1.
         11    1    4    4    0    0 -0.26857580154E-01 -0.28623424113E-01 -0.70912254297E-01  0.81052075545E-01  0.51100000000E-03 0.  1.
</event>
<event>
 8    1  0.1119901E+005  0.1043930E+01  0.7957747E-01            NaN
         13   -1    0    0    0    0  0.00000000000E+00  0.00000000000E+00  0.74505805969E-08  0.10566000000E+00  0.10566000000E+00 0.  1.
     999900   -1    0    0    0    0 -0.00000000000E+00 -0.00000000000E+00 -0.74505805969E-08  0.93827000000E+00  0.93827000000E+00 0. -1.
     999902    2    1    2    0    0 -0.44175062362E-02 -0.23691455394E-01 -0.56177223565E-02  0.10191841271E+01  0.10188836669E+01 0.  0.
     999903    2    3    3    0    0 -0.43995439127E-01  0.58755824973E-01  0.10270934224E+00  0.12783755045E+00  0.20134167260E-01 0.  0.
         14    1    1    2    0    0  0.44175062362E-02  0.23691455394E-01  0.56177223565E-02  0.24745872879E-01  0.00000000000E+00 0.  1.
     999901    1    3    3    0    0  0.39577932891E-01 -0.82447280367E-01 -0.10832706459E+00  0.89134657667E+00  0.88000000000E+00 0. -1.
        -11    1    4    4    0    0  0.14628191231E-03  0.79324495045E-02  0.58002696479E-02  0.98412094037E-02  0.51100000000E-03 0.  1.
         11    1    4    4    0    0 -0.44141721040E-01  0.50823375468E-01  0.96909072589E-01  0.11799634105E+00  0.51100000000E-03 0. -1.
</event>
<event>
 8    1  0.1119901E+005  0.1043930E+01  0.7957747E-01            NaN
         13   -1    0    0    0    0  0.00000000000E+00  0.00000000000E+00  0.74505805969E-08  0.10566000000E+00  0.10566000000E+00 0.  1.
     999900   -1    0    0    0    0 -0.00000000000E+00 -0.00000000000E+00 -0.74505805969E-08  0.93827000000E+00  0.93827000000E+00 0.  1.
     999902    2    1    2    0    0  0.56807961787E-02  0.21195643696E-01  0.64024205408E-02  0.10210713529E+01  0.10208154535E+01 0.  0.
     999903    2    3    3    0    0 -0.68104594225E-01  0.10512619322E+00 -0.39377263307E-01  0.13282341433E+00  0.20043409702E-01 0.  0.
         14    1    1    2    0    0 -0.56807961787E-02 -0.21195643696E-01 -0.64024205408E-02  0.22858647066E-01  0.00000000000E+00 0.  1.
     999901    1    3    3    0    0  0.73785390403E-01 -0.83930549528E-01  0.45779683847E-01  0.88824793860E+00  0.88000000000E+00 0. -1.
        -11    1    4    4    0    0 -0.13975012215E-01  0.26668413126E-01 -0.11822620086E-02  0.30135760975E-01  0.51100000000E-03 0.  1.
         11    1    4    4    0    0 -0.54129582010E-01  0.78457780098E-01 -0.38195001298E-01  0.10268765336E+00  0.51100000000E-03 0. -1.
</event>
<event>
 8    1  0.1119901E+005  0.1043930E+01  0.7957747E-01            NaN
         13   -1    0    0    0    0  0.00000000000E+00  0.00000000000E+00  0.74505805969E-08  0.10566000000E+00  0.10566000000E+00 0.  1.
     999900   -1    0    0    0    0 -0.00000000000E+00 -0.00000000000E+00 -0.74505805969E-08  0.93827000000E+00  0.93827000000E+00 0. -1.
     999902    2    1    2    0    0  0.99058538919E-02 -0.21000034634E-01  0.78721327721E-02  0.10194127026E+01  0.10191178344E+01 0.  0.
     999903    2    3    3    0    0 -0.90491698358E-02 -0.10729767552E+00 -0.72356305208E-01  0.13135686091E+00  0.20603673458E-01 0.  0.
         14    1    1    2    0    0 -0.99058538919E-02  0.21000034634E-01 -0.78721327721E-02  0.24517297370E-01  0.00000000000E+00 0. -1.
     999901    1    3    3    0    0  0.18955023728E-01  0.86297640881E-01  0.80228437980E-01  0.88805584172E+00  0.88000000000E+00 0.  1.
        -11    1    4    4    0    0  0.39889432744E-02 -0.35734455794E-01 -0.32180308644E-01  0.48256568307E-01  0.51100000000E-03 0. -1.
         11    1    4    4    0    0 -0.13038113110E-01 -0.71563219722E-01 -0.40175996563E-01  0.83100292606E-01  0.51100000000E-03 0.  1.
</event>
<event>
 8    1  0.1119901E+005  0.1043930E+01  0.7957747E-01            NaN
         13   -1    0    0    0    0  0.00000000000E+00  0.00000000000E+00  0.74505805969E-08  0.10566000000E+00  0.10566000000E+00 0.  1.
     999900   -1    0    0    0    0 -0.00000000000E+00 -0.00000000000E+00 -0.74505805969E-08  0.93827000000E+00  0.93827000000E+00 0. -1.
     999902    2    1    2    0    0  0.10239307221E-01 -0.31655679828E-02  0.20722007335E-01  0.10206004946E+01  0.10203338198E+01 0.  0.
     999903    2    3    3    0    0 -0.11247330887E+00  0.79275215329E-02  0.63632866899E-01  0.13098103404E+00  0.19844362499E-01 0.  0.
         14    1    1    2    0    0 -0.10239307221E-01  0.31655679828E-02 -0.20722007335E-01  0.23329505374E-01  0.00000000000E+00 0. -1.
     999901    1    3    3    0    0  0.12271261609E+00 -0.11093089516E-01 -0.42910859564E-01  0.88961946058E+00  0.88000000000E+00 0. -1.
        -11    1    4    4    0    0 -0.13402233486E-01 -0.37179245533E-02  0.13286742425E-01  0.19241659769E-01  0.51100000000E-03 0.  1.
         11    1    4    4    0    0 -0.99071075383E-01  0.11645446086E-01  0.50346124474E-01  0.11173937427E+00  0.51100000000E-03 0. -1.
</event>
<event>
 8    1  0.1119901E+005  0.1043930E+01  0.7957747E-01            NaN
         13   -1    0    0    0    0  0.00000000000E+00  0.00000000000E+00  0.74505805969E-08  0.10566000000E+00  0.10566000000E+00 0.  1.
     999900   -1    0    0    0    0 -0.00000000000E+00 -0.00000000000E+00 -0.74505805969E-08  0.93827000000E+00  0.93827000000E+00 0. -1.
     999902    2    1    2    0    0 -0.22573680790E-01 -0.73736351018E-02  0.33660833834E-02  0.10199451699E+01  0.10196631196E+01 0.  0.
     999903    2    3    3    0    0  0.10241714379E-01  0.10503450346E+00  0.71999215050E-01  0.12953911276E+00  0.21432571843E-01 0.  0.
         14    1    1    2    0    0  0.22573680790E-01  0.73736351018E-02 -0.33660833834E-02  0.23984830130E-01  0.00000000000E+00 0.  1.
     999901    1    3    3    0    0 -0.32815395169E-01 -0.11240813856E+00 -0.68633131667E-01  0.89040605711E+00  0.88000000000E+00 0. -1.
        -11    1    4    4    0    0 -0.26689025329E-02  0.73914553417E-01  0.50800423134E-01  0.89729751806E-01  0.51100000000E-03 0.  1.
         11    1    4    4    0    0  0.12910616912E-01  0.31119950045E-01  0.21198791916E-01  0.39809360954E-01  0.51100000000E-03 0. -1.
</event>
<event>
 8    1  0.1119901E+005  0.1043930E+01  0.7957747E-01            NaN
         13   -1    0    0    0    0  0.00000000000E+00  0.00000000000E+00  0.74505805969E-08  0.10566000000E+00  0.10566000000E+00 0. -1.
     999900   -1    0    0    0    0 -0.00000000000E+00 -0.00000000000E+00 -0.74505805969E-08  0.93827000000E+00  0.93827000000E+00 0. -1.
     999902    2    1    2    0    0  0.24661901402E-02 -0.15331815012E-01 -0.63124902208E-02  0.10271671190E+01  0.10270303288E+01 0.  0.
     999903    2    3    3    0    0  0.56501472121E-01 -0.19915465562E-02  0.12239268568E+00  0.13606510649E+00  0.18367391919E-01 0.  0.
         14    1    1    2    0    0 -0.24661901402E-02  0.15331815012E-01  0.63124902208E-02  0.16762880962E-01  0.00000000000E+00 0. -1.
     999901    1    3    3    0    0 -0.54035281981E-01 -0.13340268455E-01 -0.12870517590E+00  0.89110201255E+00  0.88000000000E+00 0. -1.
        -11    1    4    4    0    0  0.41834421923E-01  0.63559804604E-02  0.92835829788E-01  0.10202582888E+00  0.51100000000E-03 0. -1.
         11    1    4    4    0    0  0.14667050198E-01 -0.83475270167E-02  0.29556855896E-01  0.34039277610E-01  0.51100000000E-03 0.  1.
</event>
<event>
 8    1  0.1119901E+005  0.1043930E+01  0.7957747E-01            NaN
         13   -1    0    0    0    0  0.00000000000E+00  0.00000000000E+00  0.74505805969E-08  0.10566000000E+00  0.10566000000E+00 0.  1.
     999900   -1    0    0    0    0 -0.00000000000E+00 -0.00000000000E+00 -0.74505805969E-08  0.93827000000E+00  0.93827000000E+00 0. -1.
     999902    2    1    2    0    0 -0.58030106247E-02 -0.10704392506E-01  0.19873734995E-01  0.10206228274E+01  0.10203566688E+01 0.  0.
     999903    2    3    3    0    0 -0.12065919686E+00  0.46175068177E-01 -0.76922909155E-02  0.13091101882E+00  0.19691236686E-01 0.  0.
         14    1    1    2    0    0  0.58030106247E-02  0.10704392506E-01 -0.19873734995E-01  0.23307172585E-01  0.00000000000E+00 0. -1.
     999901    1    3    3    0    0  0.11485618623E+00 -0.56879460683E-01  0.27566025911E-01  0.88971180859E+00  0.88000000000E+00 0.  1.
        -11    1    4    4    0    0 -0.77142252632E-01  0.21627135564E-01  0.13706084073E-02  0.80129893437E-01  0.51100000000E-03 0. -1.
         11    1    4    4    0    0 -0.43516944226E-01  0.24547932613E-01 -0.90628993228E-02  0.50781125386E-01  0.51100000000E-03 0.  1.
</event>
<event>
 8    1  0.1119901E+005  0.1043930E+01  0.7957747E-01            NaN
         13   -1    0    0    0    0  0.00000000000E+00  0.00000000000E+00  0.74505805969E-08  0.10566000000E+00  0.10566000000E+00 0.  1.
     999900   -1    0    0    0    0 -0.00000000000E+00 -0.00000000000E+00 -0.74505805969E-08  0.93827000000E+00  0.93827000000E+00 0. -1.
     999902    2    1    2    0    0 -0.33102322707E-02 -0.23444479865E-01 -0.42722468587E-04  0.10202529415E+01  0.10199781672E+01 0.  0.
     999903    2    3    3    0    0 -0.30398472001E-01 -0.12589118433E+00  0.25536100682E-01  0.13352672886E+00  0.20115603206E-01 0.  0.
         14    1    1    2    0    0  0.33102322707E-02  0.23444479865E-01  0.42722468587E-04  0.23677058497E-01  0.00000000000E+00 0.  1.
     999901    1    3    3    0    0  0.27088239731E-01  0.10244670446E+00 -0.25578823150E-01  0.88672621264E+00  0.88000000000E+00 0. -1.
        -11    1    4    4    0    0 -0.21285620697E-01 -0.81718316983E-01  0.69182489612E-02  0.84729476976E-01  0.51100000000E-03 0. -1.
         11    1    4    4    0    0 -0.91128513040E-02 -0.44172867343E-01  0.18617851720E-01  0.48797251889E-01  0.51100000000E-03 0.  1.
</event>
<event>
 8    1  0.1119901E+005  0.1043930E+01  0.7957747E-01            NaN
         13   -1    0    0    0    0  0.00000000000E+00  0.00000000000E+00  0.74505805969E-08  0.10566000000E+00  0.10566000000E+00 0. -1.
     999900   -1    0    0    0    0 -0.00000000000E+00 -0.00000000000E+00 -0.74505805969E-08  0.93827000000E+00  0.93827000000E+00 0.  1.
     999902    2    1    2    0    0  0.22590280702E-01  0.13482956120E-02  0.26786210973E-02  0.10211415447E+01  0.10208872321E+01 0.  0.
     999903    2    3    3    0    0 -0.62891410216E-01  0.86308258620E-01 -0.71010722807E-01  0.12987534756E+00  0.20509465230E-01 0.  0.
         14    1    1    2    0    0 -0.22590280702E-01 -0.13482956120E-02 -0.26786210973E-02  0.22788455284E-01  0.00000000000E+00 0. -1.
     999901    1    3    3    0    0  0.85481690918E-01 -0.84959963008E-01  0.73689343904E-01  0.89126619716E+00  0.88000000000E+00 0. -1.
        -11    1    4    4    0    0 -0.64412940214E-01  0.83089758044E-01 -0.69006735774E-01  0.12575820236E+00  0.51100000000E-03 0.  1.
         11    1    4    4    0    0  0.15215299978E-02  0.32185005762E-02 -0.20039870328E-02  0.41171451906E-02  0.51100000000E-03 0. -1.
</event>
<event>
 8    1  0.1119901E+005  0.1043930E+01  0.7957747E-01            NaN
         13   -1    0    0    0    0  0.00000000000E+00  0.00000000000E+00  0.74505805969E-08  0.10566000000E+00  0.10566000000E+00 0.  1.
     999900   -1    0    0    0    0 -0.00000000000E+00 -0.00000000000E+00 -0.74505805969E-08  0.93827000000E+00  0.93827000000E+00 0.  1.
     999902    2    1    2    0    0  0.17056763658E-01  0.82470083866E-02 -0.14118356276E-01  0.10203021707E+01  0.10200285512E+01 0.  0.
     999903    2    3    3    0    0 -0.82759634740E-01 -0.45189643559E-01 -0.87048798913E-01  0.13005634025E+00  0.21116278544E-01 0.  0.
         14    1    1    2    0    0 -0.17056763658E-01 -0.82470083866E-02  0.14118356276E-01  0.23627829307E-01  0.00000000000E+00 0.  1.
     999901    1    3    3    0    0  0.99816398398E-01  0.53436651945E-01  0.72930442637E-01  0.89024583044E+00  0.88000000000E+00 0. -1.
        -11    1    4    4    0    0 -0.21400311697E-01 -0.29282837295E-02 -0.14204822129E-01  0.25857035388E-01  0.51100000000E-03 0. -1.
         11    1    4    4    0    0 -0.61359323043E-01 -0.42261359829E-01 -0.72843976784E-01  0.10419930486E+00  0.51100000000E-03 0.  1.
</event>
<event>
 8    1  0.1119901E+005  0.1043930E+01  0.7957747E-01            NaN
         13   -1    0    0    0    0  0.00000000000E+00  0.00000000000E+00  0.74505805969E-08  0.10566000000E+00  0.10566000000E+00 0. -1.
     999900   -1    0    0    0    0 -0.00000000000E+00 -0.00000000000E+00 -0.74505805969E-08  0.93827000000E+00  0.93827000000E+00 0. -1.
     999902    2    1    2    0    0 -0.10444803004E-01 -0.18393971050E-01 -0.10036493342E-01  0.10205171130E+01  0.10202485063E+01 0.  0.
     999903    2    3    3    0    0 -0.87237656641E-01 -0.97226351562E-01  0.15926741398E-01  0.13328220825E+00  0.21145064903E-01 0.  0.
         14    1    1    2    0    0  0.10444803004E-01  0.18393971050E-01  0.10036493342E-01  0.23412887037E-01  0.00000000000E+00 0.  1.
     999901    1    3    3    0    0  0.76792853637E-01  0.78832380511E-01 -0.25963234740E-01  0.88723490472E+00  0.88000000000E+00 0. -1.
        -11    1    4    4    0    0 -0.27317890006E-01 -0.32971589660E-01 -0.45671772477E-02  0.43064057729E-01  0.51100000000E-03 0. -1.
         11    1    4    4    0    0 -0.59919766635E-01 -0.64254761902E-01  0.20493918646E-01  0.90218150519E-01  0.51100000000E-03 0.  1.
</event>
<event>
 8    1  0.1119901E+005  0.1043930E+01  0.7957747E-01            NaN
         13   -1    0    0    0    0  0.00000000000E+00  0.00000000000E+00  0.74505805969E-08  0.10566000000E+00  0.10566000000E+00 0.  1.
     999900   -1    0    0    0    0 -0.00000000000E+00 -0.00000000000E+00 -0.74505805969E-08  0.93827000000E+00  0.93827000000E+00 0.  1.
     999902    2    1    2    0    0 -0.49321234637E-02 -0.20460258238E-02  0.24176745066E-01  0.10191706166E+01  0.10188698242E+01 0.  0.
     999903    2    3    3    0    0  0.11038718128E+00  0.31997428735E-01  0.57957265185E-01  0.13035194985E+00  0.20577196261E-01 0.  0.
         14    1    1    2    0    0  0.49321234637E-02  0.20460258238E-02 -0.24176745066E-01  0.24759383383E-01  0.00000000000E+00 0. -1.
     999901    1    3    3    0    0 -0.11531930475E+00 -0.34043454558E-01 -0.33780520119E-01  0.88881866676E+00  0.88000000000E+00 0.  1.
        -11    1    4    4    0    0  0.96886182992E-02  0.41250779116E-02  0.12645904885E-01  0.16464070690E-01  0.51100000000E-03 0. -1.
         11    1    4    4    0    0  0.10069856298E+00  0.27872350823E-01  0.45311360300E-01  0.11388787916E+00  0.51100000000E-03 0.  1.
</event>
<event>
 8    1  0.1119901E+005  0.1043930E+01  0.7957747E-01            NaN
         13   -1    0    0    0    0  0.00000000000E+00  0.00000000000E+00  0.74505805969E-08  0.10566000000E+00  0.10566000000E+00 0. -1.
     999900   -1    0    0    0    0 -0.00000000000E+00 -0.00000000000E+00 -0.74505805969E-08  0.93827000000E+00  0.93827000000E+00 0. -1.
     999902    2    1    2    0    0 -0.16280735550E-01  0.25173162343E-02  0.16266068617E-01  0.10207786670E+01  0.10205160963E+01 0.  0.
     999903    2    3    3    0    0 -0.81083114413E-01 -0.76068823401E-01  0.66447924730E-01  0.13348314221E+00  0.32272050076E-01 0.  0.
         14    1    1    2    0    0  0.16280735550E-01 -0.25173162343E-02 -0.16266068617E-01  0.23151332992E-01  0.00000000000E+00 0.  1.
     999901    1    3    3    0    0  0.64802378863E-01  0.78586139635E-01 -0.50181856113E-01  0.88729552480E+00  0.88000000000E+00 0. -1.
        -11    1    4    4    0    0 -0.53342692023E-01 -0.36298723090E-01  0.52045501549E-01  0.82897740879E-01  0.51100000000E-03 0. -1.
         11    1    4    4    0    0 -0.27740422390E-01 -0.39770100311E-01  0.14402423180E-01  0.50585401328E-01  0.51100000000E-03 0.  1.
</event>
<event>
 8    1  0.1119901E+005  0.1043930E+01  0.7957747E-01            NaN
         13   -1    0    0    0    0  0.00000000000E+00  0.00000000000E+00  0.74505805969E-08  0.10566000000E+00  0.10566000000E+00 0.  1.
     999900   -1    0    0    0    0 -0.00000000000E+00 -0.00000000000E+00 -0.74505805969E-08  0.93827000000E+00  0.93827000000E+00 0.  1.
     999902    2    1    2    0    0  0.18607508213E-01  0.11686637805E-01  0.90802471618E-02  0.10201546398E+01  0.10198775521E+01 0.  0.
     999903    2    3    3    0    0 -0.35107601160E-01  0.11116188612E+00 -0.55445863849E-01  0.13057931582E+00  0.19677533254E-01 0.  0.
         14    1    1    2    0    0 -0.18607508213E-01 -0.11686637805E-01 -0.90802471618E-02  0.23775360221E-01  0.00000000000E+00 0.  1.
     999901    1    3    3    0    0  0.53715109373E-01 -0.99475248319E-01  0.64526111011E-01  0.88957532396E+00  0.88000000000E+00 0. -1.
        -11    1    4    4    0    0 -0.32396367087E-01  0.72003034434E-01 -0.36226682946E-01  0.86871141620E-01  0.51100000000E-03 0.  1.
         11    1    4    4    0    0 -0.27112340732E-02  0.39158851690E-01 -0.19219180904E-01  0.43708174195E-01  0.51100000000E-03 0. -1.
</event>
<event>
 8    1  0.1119901E+005  0.1043930E+01  0.7957747E-01            NaN
         13   -1    0    0    0    0  0.00000000000E+00  0.00000000000E+00  0.74505805969E-08  0.10566000000E+00  0.10566000000E+00 0. -1.
     999900   -1    0    0    0    0 -0.00000000000E+00 -0.00000000000E+00 -0.74505805969E-08  0.93827000000E+00  0.93827000000E+00 0.  1.
     999902    2    1    2    0    0 -0.69143067935E-02 -0.19757943080E-01  0.12475978616E-01  0.10195612906E+01  0.10192700287E+01 0.  0.
     999903    2    3    3    0    0  0.53953945046E-01  0.60594862255E-02  0.11716222055E+00  0.13089335886E+00  0.21408874517E-01 0.  0.
         14    1    1    2    0    0  0.69143067935E-02  0.19757943080E-01 -0.12475978616E-01  0.24368709355E-01  0.00000000000E+00 0.  1.
     999901    1    3    3    0    0 -0.60868251840E-01 -0.25817429306E-01 -0.10468624194E+00  0.88866793179E+00  0.88000000000E+00 0.  1.
        -11    1    4    4    0    0  0.32223057072E-01  0.13265974407E-01  0.79693209096E-01  0.86980343648E-01  0.51100000000E-03 0. -1.
         11    1    4    4    0    0  0.21730887974E-01 -0.72064881812E-02  0.37469011458E-01  0.43913015209E-01  0.51100000000E-03 0.  1.
</event>
<event>
 8    1  0.1119901E+005  0.1043930E+01  0.7957747E-01            NaN
         13   -1    0    0    0    0  0.00000000000E+00  0.00000000000E+00  0.74505805969E-08  0.10566000000E+00  0.10566000000E+00 0. -1.
     999900   -1    0    0    0    0 -0.00000000000E+00 -0.00000000000E+00 -0.74505805969E-08  0.93827000000E+00  0.93827000000E+00 0.  1.
     999902    2    1    2    0    0  0.84832482293E-02  0.23186516013E-01 -0.22814985072E-02  0.10191351364E+01  0.10188334707E+01 0.  0.
     999903    2    3    3    0    0 -0.45837979521E-01  0.77331043752E-01  0.92794947069E-01  0.13069720600E+00  0.19739472167E-01 0.  0.
         14    1    1    2    0    0 -0.84832482293E-02 -0.23186516013E-01  0.22814985072E-02  0.24794863597E-01  0.00000000000E+00 0.  1.
     999901    1    3    3    0    0  0.54321227750E-01 -0.54144527739E-01 -0.95076445576E-01  0.88843793040E+00  0.88000000000E+00 0.  1.
        -11    1    4    4    0    0 -0.31237666662E-01  0.44436091213E-01  0.67801770194E-01  0.86877495263E-01  0.51100000000E-03 0.  1.
         11    1    4    4    0    0 -0.14600312858E-01  0.32894952539E-01  0.24993176876E-01  0.43819710741E-01  0.51100000000E-03 0. -1.
</event>
<event>
 8    1  0.1119901E+005  0.1043930E+01  0.7957747E-01            NaN
         13   -1    0    0    0    0  0.00000000000E+00  0.00000000000E+00  0.74505805969E-08  0.10566000000E+00  0.10566000000E+00 0.  1.
     999900   -1    0    0    0    0 -0.00000000000E+00 -0.00000000000E+00 -0.74505805969E-08  0.93827000000E+00  0.93827000000E+00 0.  1.
     999902    2    1    2    0    0 -0.21203863285E-01  0.33867504874E-02 -0.60461037132E-02  0.10216223944E+01  0.10213788168E+01 0.  0.
     999903    2    3    3    0    0  0.75264822694E-02  0.80931729513E-01 -0.10256051310E+00  0.13249153354E+00  0.20706396007E-01 0.  0.
         14    1    1    2    0    0  0.21203863285E-01 -0.33867504874E-02  0.60461037132E-02  0.22307605591E-01  0.00000000000E+00 0. -1.
     999901    1    3    3    0    0 -0.28730345555E-01 -0.77544979026E-01  0.96514409386E-01  0.88913086087E+00  0.88000000000E+00 0. -1.
        -11    1    4    4    0    0 -0.57586330475E-02  0.25401978224E-01 -0.40544075204E-01  0.48192380180E-01  0.51100000000E-03 0.  1.
         11    1    4    4    0    0  0.13285115317E-01  0.55529751289E-01 -0.62016437895E-01  0.84299153361E-01  0.51100000000E-03 0. -1.
</event>
<event>
 8    1  0.1119901E+005  0.1043930E+01  0.7957747E-01            NaN
         13   -1    0    0    0    0  0.00000000000E+00  0.00000000000E+00  0.74505805969E-08  0.10566000000E+00  0.10566000000E+00 0.  1.
     999900   -1    0    0    0    0 -0.00000000000E+00 -0.00000000000E+00 -0.74505805969E-08  0.93827000000E+00  0.93827000000E+00 0.  1.
     999902    2    1    2    0    0 -0.34413640609E-02  0.22210861675E-01 -0.88631595839E-02  0.10197696821E+01  0.10194834396E+01 0.  0.
     999903    2    3    3    0    0 -0.14279372894E-01  0.10151521366E+00  0.80213403437E-01  0.13165860980E+00  0.19762599723E-01 0.  0.
         14    1    1    2    0    0  0.34413640609E-02 -0.22210861675E-01  0.88631595839E-02  0.24160317895E-01  0.00000000000E+00 0.  1.
     999901    1    3    3    0    0  0.10838008833E-01 -0.79304351984E-01 -0.89076563021E-01  0.88811107231E+00  0.88000000000E+00 0.  1.
        -11    1    4    4    0    0 -0.10564254723E-01  0.28218125262E-01  0.31364197511E-01  0.43495287994E-01  0.51100000000E-03 0.  1.
         11    1    4    4    0    0 -0.37151181710E-02  0.73297088397E-01  0.48849205926E-01  0.88163321802E-01  0.51100000000E-03 0. -1.
</event>
<event>
 8    1  0.1119901E+005  0.1043930E+01  0.7957747E-01            NaN
         13   -1    0    0    0    0  0.00000000000E+00  0.00000000000E+00  0.74505805969E-08  0.10566000000E+00  0.10566000000E+00 0.  1.
     999900   -1    0    0    0    0 -0.00000000000E+00 -0.00000000000E+00 -0.74505805969E-08  0.93827000000E+00  0.93827000000E+00 0. -1.
     999902    2    1    2    0    0  0.18196296955E-01 -0.31639205166E-02 -0.14691885662E-01  0.10203298491E+01  0.10200568778E+01 0.  0.
     999903    2    3    3    0    0  0.12011536050E+00  0.44001457047E-01 -0.30641720666E-01  0.13304947317E+00  0.19985475124E-01 0.  0.
         14    1    1    2    0    0 -0.18196296955E-01  0.31639205166E-02  0.14691885662E-01  0.23600150851E-01  0.00000000000E+00 0. -1.
     999901    1    3    3    0    0 -0.10191906355E+00 -0.47165377563E-01  0.15949835005E-01  0.88728037598E+00  0.88000000000E+00 0. -1.
        -11    1    4    4    0    0  0.37348910634E-01  0.23686869682E-01 -0.93998350020E-02  0.45217551238E-01  0.51100000000E-03 0. -1.
         11    1    4    4    0    0  0.82766449866E-01  0.20314587364E-01 -0.21241885664E-01  0.87831921935E-01  0.51100000000E-03 0.  1.
</event>
<event>
 8    1  0.1119901E+005  0.1043930E+01  0.7957747E-01            NaN
         13   -1    0    0    0    0  0.00000000000E+00  0.00000000000E+00  0.74505805969E-08  0.10566000000E+00  0.10566000000E+00 0.  1.
     999900   -1    0    0    0    0 -0.00000000000E+00 -0.00000000000E+00 -0.74505805969E-08  0.93827000000E+00  0.93827000000E+00 0.  1.
     999902    2    1    2    0    0  0.87353318240E-02 -0.15771757827E-01  0.10482510501E-01  0.10230748473E+01  0.10228622614E+01 0.  0.
     999903    2    3    3    0    0 -0.12506864259E+00 -0.20414452509E-01  0.33859705964E-01  0.13264149695E+00  0.19707150860E-01 0.  0.
         14    1    1    2    0    0 -0.87353318240E-02  0.15771757827E-01 -0.10482510501E-01  0.20855152683E-01  0.00000000000E+00 0.  1.
     999901    1    3    3    0    0  0.13380397441E+00  0.46426946822E-02 -0.23377195463E-01  0.89043335037E+00  0.88000000000E+00 0.  1.
        -11    1    4    4    0    0 -0.16464899662E-01  0.92149848859E-03 -0.11955727220E-02  0.16541843775E-01  0.51100000000E-03 0. -1.
         11    1    4    4    0    0 -0.10860374292E+00 -0.21335950998E-01  0.35055278685E-01  0.11609965317E+00  0.51100000000E-03 0.  1.
</event>
<event>
 8    1  0.1119901E+005  0.1043930E+01  0.7957747E-01            NaN
         13   -1    0    0    0    0  0.00000000000E+00  0.00000000000E+00  0.74505805969E-08  0.10566000000E+00  0.10566000000E+00 0. -1.
     999900   -1    0    0    0    0 -0.00000000000E+00 -0.00000000000E+00 -0.74505805969E-08  0.93827000000E+00  0.93827000000E+00 0.  1.
     999902    2    1    2    0    0  0.29816732906E-02 -0.60506051661E-02 -0.22827341123E-01  0.10201268972E+01  0.10198491549E+01 0.  0.
     999903    2    3    3    0    0 -0.52738042484E-02 -0.10244758339E+00  0.76451359672E-01  0.12927517514E+00  0.18545623708E-01 0.  0.
         14    1    1    2    0    0 -0.29816732906E-02  0.60506051661E-02  0.22827341123E-01  0.23803102765E-01  0.00000000000E+00 0. -1.
     999901    1    3    3    0    0  0.82554775390E-02  0.96396978227E-01 -0.99278700795E-01  0.89085172209E+00  0.88000000000E+00 0.  1.
        -11    1    4    4    0    0  0.43644796365E-02 -0.52002480705E-01  0.31059004325E-01  0.60730795752E-01  0.51100000000E-03 0. -1.
         11    1    4    4    0    0 -0.96382838848E-02 -0.50445102688E-01  0.45392355347E-01  0.68544379393E-01  0.51100000000E-03 0.  1.
</event>
<event>
 8    1  0.1119901E+005  0.1043930E+01  0.7957747E-01            NaN
         13   -1    0    0    0    0  0.00000000000E+00  0.00000000000E+00  0.74505805969E-08  0.10566000000E+00  0.10566000000E+00 0.  1.
     999900   -1    0    0    0    0 -0.00000000000E+00 -0.00000000000E+00 -0.74505805969E-08  0.93827000000E+00  0.93827000000E+00 0. -1.
     999902    2    1    2    0    0 -0.23208886475E-02 -0.28185987307E-01 -0.95756419835E-02  0.10140715117E+01  0.10136318373E+01 0.  0.
     999903    2    3    3    0    0 -0.11144463014E+00  0.49941312490E-01 -0.41962589234E-02  0.12388006953E+00  0.20362287650E-01 0.  0.
         14    1    1    2    0    0  0.23208886475E-02  0.28185987307E-01  0.95756419835E-02  0.29858488307E-01  0.00000000000E+00 0. -1.
     999901    1    3    3    0    0  0.10912374149E+00 -0.78127299797E-01 -0.53793830601E-02  0.89019144216E+00  0.88000000000E+00 0. -1.
        -11    1    4    4    0    0 -0.40913972631E-01  0.82395599200E-02  0.12893320140E-02  0.41758436300E-01  0.51100000000E-03 0. -1.
         11    1    4    4    0    0 -0.70530657509E-01  0.41701752570E-01 -0.54855909374E-02  0.82121633234E-01  0.51100000000E-03 0.  1.
</event>
<event>
 8    1  0.1119901E+005  0.1043930E+01  0.7957747E-01            NaN
         13   -1    0    0    0    0  0.00000000000E+00  0.00000000000E+00  0.74505805969E-08  0.10566000000E+00  0.10566000000E+00 0. -1.
     999900   -1    0    0    0    0 -0.00000000000E+00 -0.00000000000E+00 -0.74505805969E-08  0.93827000000E+00  0.93827000000E+00 0. -1.
     999902    2    1    2    0    0 -0.10427803944E-01  0.13705915935E-01  0.15116023815E-01  0.10210152580E+01  0.10207580867E+01 0.  0.
     999903    2    3    3    0    0  0.39684401701E-01  0.27520625913E-01 -0.11839176934E+00  0.12942880102E+00  0.20074035417E-01 0.  0.
         14    1    1    2    0    0  0.10427803944E-01 -0.13705915935E-01 -0.15116023815E-01  0.22914742038E-01  0.00000000000E+00 0. -1.
     999901    1    3    3    0    0 -0.50112205645E-01 -0.13814709978E-01  0.13350779315E+00  0.89158645694E+00  0.88000000000E+00 0.  1.
        -11    1    4    4    0    0  0.17890605152E-01  0.11944282628E-01 -0.29018021110E-01  0.36125424709E-01  0.51100000000E-03 0. -1.
         11    1    4    4    0    0  0.21793796549E-01  0.15576343285E-01 -0.89373748228E-01  0.93303376313E-01  0.51100000000E-03 0.  1.
</event>
<event>
 8    1  0.1119901E+005  0.1043930E+01  0.7957747E-01            NaN
         13   -1    0    0    0    0  0.00000000000E+00  0.00000000000E+00  0.74505805969E-08  0.10566000000E+00  0.10566000000E+00 0. -1.
     999900   -1    0    0    0    0 -0.00000000000E+00 -0.00000000000E+00 -0.74505805969E-08  0.93827000000E+00  0.93827000000E+00 0.  1.
     999902    2    1    2    0    0 -0.18733188863E-01 -0.14205710694E-01  0.12753003627E-02  0.10203851285E+01  0.10201134494E+01 0.  0.
     999903    2    3    3    0    0  0.87552415079E-02 -0.13000803774E+00  0.15011428371E-02  0.13237282921E+00  0.23271621134E-01 0.  0.
         14    1    1    2    0    0  0.18733188863E-01  0.14205710694E-01 -0.12753003627E-02  0.23544871465E-01  0.00000000000E+00 0. -1.
     999901    1    3    3    0    0 -0.27488430371E-01  0.11580232705E+00 -0.22584247445E-03  0.88801229933E+00  0.88000000000E+00 0. -1.
        -11    1    4    4    0    0  0.61439360139E-02 -0.10457307874E+00  0.10459234909E-01  0.10527551218E+00  0.51100000000E-03 0.  1.
         11    1    4    4    0    0  0.26113054940E-02 -0.25434959000E-01 -0.89580920720E-02  0.27097317031E-01  0.51100000000E-03 0. -1.
</event>
<event>
 8    1  0.1119901E+005  0.1043930E+01  0.7957747E-01            NaN
         13   -1    0    0    0    0  0.00000000000E+00  0.00000000000E+00  0.74505805969E-08  0.10566000000E+00  0.10566000000E+00 0. -1.
     999900   -1    0    0    0    0 -0.00000000000E+00 -0.00000000000E+00 -0.74505805969E-08  0.93827000000E+00  0.93827000000E+00 0.  1.
     999902    2    1    2    0    0  0.13092186397E-01  0.14087409516E-01  0.13687144804E-01  0.10203249500E+01  0.10200518640E+01 0.  0.
     999903    2    3    3    0    0 -0.73137376527E-01  0.10767266797E+00  0.40483236851E-02  0.13111932420E+00  0.15277728281E-01 0.  0.
         14    1    1    2    0    0 -0.13092186397E-01 -0.14087409516E-01 -0.13687144804E-01  0.23605049976E-01  0.00000000000E+00 0.  1.
     999901    1    3    3    0    0  0.86229562923E-01 -0.93585258454E-01  0.96388211185E-02  0.88920562582E+00  0.88000000000E+00 0.  1.
        -11    1    4    4    0    0 -0.29567397366E-01  0.53406851334E-01 -0.33095272881E-02  0.61137033362E-01  0.51100000000E-03 0.  1.
         11    1    4    4    0    0 -0.43569979161E-01  0.54265816635E-01  0.73578509731E-02  0.69982290839E-01  0.51100000000E-03 0. -1.
</event>
<event>
 8    1  0.1119901E+005  0.1043930E+01  0.7957747E-01            NaN
         13   -1    0    0    0    0  0.00000000000E+00  0.00000000000E+00  0.74505805969E-08  0.10566000000E+00  0.10566000000E+00 0. -1.
     999900   -1    0    0    0    0 -0.00000000000E+00 -0.00000000000E+00 -0.74505805969E-08  0.93827000000E+00  0.93827000000E+00 0. -1.
     999902    2    1    2    0    0 -0.16136240025E-01 -0.15171992023E-01  0.85741499690E-02  0.10201795551E+01  0.10199030547E+01 0.  0.
     999903    2    3    3    0    0  0.53937548783E-01 -0.10074295934E+00  0.62146974869E-01  0.13163986896E+00  0.20209047201E-01 0.  0.
         14    1    1    2    0    0  0.16136240025E-01  0.15171992023E-01 -0.85741499690E-02  0.23750444876E-01  0.00000000000E+00 0. -1.
     999901    1    3    3    0    0 -0.70073788808E-01  0.85570967316E-01 -0.53572824899E-01  0.88853968617E+00  0.88000000000E+00 0.  1.
        -11    1    4    4    0    0  0.20098370901E-01 -0.57969076930E-01  0.36200924274E-01  0.71239921619E-01  0.51100000000E-03 0.  1.
         11    1    4    4    0    0  0.33839177882E-01 -0.42773882410E-01  0.25946050594E-01  0.60399947339E-01  0.51100000000E-03 0. -1.
</event>
<event>
 8    1  0.1119901E+005  0.1043930E+01  0.7957747E-01            NaN
         13   -1    0    0    0    0  0.00000000000E+00  0.00000000000E+00  0.74505805969E-08  0.10566000000E+00  0.10566000000E+00 0. -1.
     999900   -1    0    0    0    0 -0.00000000000E+00 -0.00000000000E+00 -0.74505805969E-08  0.93827000000E+00  0.93827000000E+00 0. -1.
     999902    2    1    2    0    0 -0.64798902343E-02 -0.20569082548E-01 -0.88465636955E-02  0.10206203920E+01  0.10203541771E+01 0.  0.
     999903    2    3    3    0    0 -0.12627492457E+00 -0.26706352410E-01  0.19420409962E-01  0.13203300852E+00  0.19924286272E-01 0.  0.
         14    1    1    2    0    0  0.64798902343E-02  0.20569082548E-01  0.88465636955E-02  0.23309607966E-01  0.00000000000E+00 0. -1.
     999901    1    3    3    0    0  0.11979503433E+00  0.61372698621E-02 -0.28266973658E-01  0.88858738351E+00  0.88000000000E+00 0. -1.
        -11    1    4    4    0    0 -0.10076925913E+00 -0.13539531835E-01  0.12003914456E-01  0.10238221326E+00  0.51100000000E-03 0. -1.
         11    1    4    4    0    0 -0.25505665434E-01 -0.13166820575E-01  0.74164955058E-02  0.29650795266E-01  0.51100000000E-03 0.  1.
</event>
<event>
 7    1  0.1119901E+005  0.1043930E+01  0.7957747E-01            NaN
         13   -1    0    0    0    0  0.00000000000E+00  0.00000000000E+00  0.74505805969E-08  0.10566000000E+00  0.10566000000E+00 0.  1.
     999900   -1    0    0    0    0 -0.00000000000E+00 -0.00000000000E+00 -0.74505805969E-08  0.93827000000E+00  0.93827000000E+00 0.  1.
     999903    2    1    2    0    0 -0.59710731919E-01 -0.80484639091E-01  0.37074397196E-01  0.10867745932E+00  0.19827521287E-01 0.  0.
         14    1    1    2    0    0 -0.19064897003E-01  0.28031615889E-01  0.33126441020E-01  0.47398342606E-01  0.00000000000E+00 0.  1.
     999901    1    1    2    0    0  0.78775628922E-01  0.52453023202E-01 -0.70200838216E-01  0.88785419808E+00  0.88000000000E+00 0.  1.
        -11    1    3    3    0    0 -0.42691783419E-01 -0.45743658180E-01  0.29816813278E-01  0.69313592536E-01  0.51100000000E-03 0. -1.
         11    1    3    3    0    0 -0.17018948501E-01 -0.34740980911E-01  0.72575839186E-02  0.39363866783E-01  0.51100000000E-03 0.  1.
</event>
<event>
 8    1  0.1119901E+005  0.1043930E+01  0.7957747E-01            NaN
         13   -1    0    0    0    0  0.00000000000E+00  0.00000000000E+00  0.74505805969E-08  0.10566000000E+00  0.10566000000E+00 0.  1.
     999900   -1    0    0    0    0 -0.00000000000E+00 -0.00000000000E+00 -0.74505805969E-08  0.93827000000E+00  0.93827000000E+00 0.  1.
     999902    2    1    2    0    0  0.22411261277E-01 -0.44350196065E-02 -0.82627083770E-02  0.10196358365E+01  0.10193463752E+01 0.  0.
     999903    2    3    3    0    0 -0.87911188710E-01  0.83629296754E-02  0.89150140922E-01  0.12732193786E+00  0.21559511616E-01 0.  0.
         14    1    1    2    0    0 -0.22411261277E-01  0.44350196065E-02  0.82627083770E-02  0.24294163510E-01  0.00000000000E+00 0.  1.
     999901    1    3    3    0    0  0.11032244999E+00 -0.12797949282E-01 -0.97412849299E-01  0.89231389863E+00  0.88000000000E+00 0.  1.
        -11    1    4    4    0    0 -0.68839214479E-01  0.15386692163E-01  0.70582587769E-01  0.99788529215E-01  0.51100000000E-03 0.  1.
         11    1    4    4    0    0 -0.19071974232E-01 -0.70237624880E-02  0.18567553153E-01  0.27533408646E-01  0.51100000000E-03 0. -1.
</event>
<event>
 8    1  0.1119901E+005  0.1043930E+01  0.7957747E-01            NaN
         13   -1    0    0    0    0  0.00000000000E+00  0.00000000000E+00  0.74505805969E-08  0.10566000000E+00  0.10566000000E+00 0.  1.
     999900   -1    0    0    0    0 -0.00000000000E+00 -0.00000000000E+00 -0.74505805969E-08  0.93827000000E+00  0.93827000000E+00 0.  1.
     999902    2    1    2    0    0  0.14638551422E-01  0.41741063998E-02 -0.18001903677E-01  0.10203550368E+01  0.10200826547E+01 0.  0.
     999903    2    3    3    0    0  0.10215127445E+00 -0.67098902274E-01 -0.47436441245E-01  0.13265874280E+00  0.20272654614E-01 0.  0.
         14    1    1    2    0    0 -0.14638551422E-01 -0.41741063998E-02  0.18001903677E-01  0.23574963159E-01  0.00000000000E+00 0.  1.
     999901    1    3    3    0    0 -0.87512723025E-01  0.71273008673E-01  0.29434537568E-01  0.88769629404E+00  0.88000000000E+00 0. -1.
        -11    1    4    4    0    0  0.41431877237E-01 -0.37424951539E-01 -0.27215428087E-01  0.62114153750E-01  0.51100000000E-03 0. -1.
         11    1    4    4    0    0  0.60719397210E-01 -0.29673950734E-01 -0.20221013158E-01  0.70544589047E-01  0.51100000000E-03 0.  1.
</event>
<event>
 8    1  0.1119901E+005  0.1043930E+01  0.7957747E-01            NaN
         13   -1    0    0    0    0  0.00000000000E+00  0.00000000000E+00  0.74505805969E-08  0.10566000000E+00  0.10566000000E+00 0.  1.
     999900   -1    0    0    0    0 -0.00000000000E+00 -0.00000000000E+00 -0.74505805969E-08  0.93827000000E+00  0.93827000000E+00 0.  1.
     999902    2    1    2    0    0  0.83871894237E-02  0.14568830283E-01 -0.17146719247E-01  0.10199173837E+01  0.10196346717E+01 0.  0.
     999903    2    3    3    0    0  0.17607510003E-02  0.12767869006E+00  0.24882657387E-01  0.13165828939E+00  0.20243773997E-01 0.  0.
         14    1    1    2    0    0 -0.83871894237E-02 -0.14568830283E-01  0.17146719247E-01  0.24012616334E-01  0.00000000000E+00 0. -1.
     999901    1    3    3    0    0  0.66264384234E-02 -0.11310985978E+00 -0.42029376634E-01  0.88825909428E+00  0.88000000000E+00 0.  1.
        -11    1    4    4    0    0  0.80685258338E-02  0.10874631558E+00  0.17873951836E-01  0.11050159065E+00  0.51100000000E-03 0. -1.
         11    1    4    4    0    0 -0.63077748335E-02  0.18932374485E-01  0.70087055510E-02  0.21156698738E-01  0.51100000000E-03 0.  1.
</event>
<event>
 8    1  0.1119901E+005  0.1043930E+01  0.7957747E-01            NaN
         13   -1    0    0    0    0  0.00000000000E+00  0.00000000000E+00  0.74505805969E-08  0.10566000000E+00  0.10566000000E+00 0.  1.
     999900   -1    0    0    0    0 -0.00000000000E+00 -0.00000000000E+00 -0.74505805969E-08  0.93827000000E+00  0.93827000000E+00 0.  1.
     999902    2    1    2    0    0 -0.51119867559E-02  0.74342650768E-02  0.24734624205E-01  0.10176012640E+01  0.10172606009E+01 0.  0.
     999903    2    3    3    0    0 -0.82662905715E-01 -0.81992696217E-01 -0.43783816009E-01  0.12703621690E+00  0.25791852296E-01 0.  0.
         14    1    1    2    0    0  0.51119867559E-02 -0.74342650768E-02 -0.24734624205E-01  0.26328736019E-01  0.00000000000E+00 0. -1.
     999901    1    3    3    0    0  0.77550918959E-01  0.89426961294E-01  0.68518440214E-01  0.89056504708E+00  0.88000000000E+00 0. -1.
        -11    1    4    4    0    0 -0.40460885609E-01 -0.27279333125E-01 -0.27605239285E-01  0.56067420459E-01  0.51100000000E-03 0. -1.
         11    1    4    4    0    0 -0.42202020107E-01 -0.54713363093E-01 -0.16178576724E-01  0.70968796438E-01  0.51100000000E-03 0.  1.
</event>
<event>
 8    1  0.1119901E+005  0.1043930E+01  0.7957747E-01            NaN
         13   -1    0    0    0    0  0.00000000000E+00  0.00000000000E+00  0.74505805969E-08  0.10566000000E+00  0.10566000000E+00 0. -1.
     999900   -1    0    0    0    0 -0.00000000000E+00 -0.00000000000E+00 -0.74505805969E-08  0.93827000000E+00  0.93827000000E+00 0. -1.
     999902    2    1    2    0    0  0.22872215851E-01  0.47287204873E-02  0.32543317434E-02  0.10203484451E+01  0.10200759088E+01 0.  0.
     999903    2    3    3    0    0  0.10392605302E+00 -0.44047725290E-01  0.67118840912E-01  0.13297730422E+00  0.20909280981E-01 0.  0.
         14    1    1    2    0    0 -0.22872215851E-01 -0.47287204873E-02 -0.32543317434E-02  0.23581554878E-01  0.00000000000E+00 0. -1.
     999901    1    3    3    0    0 -0.81053837170E-01  0.48776445778E-01 -0.63864509169E-01  0.88737114091E+00  0.88000000000E+00 0. -1.
        -11    1    4    4    0    0  0.38542190612E-01 -0.21910818171E-01  0.16226697101E-01  0.47213888104E-01  0.51100000000E-03 0.  1.
         11    1    4    4    0    0  0.65383862409E-01 -0.22136907120E-01  0.50892143812E-01  0.85763416111E-01  0.51100000000E-03 0. -1.
</event>
<event>
 8    1  0.1119901E+005  0.1043930E+01  0.7957747E-01            NaN
         13   -1    0    0    0    0  0.00000000000E+00  0.00000000000E+00  0.74505805969E-08  0.10566000000E+00  0.10566000000E+00 0. -1.
     999900   -1    0    0    0    0 -0.00000000000E+00 -0.00000000000E+00 -0.74505805969E-08  0.93827000000E+00  0.93827000000E+00 0.  1.
     999902    2    1    2    0    0 -0.20540268854E-01  0.92635956530E-03  0.11703483495E-01  0.10202713375E+01  0.10199969950E+01 0.  0.
     999903    2    3    3    0    0 -0.25764111071E-01  0.14023306494E-01  0.12781177588E+00  0.13253266303E+00  0.19199327337E-01 0.  0.
         14    1    1    2    0    0  0.20540268854E-01 -0.92635956530E-03 -0.11703483495E-01  0.23658662527E-01  0.00000000000E+00 0.  1.
     999901    1    3    3    0    0  0.52238422173E-02 -0.13096946928E-01 -0.11610829239E+00  0.88773867445E+00  0.88000000000E+00 0.  1.
        -11    1    4    4    0    0 -0.16396578845E-02 -0.34494628548E-02  0.31057249473E-01  0.31295385247E-01  0.51100000000E-03 0. -1.
         11    1    4    4    0    0 -0.24124453187E-01  0.17472769348E-01  0.96754526411E-01  0.10123727778E+00  0.51100000000E-03 0.  1.
</event>
<event>
 8    1  0.1119901E+005  0.1043930E+01  0.7957747E-01            NaN
         13   -1    0    0    0    0  0.00000000000E+00  0.00000000000E+00  0.74505805969E-08  0.10566000000E+00  0.10566000000E+00 0.  1.
     999900   -1    0    0    0    0 -0.00000000000E+00 -0.00000000000E+00 -0.74505805969E-08  0.93827000000E+00  0.93827000000E+00 0.  1.
     999902    2    1    2    0    0 -0.27297867767E-03  0.15324581610E-01  0.18411851616E-01  0.10199735061E+01  0.10196921298E+01 0.  0.
     999903    2    3    3    0    0 -0.12027185740E+00 -0.42560706340E-01  0.14635580546E-01  0.12993715986E+00  0.19817464178E-01 0.  0.
         14    1    1    2    0    0  0.27297867767E-03 -0.15324581610E-01 -0.18411851616E-01  0.23956493876E-01  0.00000000000E+00 0. -1.
     999901    1    3    3    0    0  0.11999887872E+00  0.57885287950E-01  0.37762710700E-02  0.89003634627E+00  0.88000000000E+00 0.  1.
        -11    1    4    4    0    0 -0.77776302159E-01 -0.17543530923E-01  0.11014108800E-01  0.80489131990E-01  0.51100000000E-03 0.  1.
         11    1    4    4    0    0 -0.42495555242E-01 -0.25017175417E-01  0.36214717460E-02  0.49448027866E-01  0.51100000000E-03 0. -1.
</event>
<event>
 8    1  0.1119901E+005  0.1043930E+01  0.7957747E-01            NaN
         13   -1    0    0    0    0  0.00000000000E+00  0.00000000000E+00  0.74505805969E-08  0.10566000000E+00  0.10566000000E+00 0.  1.
     999900   -1    0    0    0    0 -0.00000000000E+00 -0.00000000000E+00 -0.74505805969E-08  0.93827000000E+00  0.93827000000E+00 0.  1.
     999902    2    1    2    0    0 -0.23000873856E-01  0.36531180798E-02  0.43382498450E-02  0.10202402157E+01  0.10199651424E+01 0.  0.
     999903    2    3    3    0    0 -0.13825310239E-01  0.28500165678E-01  0.12588909149E+00  0.13149043432E+00  0.20934954369E-01 0.  0.
         14    1    1    2    0    0  0.23000873856E-01 -0.36531180798E-02 -0.43382498450E-02  0.23689784329E-01  0.00000000000E+00 0. -1.
     999901    1    3    3    0    0 -0.91755636163E-02 -0.24847047598E-01 -0.12155084165E+00  0.88874978135E+00  0.88000000000E+00 0.  1.
        -11    1    4    4    0    0 -0.11260080316E-01  0.22383812222E-02  0.42363826188E-01  0.43894813469E-01  0.51100000000E-03 0.  1.
         11    1    4    4    0    0 -0.25652299239E-02  0.26261784456E-01  0.83525265305E-01  0.87595620853E-01  0.51100000000E-03 0. -1.
</event>
<event>
 8    1  0.1119901E+005  0.1043930E+01  0.7957747E-01            NaN
         13   -1    0    0    0    0  0.00000000000E+00  0.00000000000E+00  0.74505805969E-08  0.10566000000E+00  0.10566000000E+00 0. -1.
     999900   -1    0    0    0    0 -0.00000000000E+00 -0.00000000000E+00 -0.74505805969E-08  0.93827000000E+00  0.93827000000E+00 0.  1.
     999902    2    1    2    0    0  0.21687091541E-01 -0.46436558600E-02 -0.78166766148E-02  0.10204141774E+01  0.10201431760E+01 0.  0.
     999903    2    3    3    0    0  0.92822344312E-01  0.23651631624E-02  0.91617335832E-01  0.13193431237E+00  0.19782440581E-01 0.  0.
         14    1    1    2    0    0 -0.21687091541E-01  0.46436558600E-02  0.78166766148E-02  0.23515822600E-01  0.00000000000E+00 0. -1.
     999901    1    3    3    0    0 -0.71135252770E-01 -0.70088190224E-02 -0.99434012447E-01  0.88847986503E+00  0.88000000000E+00 0.  1.
        -11    1    4    4    0    0  0.43132511261E-02 -0.28761506876E-03  0.12325476901E-01  0.13071547710E-01  0.51100000000E-03 0. -1.
         11    1    4    4    0    0  0.88509093185E-01  0.26527782312E-02  0.79291858931E-01  0.11886276466E+00  0.51100000000E-03 0.  1.
</event>
<event>
 8    1  0.1119901E+005  0.1043930E+01  0.7957747E-01            NaN
         13   -1    0    0    0    0  0.00000000000E+00  0.00000000000E+00  0.74505805969E-08  0.10566000000E+00  0.10566000000E+00 0. -1.
     999900   -1    0    0    0    0 -0.00000000000E+00 -0.00000000000E+00 -0.74505805969E-08  0.93827000000E+00  0.93827000000E+00 0.  1.
     999902    2    1    2    0    0  0.94595059141E-03  0.20828999748E-01  0.47113037946E-02  0.10225538816E+01  0.10223304272E+01 0.  0.
     999903    2    3    3    0    0  0.10750438851E+00  0.52573612235E-01  0.56337353985E-01  0.13405645892E+00  0.21818764220E-01 0.  0.
         14    1    1    2    0    0 -0.94595059141E-03 -0.20828999748E-01 -0.47113037946E-02  0.21376118368E-01  0.00000000000E+00 0.  1.
     999901    1    3    3    0    0 -0.10655843791E+00 -0.31744612487E-01 -0.51626050190E-01  0.88849742271E+00  0.88000000000E+00 0.  1.
        -11    1    4    4    0    0  0.69915786515E-01  0.43751335647E-01  0.32329737010E-01  0.88588202324E-01  0.51100000000E-03 0.  1.
         11    1    4    4    0    0  0.37588601991E-01  0.88222765877E-02  0.24007616975E-01  0.45468256593E-01  0.51100000000E-03 0. -1.
</event>
<event>
 8    1  0.1119901E+005  0.1043930E+01  0.7957747E-01            NaN
         13   -1    0    0    0    0  0.00000000000E+00  0.00000000000E+00  0.74505805969E-08  0.10566000000E+00  0.10566000000E+00 0. -1.
     999900   -1    0    0    0    0 -0.00000000000E+00 -0.00000000000E+00 -0.74505805969E-08  0.93827000000E+00  0.93827000000E+00 0.  1.
     999902    2    1    2    0    0  0.84477963483E-02 -0.86153981446E-02  0.20719018396E-01  0.10199535934E+01  0.10196717436E+01 0.  0.
     999903    2    3    3    0    0 -0.99354124416E-01  0.26879737674E-01  0.78129840631E-01  0.13080953239E+00  0.20324847632E-01 0.  0.
         14    1    1    2    0    0 -0.84477963483E-02  0.86153981446E-02 -0.20719018396E-01  0.23976406562E-01  0.00000000000E+00 0.  1.
     999901    1    3    3    0    0  0.10780192076E+00 -0.35495135819E-01 -0.57410822235E-01  0.88914406105E+00  0.88000000000E+00 0.  1.
        -11    1    4    4    0    0 -0.78557674118E-01  0.17728756277E-01  0.50603033448E-01  0.95113327547E-01  0.51100000000E-03 0. -1.
         11    1    4    4    0    0 -0.20796450298E-01  0.91509813971E-02  0.27526807182E-01  0.35696204843E-01  0.51100000000E-03 0.  1.
</event>
<event>
 8    1  0.1119901E+005  0.1043930E+01  0.7957747E-01            NaN
         13   -1    0    0    0    0  0.00000000000E+00  0.00000000000E+00  0.74505805969E-08  0.10566000000E+00  0.10566000000E+00 0. -1.
     999900   -1    0    0    0    0 -0.00000000000E+00 -0.00000000000E+00 -0.74505805969E-08  0.93827000000E+00  0.93827000000E+00 0. -1.
     999902    2    1    2    0    0 -0.20187902182E-01 -0.11578859980E-01  0.22418357841E-02  0.10205495120E+01  0.10202816568E+01 0.  0.
     999903    2    3    3    0    0  0.10350198474E+00 -0.24299723061E-01 -0.69895651325E-01  0.12888543535E+00  0.20564921254E-01 0.  0.
         14    1    1    2    0    0  0.20187902182E-01  0.11578859980E-01 -0.22418357841E-02  0.23380488032E-01  0.00000000000E+00 0. -1.
     999901    1    3    3    0    0 -0.12368988692E+00  0.12720863080E-01  0.72137487109E-01  0.89166407662E+00  0.88000000000E+00 0.  1.
        -11    1    4    4    0    0  0.84631035531E-01 -0.11366367583E-01 -0.54363823126E-01  0.10122891323E+00  0.51100000000E-03 0.  1.
         11    1    4    4    0    0  0.18870949205E-01 -0.12933355478E-01 -0.15531828199E-01  0.27656522124E-01  0.51100000000E-03 0. -1.
</event>
<event>
 8    1  0.1119901E+005  0.1043930E+01  0.7957747E-01            NaN
         13   -1    0    0    0    0  0.00000000000E+00  0.00000000000E+00  0.74505805969E-08  0.10566000000E+00  0.10566000000E+00 0. -1.
     999900   -1    0    0    0    0 -0.00000000000E+00 -0.00000000000E+00 -0.74505805969E-08  0.93827000000E+00  0.93827000000E+00 0.  1.
     999902    2    1    2    0    0  0.98670488284E-03 -0.14324185091E-01 -0.18692686876E-01  0.10203594165E+01  0.10200871367E+01 0.  0.
     999903    2    3    3    0    0 -0.91085940016E-01  0.68133439478E-01  0.56658999878E-01  0.12853291514E+00  0.19278328853E-01 0.  0.
         14    1    1    2    0    0 -0.98670488284E-03  0.14324185091E-01  0.18692686876E-01  0.23570583525E-01  0.00000000000E+00 0. -1.
     999901    1    3    3    0    0  0.92072644898E-01 -0.82457624569E-01 -0.75351686754E-01  0.89182650134E+00  0.88000000000E+00 0.  1.
        -11    1    4    4    0    0 -0.61326130432E-01  0.50901650418E-01  0.48105308825E-01  0.93092718013E-01  0.51100000000E-03 0. -1.
         11    1    4    4    0    0 -0.29759809584E-01  0.17231789060E-01  0.85536910530E-02  0.35440197126E-01  0.51100000000E-03 0.  1.
</event>
<event>
 8    1  0.1119901E+005  0.1043930E+01  0.7957747E-01            NaN
         13   -1    0    0    0    0  0.00000000000E+00  0.00000000000E+00  0.74505805969E-08  0.10566000000E+00  0.10566000000E+00 0.  1.
     999900   -1    0    0    0    0 -0.00000000000E+00 -0.00000000000E+00 -0.74505805969E-08  0.93827000000E+00  0.93827000000E+00 0.  1.
     999902    2    1    2    0    0  0.15895517155E-01 -0.33562338374E-02  0.19667806660E-01  0.10184201119E+01  0.10181005697E+01 0.  0.
     999903    2    3    3    0    0  0.85487709739E-01  0.40259625959E-01 -0.84654682500E-01  0.12846022617E+00  0.20165030119E-01 0.  0.
         14    1    1    2    0    0 -0.15895517155E-01  0.33562338374E-02 -0.19667806660E-01  0.25509888083E-01  0.00000000000E+00 0. -1.
     999901    1    3    3    0    0 -0.69592192584E-01 -0.43615859797E-01  0.10432248916E+00  0.88995988575E+00  0.88000000000E+00 0. -1.
        -11    1    4    4    0    0  0.69666962161E-01  0.23597681282E-01 -0.66719795177E-01  0.99308249245E-01  0.51100000000E-03 0.  1.
         11    1    4    4    0    0  0.15820747578E-01  0.16661944678E-01 -0.17934887324E-01  0.29151976926E-01  0.51100000000E-03 0. -1.
</event>
<event>
 8    1  0.1119901E+005  0.1043930E+01  0.7957747E-01            NaN
         13   -1    0    0    0    0  0.00000000000E+00  0.00000000000E+00  0.74505805969E-08  0.10566000000E+00  0.10566000000E+00 0. -1.
     999900   -1    0    0    0    0 -0.00000000000E+00 -0.00000000000E+00 -0.74505805969E-08  0.93827000000E+00  0.93827000000E+00 0. -1.
     999902    2    1    2    0    0  0.28367161396E-02  0.19373640638E-01 -0.14290128170E-01  0.10196896891E+01  0.10194015251E+01 0.  0.
     999903    2    3    3    0    0  0.11128106543E+00  0.19979800537E-01 -0.64291990616E-01  0.13162396485E+00  0.20217322094E-01 0.  0.
         14    1    1    2    0    0 -0.28367161396E-02 -0.19373640638E-01  0.14290128170E-01  0.24240310912E-01  0.00000000000E+00 0. -1.
     999901    1    3    3    0    0 -0.10844434929E+00 -0.60615989886E-03  0.50001862446E-01  0.88806572424E+00  0.88000000000E+00 0.  1.
        -11    1    4    4    0    0  0.69089644792E-01  0.20716634258E-01 -0.34431956807E-01  0.79927334017E-01  0.51100000000E-03 0.  1.
         11    1    4    4    0    0  0.42191420636E-01 -0.73683372169E-03 -0.29860033809E-01  0.51696630831E-01  0.51100000000E-03 0. -1.
</event>
<event>
 7    1  0.1119901E+005  0.1043930E+01  0.7957747E-01            NaN
         13   -1    0    0    0    0  0.00000000000E+00  0.00000000000E+00  0.74505805969E-08  0.10566000000E+00  0.10566000000E+00 0.  1.
     999900   -1    0    0    0    0 -0.00000000000E+00 -0.00000000000E+00 -0.74505805969E-08  0.93827000000E+00  0.93827000000E+00 0.  1.
     999903    2    1    2    0    0  0.63151258048E-01  0.13556920637E-01  0.98405859125E-01  0.11944042471E+00  0.20259083235E-01 0.  0.
         14    1    1    2    0    0 -0.18166691899E-01 -0.32388956109E-01 -0.11445494808E-01  0.38859651616E-01  0.00000000000E+00 0. -1.
     999901    1    1    2    0    0 -0.44984566149E-01  0.18832035471E-01 -0.86960364318E-01  0.88562992368E+00  0.88000000000E+00 0.  1.
        -11    1    3    3    0    0  0.48401935070E-01  0.18874541692E-01  0.73580041252E-01  0.90073743312E-01  0.51100000000E-03 0. -1.
         11    1    3    3    0    0  0.14749322978E-01 -0.53176210554E-02  0.24825817874E-01  0.29366681394E-01  0.51100000000E-03 0.  1.
</event>
<event>
 8    1  0.1119901E+005  0.1043930E+01  0.7957747E-01            NaN
         13   -1    0    0    0    0  0.00000000000E+00  0.00000000000E+00  0.74505805969E-08  0.10566000000E+00  0.10566000000E+00 0. -1.
     999900   -1    0    0    0    0 -0.00000000000E+00 -0.00000000000E+00 -0.74505805969E-08  0.93827000000E+00  0.93827000000E+00 0. -1.
     999902    2    1    2    0    0  0.19028809577E-02 -0.71372318668E-02  0.22409962776E-01  0.10203340795E+01  0.10200612071E+01 0.  0.
     999903    2    3    3    0    0 -0.60467376639E-01  0.87606208328E-01  0.74776745454E-01  0.13150977262E+00  0.19290081888E-01 0.  0.
         14    1    1    2    0    0 -0.19028809577E-02  0.71372318668E-02 -0.22409962776E-01  0.23595920543E-01  0.00000000000E+00 0.  1.
     999901    1    3    3    0    0  0.62370257597E-01 -0.94743440195E-01 -0.52366782678E-01  0.88882430684E+00  0.88000000000E+00 0.  1.
        -11    1    4    4    0    0 -0.36152975016E-01  0.51307913240E-01  0.32375470891E-01  0.70625574688E-01  0.51100000000E-03 0.  1.
         11    1    4    4    0    0 -0.24314401623E-01  0.36298295088E-01  0.42401274562E-01  0.60884197934E-01  0.51100000000E-03 0. -1.
</event>
<event>
 8    1  0.1316477E+005  0.1043930E+01  0.7957747E-01            NaN
         13   -1    0    0    0    0  0.00000000000E+00  0.00000000000E+00  0.74505805969E-08  0.10566000000E+00  0.10566000000E+00 0. -1.
     999900   -1    0    0    0    0 -0.00000000000E+00 -0.00000000000E+00 -0.74505805969E-08  0.93827000000E+00  0.93827000000E+00 0. -1.
     999902    2    1    2    0    0  0.57643904800E-02  0.56894869023E-02  0.21924661660E-01  0.10205571686E+01  0.10202894908E+01 0.  0.
     999903    2    3    3    0    0 -0.10072870207E+00  0.80437130845E-01  0.91201171159E-02  0.13089883789E+00  0.20854874373E-01 0.  0.
         14    1    1    2    0    0 -0.57643904800E-02 -0.56894869023E-02 -0.21924661660E-01  0.23372831401E-01  0.00000000000E+00 0.  1.
     999901    1    3    3    0    0  0.10649309255E+00 -0.74747643942E-01  0.12804544544E-01  0.88965833071E+00  0.88000000000E+00 0.  1.
        -11    1    4    4    0    0 -0.57712567863E-01  0.49194957499E-01  0.15330761432E-01  0.77370392915E-01  0.51100000000E-03 0. -1.
         11    1    4    4    0    0 -0.43016134210E-01  0.31242173345E-01 -0.62106443165E-02  0.53528444976E-01  0.51100000000E-03 0.  1.
</event>
<event>
 8    1  0.1119901E+005  0.1043930E+01  0.7957747E-01            NaN
         13   -1    0    0    0    0  0.00000000000E+00  0.00000000000E+00  0.74505805969E-08  0.10566000000E+00  0.10566000000E+00 0.  1.
     999900   -1    0    0    0    0 -0.00000000000E+00 -0.00000000000E+00 -0.74505805969E-08  0.93827000000E+00  0.93827000000E+00 0.  1.
     999902    2    1    2    0    0  0.17859061056E-01 -0.24717737388E-02 -0.15776592773E-01  0.10199726085E+01  0.10196912109E+01 0.  0.
     999903    2    3    3    0    0 -0.47020876066E-01  0.10597339997E+00 -0.55631208248E-01  0.13005230179E+00  0.19427958785E-01 0.  0.
         14    1    1    2    0    0 -0.17859061056E-01  0.24717737388E-02  0.15776592773E-01  0.23957391484E-01  0.00000000000E+00 0.  1.
     999901    1    3    3    0    0  0.64879937122E-01 -0.10844517371E+00  0.39854615476E-01  0.88992030672E+00  0.88000000000E+00 0.  1.
        -11    1    4    4    0    0 -0.28334547534E-01  0.72852500625E-01 -0.27964758840E-01  0.83021818152E-01  0.51100000000E-03 0.  1.
         11    1    4    4    0    0 -0.18686328533E-01  0.33120899349E-01 -0.27666449408E-01  0.47030483642E-01  0.51100000000E-03 0. -1.
</event>
<event>
 8    1  0.1119901E+005  0.1043930E+01  0.7957747E-01            NaN
         13   -1    0    0    0    0  0.00000000000E+00  0.00000000000E+00  0.74505805969E-08  0.10566000000E+00  0.10566000000E+00 0.  1.
     999900   -1    0    0    0    0 -0.00000000000E+00 -0.00000000000E+00 -0.74505805969E-08  0.93827000000E+00  0.93827000000E+00 0. -1.
     999902    2    1    2    0    0  0.11334916664E-01 -0.16888127033E-01 -0.11683354026E-01  0.10204738722E+01  0.10202042609E+01 0.  0.
     999903    2    3    3    0    0  0.77786991640E-01  0.92568861748E-01  0.42456430628E-01  0.12955983204E+00  0.19062826188E-01 0.  0.
         14    1    1    2    0    0 -0.11334916664E-01  0.16888127033E-01  0.11683354026E-01  0.23456127809E-01  0.00000000000E+00 0. -1.
     999901    1    3    3    0    0 -0.66452074975E-01 -0.10945698878E+00 -0.54139784654E-01  0.89091404015E+00  0.88000000000E+00 0. -1.
        -11    1    4    4    0    0  0.44002081164E-01  0.45563160924E-01  0.13229863588E-01  0.64710703842E-01  0.51100000000E-03 0. -1.
         11    1    4    4    0    0  0.33784910476E-01  0.47005700824E-01  0.29226567040E-01  0.64849128196E-01  0.51100000000E-03 0.  1.
</event>
<event>
 8    1  0.1119901E+005  0.1043930E+01  0.7957747E-01            NaN
         13   -1    0    0    0    0  0.00000000000E+00  0.00000000000E+00  0.74505805969E-08  0.10566000000E+00  0.10566000000E+00 0. -1.
     999900   -1    0    0    0    0 -0.00000000000E+00 -0.00000000000E+00 -0.74505805969E-08  0.93827000000E+00  0.93827000000E+00 0.  1.
     999902    2    1    2    0    0  0.85659809868E-02  0.22231202781E-01  0.63629929459E-02  0.10192705173E+01  0.10189721769E+01 0.  0.
     999903    2    3    3    0    0 -0.63524089148E-01 -0.19250062873E-01  0.10916531972E+00  0.12939075464E+00  0.20470113225E-01 0.  0.
         14    1    1    2    0    0 -0.85659809868E-02 -0.22231202781E-01 -0.63629929459E-02  0.24659482691E-01  0.00000000000E+00 0.  1.
     999901    1    3    3    0    0  0.72090070135E-01  0.41481265654E-01 -0.10280232677E+00  0.88987976267E+00  0.88000000000E+00 0.  1.
        -11    1    4    4    0    0 -0.38110913330E-01 -0.10470336567E-01  0.82699712678E-01  0.91660096338E-01  0.51100000000E-03 0. -1.
         11    1    4    4    0    0 -0.25413175818E-01 -0.87797263062E-02  0.26465607039E-01  0.37730658305E-01  0.51100000000E-03 0.  1.
</event>
<event>
 8    1  0.1119901E+005  0.1043930E+01  0.7957747E-01            NaN
         13   -1    0    0    0    0  0.00000000000E+00  0.00000000000E+00  0.74505805969E-08  0.10566000000E+00  0.10566000000E+00 0.  1.
     999900   -1    0    0    0    0 -0.00000000000E+00 -0.00000000000E+00 -0.74505805969E-08  0.93827000000E+00  0.93827000000E+00 0.  1.
     999902    2    1    2    0    0 -0.18240617306E-01 -0.12189818990E-01  0.85165582050E-02  0.10203961187E+01  0.10201246960E+01 0.  0.
     999903    2    3    3    0    0  0.11062866722E+00  0.46205132378E-01 -0.39517719909E-01  0.12780183530E+00  0.19951006223E-01 0.  0.
         14    1    1    2    0    0  0.18240617306E-01  0.12189818990E-01 -0.85165582050E-02  0.23533881329E-01  0.00000000000E+00 0. -1.
     999901    1    3    3    0    0 -0.12886928453E+00 -0.58394951368E-01  0.48034278114E-01  0.89259428337E+00  0.88000000000E+00 0.  1.
        -11    1    4    4    0    0  0.10277981619E+00  0.44709767861E-01 -0.41556134329E-01  0.11954006600E+00  0.51100000000E-03 0.  1.
         11    1    4    4    0    0  0.78488510315E-02  0.14953645172E-02  0.20384144201E-02  0.82617692961E-02  0.51100000000E-03 0. -1.
</event>
<event>
 8    1  0.1119901E+005  0.1043930E+01  0.7957747E-01            NaN
         13   -1    0    0    0    0  0.00000000000E+00  0.00000000000E+00  0.74505805969E-08  0.10566000000E+00  0.10566000000E+00 0.  1.
     999900   -1    0    0    0    0 -0.00000000000E+00 -0.00000000000E+00 -0.74505805969E-08  0.93827000000E+00  0.93827000000E+00 0.  1.
     999902    2    1    2    0    0 -0.23797272410E-01  0.15747108893E-01 -0.30457918197E-02  0.10152322917E+01  0.10148266097E+01 0.  0.
     999903    2    3    3    0    0 -0.12759110115E+00  0.13090606546E-01 -0.46760149609E-02  0.12912683890E+00  0.14178234652E-01 0.  0.
         14    1    1    2    0    0  0.23797272410E-01 -0.15747108893E-01  0.30457918197E-02  0.28697708279E-01  0.00000000000E+00 0. -1.
     999901    1    3    3    0    0  0.10379382873E+00  0.26565023469E-02  0.16302231412E-02  0.88610545282E+00  0.88000000000E+00 0.  1.
        -11    1    4    4    0    0 -0.75921016838E-01  0.14228677202E-01 -0.54423632077E-02  0.77436015464E-01  0.51100000000E-03 0. -1.
         11    1    4    4    0    0 -0.51670084307E-01 -0.11380706561E-02  0.76634824685E-03  0.51690823438E-01  0.51100000000E-03 0.  1.
</event>
<event>
 8    1  0.1119901E+005  0.1043930E+01  0.7957747E-01            NaN
         13   -1    0    0    0    0  0.00000000000E+00  0.00000000000E+00  0.74505805969E-08  0.10566000000E+00  0.10566000000E+00 0.  1.
     999900   -1    0    0    0    0 -0.00000000000E+00 -0.00000000000E+00 -0.74505805969E-08  0.93827000000E+00  0.93827000000E+00 0. -1.
     999902    2    1    2    0    0 -0.12492775842E-01 -0.21833817753E-01  0.78107355925E-02  0.10175900563E+01  0.10172490993E+01 0.  0.
     999903    2    3    3    0    0  0.10614210642E+00 -0.40537082806E-01 -0.53883750428E-01  0.12729220889E+00  0.19759707663E-01 0.  0.
         14    1    1    2    0    0  0.12492775842E-01  0.21833817753E-01 -0.78107355925E-02  0.26339943744E-01  0.00000000000E+00 0. -1.
     999901    1    3    3    0    0 -0.11863488226E+00  0.18703265053E-01  0.61694486020E-01  0.89029784736E+00  0.88000000000E+00 0.  1.
        -11    1    4    4    0    0  0.80109466688E-01 -0.21817839823E-01 -0.35236647374E-01  0.90196603189E-01  0.51100000000E-03 0.  1.
         11    1    4    4    0    0  0.26032639733E-01 -0.18719242983E-01 -0.18647103053E-01  0.37095605705E-01  0.51100000000E-03 0. -1.
</event>
<event>
 8    1  0.1119901E+005  0.1043930E+01  0.7957747E-01            NaN
         13   -1    0    0    0    0  0.00000000000E+00  0.00000000000E+00  0.74505805969E-08  0.10566000000E+00  0.10566000000E+00 0. -1.
     999900   -1    0    0    0    0 -0.00000000000E+00 -0.00000000000E+00 -0.74505805969E-08  0.93827000000E+00  0.93827000000E+00 0. -1.
     999902    2    1    2    0    0 -0.78836316059E-02 -0.21841882833E-01 -0.33575097976E-02  0.10204674263E+01  0.10201976650E+01 0.  0.
     999903    2    3    3    0    0 -0.12746481631E+00 -0.23655795959E-01  0.16436424057E-01  0.13215737353E+00  0.19711399367E-01 0.  0.
         14    1    1    2    0    0  0.78836316059E-02  0.21841882833E-01  0.33575097976E-02  0.23462573709E-01  0.00000000000E+00 0. -1.
     999901    1    3    3    0    0  0.11958118470E+00  0.18139131260E-02 -0.19793933855E-01  0.88831005276E+00  0.88000000000E+00 0. -1.
        -11    1    4    4    0    0 -0.56063507444E-01 -0.17003479016E-01  0.89037384123E-05  0.58587510323E-01  0.51100000000E-03 0. -1.
         11    1    4    4    0    0 -0.71401308861E-01 -0.66523169427E-02  0.16427520319E-01  0.73569863209E-01  0.51100000000E-03 0.  1.
</event>
<event>
 8    1  0.1119901E+005  0.1043930E+01  0.7957747E-01            NaN
         13   -1    0    0    0    0  0.00000000000E+00  0.00000000000E+00  0.74505805969E-08  0.10566000000E+00  0.10566000000E+00 0. -1.
     999900   -1    0    0    0    0 -0.00000000000E+00 -0.00000000000E+00 -0.74505805969E-08  0.93827000000E+00  0.93827000000E+00 0.  1.
     999902    2    1    2    0    0 -0.89315596037E-02 -0.63950461523E-02  0.21001562511E-01  0.10202290506E+01  0.10199537150E+01 0.  0.
     999903    2    3    3    0    0 -0.10441401668E+00 -0.77984781048E-01 -0.56952676262E-03  0.13191193292E+00  0.20408839594E-01 0.  0.
         14    1    1    2    0    0  0.89315596037E-02  0.63950461523E-02 -0.21001562511E-01  0.23700949351E-01  0.00000000000E+00 0.  1.
     999901    1    3    3    0    0  0.95482457072E-01  0.71589734895E-01  0.21571089273E-01  0.88831711773E+00  0.88000000000E+00 0. -1.
        -11    1    4    4    0    0 -0.57242794097E-01 -0.50923765176E-01 -0.79502517455E-02  0.77028793055E-01  0.51100000000E-03 0. -1.
         11    1    4    4    0    0 -0.47171222579E-01 -0.27061015872E-01  0.73807249829E-02  0.54883139869E-01  0.51100000000E-03 0.  1.
</event>
<event>
 8    1  0.1119901E+005  0.1043930E+01  0.7957747E-01            NaN
         13   -1    0    0    0    0  0.00000000000E+00  0.00000000000E+00  0.74505805969E-08  0.10566000000E+00  0.10566000000E+00 0. -1.
     999900   -1    0    0    0    0 -0.00000000000E+00 -0.00000000000E+00 -0.74505805969E-08  0.93827000000E+00  0.93827000000E+00 0. -1.
     999902    2    1    2    0    0  0.43450658587E-02  0.11423812800E-01 -0.20277678365E-01  0.10202536967E+01  0.10199789402E+01 0.  0.
     999903    2    3    3    0    0 -0.11279636882E+00  0.63125719445E-01 -0.27952757425E-02  0.13081520124E+00  0.19923002652E-01 0.  0.
         14    1    1    2    0    0 -0.43450658587E-02 -0.11423812800E-01  0.20277678365E-01  0.23676303260E-01  0.00000000000E+00 0. -1.
     999901    1    3    3    0    0  0.11714143468E+00 -0.51701906646E-01 -0.17482402622E-01  0.88943849550E+00  0.88000000000E+00 0.  1.
        -11    1    4    4    0    0 -0.82867153543E-01  0.35868659243E-01 -0.23299958315E-02  0.90328377899E-01  0.51100000000E-03 0. -1.
         11    1    4    4    0    0 -0.29929215280E-01  0.27257060202E-01 -0.46527991101E-03  0.40486823345E-01  0.51100000000E-03 0.  1.
</event>
<event>
 8    1  0.1119901E+005  0.1043930E+01  0.7957747E-01            NaN
         13   -1    0    0    0    0  0.00000000000E+00  0.00000000000E+00  0.74505805969E-08  0.10566000000E+00  0.10566000000E+00 0. -1.
     999900   -1    0    0    0    0 -0.00000000000E+00 -0.00000000000E+00 -0.74505805969E-08  0.93827000000E+00  0.93827000000E+00 0. -1.
     999902    2    1    2    0    0  0.23496645252E-02  0.17006283566E-01 -0.13370941770E-01  0.10221695614E+01  0.10219379118E+01 0.  0.
     999903    2    3    3    0    0 -0.49684780664E-01 -0.56188791520E-01 -0.10805982315E+00  0.13254543473E+00  0.16297520282E-01 0.  0.
         14    1    1    2    0    0 -0.23496645252E-02 -0.17006283566E-01  0.13370941770E-01  0.21760438597E-01  0.00000000000E+00 0. -1.
     999901    1    3    3    0    0  0.52034445189E-01  0.73195075087E-01  0.94688881375E-01  0.88962412667E+00  0.88000000000E+00 0.  1.
        -11    1    4    4    0    0 -0.14897121421E-01 -0.24285852570E-01 -0.51664417406E-01  0.59001694963E-01  0.51100000000E-03 0. -1.
         11    1    4    4    0    0 -0.34787659243E-01 -0.31902938951E-01 -0.56395405740E-01  0.73543739766E-01  0.51100000000E-03 0.  1.
</event>
<event>
 8    1  0.1119901E+005  0.1043930E+01  0.7957747E-01            NaN
         13   -1    0    0    0    0  0.00000000000E+00  0.00000000000E+00  0.74505805969E-08  0.10566000000E+00  0.10566000000E+00 0. -1.
     999900   -1    0    0    0    0 -0.00000000000E+00 -0.00000000000E+00 -0.74505805969E-08  0.93827000000E+00  0.93827000000E+00 0. -1.
     999902    2    1    2    0    0  0.34601826529E-02  0.20289030978E-02  0.23873789119E-01  0.10197215899E+01  0.10194341930E+01 0.  0.
     999903    2    3    3    0    0  0.10650131750E+00 -0.56688454552E-01 -0.41732261596E-01  0.12934562582E+00  0.20798984372E-01 0.  0.
         14    1    1    2    0    0 -0.34601826529E-02 -0.20289030978E-02 -0.23873789119E-01  0.24208410081E-01  0.00000000000E+00 0.  1.
     999901    1    3    3    0    0 -0.10304113485E+00  0.58717357650E-01  0.65606050714E-01  0.89037596410E+00  0.88000000000E+00 0. -1.
        -11    1    4    4    0    0  0.44872702938E-01 -0.33250990285E-01 -0.12576881588E-01  0.57250562402E-01  0.51100000000E-03 0. -1.
         11    1    4    4    0    0  0.61628614564E-01 -0.23437464267E-01 -0.29155380008E-01  0.72095063414E-01  0.51100000000E-03 0.  1.
</event>
<event>
 8    1  0.1119901E+005  0.1043930E+01  0.7957747E-01            NaN
         13   -1    0    0    0    0  0.00000000000E+00  0.00000000000E+00  0.74505805969E-08  0.10566000000E+00  0.10566000000E+00 0.  1.
     999900   -1    0    0    0    0 -0.00000000000E+00 -0.00000000000E+00 -0.74505805969E-08  0.93827000000E+00  0.93827000000E+00 0.  1.
     999902    2    1    2    0    0 -0.61146432464E-02 -0.16586684488E-01 -0.96558412055E-02  0.10237869557E+01  0.10235887790E+01 0.  0.
     999903    2    3    3    0    0 -0.89393526198E-01  0.18802371870E-01  0.94558465413E-01  0.13302976131E+00  0.20270231825E-01 0.  0.
         14    1    1    2    0    0  0.61146432464E-02  0.16586684488E-01  0.96558412055E-02  0.20143044301E-01  0.00000000000E+00 0.  1.
     999901    1    3    3    0    0  0.83278882952E-01 -0.35389056358E-01 -0.10421430662E+00  0.89075719439E+00  0.88000000000E+00 0.  1.
        -11    1    4    4    0    0 -0.78056247431E-01  0.14263770084E-01  0.70947340891E-01  0.10644256292E+00  0.51100000000E-03 0.  1.
         11    1    4    4    0    0 -0.11337278767E-01  0.45386017863E-02  0.23611124522E-01  0.26587198390E-01  0.51100000000E-03 0. -1.
</event>
<event>
 8    1  0.1119901E+005  0.1043930E+01  0.7957747E-01            NaN
         13   -1    0    0    0    0  0.00000000000E+00  0.00000000000E+00  0.74505805969E-08  0.10566000000E+00  0.10566000000E+00 0. -1.
     999900   -1    0    0    0    0 -0.00000000000E+00 -0.00000000000E+00 -0.74505805969E-08  0.93827000000E+00  0.93827000000E+00 0. -1.
     999902    2    1    2    0    0  0.19176410533E-01  0.37796890880E-02  0.11835989143E-01  0.10210802427E+01  0.10208245445E+01 0.  0.
     999903    2    3    3    0    0 -0.79205139548E-01  0.48778209576E-01  0.90050941470E-01  0.13101205709E+00  0.20055402806E-01 0.  0.
         14    1    1    2    0    0 -0.19176410533E-01 -0.37796890880E-02 -0.11835989143E-01  0.22849757319E-01  0.00000000000E+00 0.  1.
     999901    1    3    3    0    0  0.98381550081E-01 -0.44998520488E-01 -0.78214952327E-01  0.89006818560E+00  0.88000000000E+00 0. -1.
        -11    1    4    4    0    0 -0.45294004344E-01  0.26876915767E-01  0.64335347309E-01  0.83145736301E-01  0.51100000000E-03 0.  1.
         11    1    4    4    0    0 -0.33911135204E-01  0.21901293808E-01  0.25715594161E-01  0.47866320784E-01  0.51100000000E-03 0. -1.
</event>
<event>
 8    1  0.1119901E+005  0.1043930E+01  0.7957747E-01            NaN
         13   -1    0    0    0    0  0.00000000000E+00  0.00000000000E+00  0.74505805969E-08  0.10566000000E+00  0.10566000000E+00 0. -1.
     999900   -1    0    0    0    0 -0.00000000000E+00 -0.00000000000E+00 -0.74505805969E-08  0.93827000000E+00  0.93827000000E+00 0.  1.
     999902    2    1    2    0    0  0.69844609150E-02 -0.30826729609E-02 -0.21578558658E-01  0.10210407064E+01  0.10207841125E+01 0.  0.
     999903    2    3    3    0    0 -0.10625278839E+00 -0.38036624219E-01 -0.65575741149E-01  0.13200740816E+00  0.19731653740E-01 0.  0.
         14    1    1    2    0    0 -0.69844609150E-02  0.30826729609E-02  0.21578558658E-01  0.22889293580E-01  0.00000000000E+00 0. -1.
     999901    1    3    3    0    0  0.11323724931E+00  0.34953951258E-01  0.43997182491E-01  0.88903329826E+00  0.88000000000E+00 0. -1.
        -11    1    4    4    0    0 -0.29902013380E-01 -0.10815938163E-01 -0.86553143988E-02  0.32958921567E-01  0.51100000000E-03 0.  1.
         11    1    4    4    0    0 -0.76350775015E-01 -0.27220686056E-01 -0.56920426750E-01  0.99048486597E-01  0.51100000000E-03 0. -1.
</event>
<event>
 8    1  0.1119901E+005  0.1043930E+01  0.7957747E-01            NaN
         13   -1    0    0    0    0  0.00000000000E+00  0.00000000000E+00  0.74505805969E-08  0.10566000000E+00  0.10566000000E+00 0. -1.
     999900   -1    0    0    0    0 -0.00000000000E+00 -0.00000000000E+00 -0.74505805969E-08  0.93827000000E+00  0.93827000000E+00 0. -1.
     999902    2    1    2    0    0 -0.24129889311E-02 -0.60432576702E-02 -0.22130369061E-01  0.10208627784E+01  0.10206021338E+01 0.  0.
     999903    2    3    3    0    0 -0.26146978013E-01  0.79715849239E-01 -0.10002341203E+00  0.13295216756E+00  0.25165747073E-01 0.  0.
         14    1    1    2    0    0  0.24129889311E-02  0.60432576702E-02  0.22130369061E-01  0.23067221627E-01  0.00000000000E+00 0. -1.
     999901    1    3    3    0    0  0.23733989082E-01 -0.85759106909E-01  0.77893042966E-01  0.88791061082E+00  0.88000000000E+00 0.  1.
        -11    1    4    4    0    0 -0.28760599789E-01  0.66643312336E-01 -0.92686969582E-01  0.11772696645E+00  0.51100000000E-03 0. -1.
         11    1    4    4    0    0  0.26136217765E-02  0.13072536903E-01 -0.73364424443E-02  0.15225201103E-01  0.51100000000E-03 0.  1.
</event>
<event>
 8    1  0.1119901E+005  0.1043930E+01  0.7957747E-01            NaN
         13   -1    0    0    0    0  0.00000000000E+00  0.00000000000E+00  0.74505805969E-08  0.10566000000E+00  0.10566000000E+00 0.  1.
     999900   -1    0    0    0    0 -0.00000000000E+00 -0.00000000000E+00 -0.74505805969E-08  0.93827000000E+00  0.93827000000E+00 0. -1.
     999902    2    1    2    0    0  0.14086712514E-01  0.18968314174E-01 -0.12580441920E-02  0.10202695882E+01  0.10199952046E+01 0.  0.
     999903    2    3    3    0    0 -0.78339427910E-01  0.10228444502E+00  0.14781638529E-01  0.13137058351E+00  0.20989514416E-01 0.  0.
         14    1    1    2    0    0 -0.14086712514E-01 -0.18968314174E-01  0.12580441920E-02  0.23660411815E-01  0.00000000000E+00 0. -1.
     999901    1    3    3    0    0  0.92426140424E-01 -0.83316130847E-01 -0.16039682721E-01  0.88889900468E+00  0.88000000000E+00 0. -1.
        -11    1    4    4    0    0 -0.70793074970E-01  0.84155017991E-01  0.18088156826E-01  0.11145029859E+00  0.51100000000E-03 0.  1.
         11    1    4    4    0    0 -0.75463529398E-02  0.18129427029E-01 -0.33065182974E-02  0.19920284921E-01  0.51100000000E-03 0. -1.
</event>
<event>
 8    1  0.1119901E+005  0.1043930E+01  0.7957747E-01            NaN
         13   -1    0    0    0    0  0.00000000000E+00  0.00000000000E+00  0.74505805969E-08  0.10566000000E+00  0.10566000000E+00 0. -1.
     999900   -1    0    0    0    0 -0.00000000000E+00 -0.00000000000E+00 -0.74505805969E-08  0.93827000000E+00  0.93827000000E+00 0. -1.
     999902    2    1    2    0    0 -0.96454912402E-02 -0.16794196397E-01 -0.13071964576E-01  0.10205642817E+01  0.10202967687E+01 0.  0.
     999903    2    3    3    0    0  0.69694079277E-01 -0.25490388769E-02 -0.10985180531E+00  0.13159632416E+00  0.19657342528E-01 0.  0.
         14    1    1    2    0    0  0.96454912402E-02  0.16794196397E-01  0.13071964576E-01  0.23365718302E-01  0.00000000000E+00 0. -1.
     999901    1    3    3    0    0 -0.79339570517E-01 -0.14245157520E-01  0.96779840738E-01  0.88896795754E+00  0.88000000000E+00 0.  1.
        -11    1    4    4    0    0  0.49471917525E-01 -0.54141749939E-02 -0.91374379480E-01  0.10404961442E+00  0.51100000000E-03 0. -1.
         11    1    4    4    0    0  0.20222161751E-01  0.28651361170E-02 -0.18477425834E-01  0.27546709737E-01  0.51100000000E-03 0.  1.
</event>
<event>
 8    1  0.1119901E+005  0.1043930E+01  0.7957747E-01            NaN
         13   -1    0    0    0    0  0.00000000000E+00  0.00000000000E+00  0.74505805969E-08  0.10566000000E+00  0.10566000000E+00 0.  1.
     999900   -1    0    0    0    0 -0.00000000000E+00 -0.00000000000E+00 -0.74505805969E-08  0.93827000000E+00  0.93827000000E+00 0.  1.
     999902    2    1    2    0    0  0.15789225090E-01  0.15998929261E-01  0.74595573642E-03  0.10214395172E+01  0.10211918848E+01 0.  0.
     999903    2    3    3    0    0 -0.25772308470E-01 -0.33852968042E-01 -0.12188785787E+00  0.13056824425E+00  0.19523861819E-01 0.  0.
         14    1    1    2    0    0 -0.15789225090E-01 -0.15998929261E-01 -0.74595573642E-03  0.22490482796E-01  0.00000000000E+00 0. -1.
     999901    1    3    3    0    0  0.41561533560E-01  0.49851897303E-01  0.12263381361E+00  0.89087127296E+00  0.88000000000E+00 0. -1.
        -11    1    4    4    0    0 -0.27580210383E-01 -0.32067994199E-01 -0.10071441114E+00  0.10923679778E+00  0.51100000000E-03 0. -1.
         11    1    4    4    0    0  0.18079019136E-02 -0.17849738423E-02 -0.21173446732E-01  0.21331446469E-01  0.51100000000E-03 0.  1.
</event>
<event>
 8    1  0.1119901E+005  0.1043930E+01  0.7957747E-01            NaN
         13   -1    0    0    0    0  0.00000000000E+00  0.00000000000E+00  0.74505805969E-08  0.10566000000E+00  0.10566000000E+00 0.  1.
     999900   -1    0    0    0    0 -0.00000000000E+00 -0.00000000000E+00 -0.74505805969E-08  0.93827000000E+00  0.93827000000E+00 0. -1.
     999902    2    1    2    0    0 -0.15248233795E-01  0.15117443754E-01  0.10428587408E-01  0.10200594915E+01  0.10197801553E+01 0.  0.
     999903    2    3    3    0    0  0.12140778255E-02  0.68455527266E-01  0.11161089175E+00  0.13250452558E+00  0.20318094039E-01 0.  0.
         14    1    1    2    0    0  0.15248233795E-01 -0.15117443754E-01 -0.10428587408E-01  0.23870508474E-01  0.00000000000E+00 0.  1.
     999901    1    3    3    0    0 -0.16462311620E-01 -0.53338083512E-01 -0.10118230434E+00  0.88755496594E+00  0.88000000000E+00 0.  1.
        -11    1    4    4    0    0 -0.24324392159E-02  0.26559066364E-01  0.26665874891E-01  0.37717777921E-01  0.51100000000E-03 0.  1.
         11    1    4    4    0    0  0.36465170414E-02  0.41896460902E-01  0.84945016857E-01  0.94786747662E-01  0.51100000000E-03 0. -1.
</event>
<event>
 8    1  0.1119901E+005  0.1043930E+01  0.7957747E-01            NaN
         13   -1    0    0    0    0  0.00000000000E+00  0.00000000000E+00  0.74505805969E-08  0.10566000000E+00  0.10566000000E+00 0. -1.
     999900   -1    0    0    0    0 -0.00000000000E+00 -0.00000000000E+00 -0.74505805969E-08  0.93827000000E+00  0.93827000000E+00 0. -1.
     999902    2    1    2    0    0  0.20760129615E-01 -0.72320747532E-02  0.98561749093E-02  0.10198378836E+01  0.10195532742E+01 0.  0.
     999903    2    3    3    0    0  0.83224425210E-02  0.25956507989E-01  0.12692830343E+00  0.13137738291E+00  0.20154879578E-01 0.  0.
         14    1    1    2    0    0 -0.20760129615E-01  0.72320747532E-02 -0.98561749093E-02  0.24092116360E-01  0.00000000000E+00 0. -1.
     999901    1    3    3    0    0  0.12437687094E-01 -0.33188582742E-01 -0.11707212852E+00  0.88846050073E+00  0.88000000000E+00 0. -1.
        -11    1    4    4    0    0  0.27989031804E-02  0.86221579600E-03  0.53479750433E-01  0.53562319801E-01  0.51100000000E-03 0. -1.
         11    1    4    4    0    0  0.55235393406E-02  0.25094292193E-01  0.73448553000E-01  0.77815063107E-01  0.51100000000E-03 0.  1.
</event>
<event>
 8    1  0.1119901E+005  0.1043930E+01  0.7957747E-01            NaN
         13   -1    0    0    0    0  0.00000000000E+00  0.00000000000E+00  0.74505805969E-08  0.10566000000E+00  0.10566000000E+00 0. -1.
     999900   -1    0    0    0    0 -0.00000000000E+00 -0.00000000000E+00 -0.74505805969E-08  0.93827000000E+00  0.93827000000E+00 0.  1.
     999902    2    1    2    0    0 -0.20821211089E-01 -0.20465958257E-01  0.11881317346E-01  0.10124094673E+01  0.10119186655E+01 0.  0.
     999903    2    3    3    0    0  0.81203654610E-01  0.70081726685E-01 -0.49391816794E-01  0.11979401068E+00  0.20138805591E-01 0.  0.
         14    1    1    2    0    0  0.20821211089E-01  0.20465958257E-01 -0.11881317346E-01  0.31520532681E-01  0.00000000000E+00 0.  1.
     999901    1    3    3    0    0 -0.10202486570E+00 -0.90547684942E-01  0.61273134140E-01  0.89261545664E+00  0.88000000000E+00 0. -1.
        -11    1    4    4    0    0  0.13074336147E-01  0.17359904399E-01 -0.17589566040E-01  0.27963520896E-01  0.51100000000E-03 0.  1.
         11    1    4    4    0    0  0.68129318462E-01  0.52721822286E-01 -0.31802250754E-01  0.91830489781E-01  0.51100000000E-03 0. -1.
</event>
<event>
 8    1  0.1119901E+005  0.1043930E+01  0.7957747E-01            NaN
         13   -1    0    0    0    0  0.00000000000E+00  0.00000000000E+00  0.74505805969E-08  0.10566000000E+00  0.10566000000E+00 0. -1.
     999900   -1    0    0    0    0 -0.00000000000E+00 -0.00000000000E+00 -0.74505805969E-08  0.93827000000E+00  0.93827000000E+00 0. -1.
     999902    2    1    2    0    0 -0.10209532412E-01 -0.17156425195E-01 -0.14020748980E-01  0.10195341217E+01  0.10192422020E+01 0.  0.
     999903    2    3    3    0    0  0.10813701106E+00 -0.61333916702E-01  0.29815460493E-01  0.12943347097E+00  0.20213837445E-01 0.  0.
         14    1    1    2    0    0  0.10209532412E-01  0.17156425195E-01  0.14020748980E-01  0.24395878330E-01  0.00000000000E+00 0. -1.
     999901    1    3    3    0    0 -0.11834654348E+00  0.44177491506E-01 -0.43836209473E-01  0.89010065070E+00  0.88000000000E+00 0.  1.
        -11    1    4    4    0    0  0.59033115139E-01 -0.44058364497E-01  0.21332089872E-01  0.76690073311E-01  0.51100000000E-03 0.  1.
         11    1    4    4    0    0  0.49103895924E-01 -0.17275552205E-01  0.84833706210E-02  0.52743397663E-01  0.51100000000E-03 0. -1.
</event>
<event>
 8    1  0.1119901E+005  0.1043930E+01  0.7957747E-01            NaN
         13   -1    0    0    0    0  0.00000000000E+00  0.00000000000E+00  0.74505805969E-08  0.10566000000E+00  0.10566000000E+00 0. -1.
     999900   -1    0    0    0    0 -0.00000000000E+00 -0.00000000000E+00 -0.74505805969E-08  0.93827000000E+00  0.93827000000E+00 0. -1.
     999902    2    1    2    0    0  0.22573286331E-01 -0.83459825521E-02  0.46005811789E-02  0.10194274690E+01  0.10191329601E+01 0.  0.
     999903    2    3    3    0    0 -0.72474032084E-01  0.99054131604E-01  0.28055774151E-01  0.12750879366E+00  0.20178198210E-01 0.  0.
         14    1    1    2    0    0 -0.22573286331E-01  0.83459825521E-02 -0.46005811789E-02  0.24502531047E-01  0.00000000000E+00 0.  1.
     999901    1    3    3    0    0  0.95047318415E-01 -0.10740011416E+00 -0.23455192972E-01  0.89191867529E+00  0.88000000000E+00 0. -1.
        -11    1    4    4    0    0 -0.66638971800E-01  0.87711811620E-01  0.30945617260E-01  0.11442030768E+00  0.51100000000E-03 0. -1.
         11    1    4    4    0    0 -0.58350602844E-02  0.11342319984E-01 -0.28898431088E-02  0.13088485984E-01  0.51100000000E-03 0.  1.
</event>
<event>
 8    1  0.1119901E+005  0.1043930E+01  0.7957747E-01            NaN
         13   -1    0    0    0    0  0.00000000000E+00  0.00000000000E+00  0.74505805969E-08  0.10566000000E+00  0.10566000000E+00 0. -1.
     999900   -1    0    0    0    0 -0.00000000000E+00 -0.00000000000E+00 -0.74505805969E-08  0.93827000000E+00  0.93827000000E+00 0.  1.
     999902    2    1    2    0    0 -0.14815703884E-01  0.44023549831E-02  0.49997445030E-02  0.10276855161E+01  0.10275571210E+01 0.  0.
     999903    2    3    3    0    0  0.50947804290E-01 -0.66031774874E-01  0.10646997625E+00  0.13662883242E+00  0.19383187322E-01 0.  0.
         14    1    1    2    0    0  0.14815703884E-01 -0.44023549831E-02 -0.49997445030E-02  0.16244483866E-01  0.00000000000E+00 0.  1.
     999901    1    3    3    0    0 -0.65763508174E-01  0.70434129857E-01 -0.10147023175E+00  0.89105668371E+00  0.88000000000E+00 0.  1.
        -11    1    4    4    0    0  0.12175659180E-01 -0.31208959034E-01  0.41023138034E-01  0.52966071930E-01  0.51100000000E-03 0. -1.
         11    1    4    4    0    0  0.38772145109E-01 -0.34822815840E-01  0.65446838219E-01  0.83662760493E-01  0.51100000000E-03 0.  1.
</event>
<event>
 8    1  0.1119901E+005  0.1043930E+01  0.7957747E-01            NaN
         13   -1    0    0    0    0  0.00000000000E+00  0.00000000000E+00  0.74505805969E-08  0.10566000000E+00  0.10566000000E+00 0.  1.
     999900   -1    0    0    0    0 -0.00000000000E+00 -0.00000000000E+00 -0.74505805969E-08  0.93827000000E+00  0.93827000000E+00 0.  1.
     999902    2    1    2    0    0 -0.54599045479E-02 -0.95586176205E-02  0.18355050397E-01  0.10225270655E+01  0.10223030442E+01 0.  0.
     999903    2    3    3    0    0 -0.10670650782E+00  0.28874245836E-01 -0.69481181812E-01  0.13154829848E+00  0.16041175846E-01 0.  0.
         14    1    1    2    0    0  0.54599045479E-02  0.95586176205E-02 -0.18355050397E-01  0.21402934462E-01  0.00000000000E+00 0. -1.
     999901    1    3    3    0    0  0.10124660327E+00 -0.38432863457E-01  0.87836232209E-01  0.89097876706E+00  0.88000000000E+00 0. -1.
        -11    1    4    4    0    0 -0.62429059790E-01  0.91350163578E-02 -0.36194909089E-01  0.72740419266E-01  0.51100000000E-03 0.  1.
         11    1    4    4    0    0 -0.44277448029E-01  0.19739229478E-01 -0.33286272723E-01  0.58807879210E-01  0.51100000000E-03 0. -1.
</event>
<event>
 8    1  0.1352364E+005  0.1043930E+01  0.7957747E-01            NaN
         13   -1    0    0    0    0  0.00000000000E+00  0.00000000000E+00  0.74505805969E-08  0.10566000000E+00  0.10566000000E+00 0. -1.
     999900   -1    0    0    0    0 -0.00000000000E+00 -0.00000000000E+00 -0.74505805969E-08  0.93827000000E+00  0.93827000000E+00 0. -1.
     999902    2    1    2    0    0  0.12593763449E-01  0.19146639589E-01 -0.13182894627E-02  0.10209749445E+01  0.10207168573E+01 0.  0.
     999903    2    3    3    0    0  0.15042504235E-01 -0.74102694313E-01  0.10362074104E+00  0.12984440709E+00  0.20120284319E-01 0.  0.
         14    1    1    2    0    0 -0.12593763449E-01 -0.19146639589E-01  0.13182894627E-02  0.22955055489E-01  0.00000000000E+00 0.  1.
     999901    1    3    3    0    0 -0.24487407857E-02  0.93249333903E-01 -0.10493903050E+00  0.89113053742E+00  0.88000000000E+00 0. -1.
        -11    1    4    4    0    0  0.16757335203E-01 -0.33188109538E-01  0.45890896780E-01  0.59063477938E-01  0.51100000000E-03 0. -1.
         11    1    4    4    0    0 -0.17148309682E-02 -0.40914584775E-01  0.57729844257E-01  0.70780929151E-01  0.51100000000E-03 0.  1.
</event>
<event>
 8    1  0.1119901E+005  0.1043930E+01  0.7957747E-01            NaN
         13   -1    0    0    0    0  0.00000000000E+00  0.00000000000E+00  0.74505805969E-08  0.10566000000E+00  0.10566000000E+00 0. -1.
     999900   -1    0    0    0    0 -0.00000000000E+00 -0.00000000000E+00 -0.74505805969E-08  0.93827000000E+00  0.93827000000E+00 0. -1.
     999902    2    1    2    0    0  0.59282991604E-03  0.24774532606E-01 -0.84683340207E-03  0.10191339108E+01  0.10188322149E+01 0.  0.
     999903    2    3    3    0    0 -0.61386788476E-01 -0.86700873889E-01  0.67273472289E-01  0.12733313966E+00  0.20065618578E-01 0.  0.
         14    1    1    2    0    0 -0.59282991604E-03 -0.24774532606E-01  0.84683340207E-03  0.24796089207E-01  0.00000000000E+00 0. -1.
     999901    1    3    3    0    0  0.61979618392E-01  0.11147540649E+00 -0.68120305691E-01  0.89180077113E+00  0.88000000000E+00 0.  1.
        -11    1    4    4    0    0 -0.24524596811E-01 -0.51184510953E-01  0.31893111286E-01  0.65105619410E-01  0.51100000000E-03 0.  1.
         11    1    4    4    0    0 -0.36862191665E-01 -0.35516362935E-01  0.35380361003E-01  0.62227520248E-01  0.51100000000E-03 0. -1.
</event>
<event>
 8    1  0.1119901E+005  0.1043930E+01  0.7957747E-01            NaN
         13   -1    0    0    0    0  0.00000000000E+00  0.00000000000E+00  0.74505805969E-08  0.10566000000E+00  0.10566000000E+00 0. -1.
     999900   -1    0    0    0    0 -0.00000000000E+00 -0.00000000000E+00 -0.74505805969E-08  0.93827000000E+00  0.93827000000E+00 0.  1.
     999902    2    1    2    0    0  0.21764622891E-01 -0.65079032797E-02 -0.72123130140E-02  0.10200958003E+01  0.10198173232E+01 0.  0.
     999903    2    3    3    0    0 -0.67184103840E-01  0.77977392965E-02  0.10768551642E+00  0.12806551015E+00  0.15168912193E-01 0.  0.
         14    1    1    2    0    0 -0.21764622891E-01  0.65079032797E-02  0.72123130140E-02  0.23834199666E-01  0.00000000000E+00 0. -1.
     999901    1    3    3    0    0  0.88948726731E-01 -0.14305642576E-01 -0.11489782943E+00  0.89203029018E+00  0.88000000000E+00 0.  1.
        -11    1    4    4    0    0 -0.11672315862E-01  0.53612308508E-02  0.29159952368E-01  0.31867690487E-01  0.51100000000E-03 0. -1.
         11    1    4    4    0    0 -0.55511787977E-01  0.24365084457E-02  0.78525564050E-01  0.96197819664E-01  0.51100000000E-03 0.  1.
</event>
<event>
 8    1  0.1119901E+005  0.1043930E+01  0.7957747E-01            NaN
         13   -1    0    0    0    0  0.00000000000E+00  0.00000000000E+00  0.74505805969E-08  0.10566000000E+00  0.10566000000E+00 0.  1.
     999900   -1    0    0    0    0 -0.00000000000E+00 -0.00000000000E+00 -0.74505805969E-08  0.93827000000E+00  0.93827000000E+00 0. -1.
     999902    2    1    2    0    0  0.24811166488E-01  0.54117831407E-02 -0.55761638332E-02  0.10179304811E+01  0.10175983930E+01 0.  0.
     999903    2    3    3    0    0  0.58778552144E-01 -0.13018180373E-01  0.11235953261E+00  0.12922227515E+00  0.21197655918E-01 0.  0.
         14    1    1    2    0    0 -0.24811166488E-01 -0.54117831407E-02  0.55761638332E-02  0.25999518887E-01  0.00000000000E+00 0. -1.
     999901    1    3    3    0    0 -0.33967385656E-01  0.18429963514E-01 -0.11793569644E+00  0.88870820596E+00  0.88000000000E+00 0. -1.
        -11    1    4    4    0    0  0.17857869688E-02 -0.53793147484E-02  0.57348540873E-02  0.80793399893E-02  0.51100000000E-03 0.  1.
         11    1    4    4    0    0  0.56992765175E-01 -0.76388656248E-02  0.10662467852E+00  0.12114293517E+00  0.51100000000E-03 0. -1.
</event>
<event>
 8    1  0.1119901E+005  0.1043930E+01  0.7957747E-01            NaN
         13   -1    0    0    0    0  0.00000000000E+00  0.00000000000E+00  0.74505805969E-08  0.10566000000E+00  0.10566000000E+00 0. -1.
     999900   -1    0    0    0    0 -0.00000000000E+00 -0.00000000000E+00 -0.74505805969E-08  0.93827000000E+00  0.93827000000E+00 0.  1.
     999902    2    1    2    0    0 -0.35908842060E-02 -0.19189237294E-01  0.13179356344E-01  0.10203754524E+01  0.10201035473E+01 0.  0.
     999903    2    3    3    0    0  0.71238534651E-03 -0.13149042447E+00  0.67337307968E-02  0.13320488211E+00  0.20197976762E-01 0.  0.
         14    1    1    2    0    0  0.35908842060E-02  0.19189237294E-01 -0.13179356344E-01  0.23554547564E-01  0.00000000000E+00 0.  1.
     999901    1    3    3    0    0 -0.43032695525E-02  0.11230118718E+00  0.64456255468E-02  0.88717057033E+00  0.88000000000E+00 0.  1.
        -11    1    4    4    0    0 -0.38628796635E-02 -0.96742973611E-01 -0.28631124957E-02  0.96863735818E-01  0.51100000000E-03 0.  1.
         11    1    4    4    0    0  0.45752650100E-02 -0.34747450863E-01  0.95968432925E-02  0.36341146288E-01  0.51100000000E-03 0. -1.
</event>
<event>
 8    1  0.1119901E+005  0.1043930E+01  0.7957747E-01            NaN
         13   -1    0    0    0    0  0.00000000000E+00  0.00000000000E+00  0.74505805969E-08  0.10566000000E+00  0.10566000000E+00 0.  1.
     999900   -1    0    0    0    0 -0.00000000000E+00 -0.00000000000E+00 -0.74505805969E-08  0.93827000000E+00  0.93827000000E+00 0. -1.
     999902    2    1    2    0    0 -0.14424557882E-01  0.17156876070E-01 -0.31203774303E-02  0.10212989810E+01  0.10210482092E+01 0.  0.
     999903    2    3    3    0    0 -0.61846681007E-01  0.11691121045E+00 -0.12015074395E-01  0.13434977126E+00  0.20304086894E-01 0.  0.
         14    1    1    2    0    0  0.14424557882E-01 -0.17156876070E-01  0.31203774303E-02  0.22631019020E-01  0.00000000000E+00 0.  1.
     999901    1    3    3    0    0  0.47422123126E-01 -0.99754334379E-01  0.88946969649E-02  0.88694920972E+00  0.88000000000E+00 0.  1.
        -11    1    4    4    0    0 -0.24370072176E-01  0.31442756425E-01 -0.99123645215E-02  0.41000773662E-01  0.51100000000E-03 0.  1.
         11    1    4    4    0    0 -0.37476608831E-01  0.85468454024E-01 -0.21027098736E-02  0.93348997597E-01  0.51100000000E-03 0. -1.
</event>
<event>
 8    1  0.1119901E+005  0.1043930E+01  0.7957747E-01            NaN
         13   -1    0    0    0    0  0.00000000000E+00  0.00000000000E+00  0.74505805969E-08  0.10566000000E+00  0.10566000000E+00 0. -1.
     999900   -1    0    0    0    0 -0.00000000000E+00 -0.00000000000E+00 -0.74505805969E-08  0.93827000000E+00  0.93827000000E+00 0.  1.
     999902    2    1    2    0    0  0.19408752966E-01  0.11634794410E-01  0.45070878008E-02  0.10208565960E+01  0.10205958101E+01 0.  0.
     999903    2    3    3    0    0 -0.10708967690E-01  0.56397226469E-01 -0.11604288599E+00  0.13100096241E+00  0.19999290514E-01 0.  0.
         14    1    1    2    0    0 -0.19408752966E-01 -0.11634794410E-01 -0.45070878008E-02  0.23073404020E-01  0.00000000000E+00 0.  1.
     999901    1    3    3    0    0  0.30117720656E-01 -0.44762432059E-01  0.12054997379E+00  0.88985563357E+00  0.88000000000E+00 0. -1.
        -11    1    4    4    0    0  0.39135249049E-02  0.32609895898E-01 -0.64126015197E-01  0.72049482536E-01  0.51100000000E-03 0.  1.
         11    1    4    4    0    0 -0.14622492595E-01  0.23787330571E-01 -0.51916870790E-01  0.58951479871E-01  0.51100000000E-03 0. -1.
</event>
<event>
 8    1  0.1119901E+005  0.1043930E+01  0.7957747E-01            NaN
         13   -1    0    0    0    0  0.00000000000E+00  0.00000000000E+00  0.74505805969E-08  0.10566000000E+00  0.10566000000E+00 0.  1.
     999900   -1    0    0    0    0 -0.00000000000E+00 -0.00000000000E+00 -0.74505805969E-08  0.93827000000E+00  0.93827000000E+00 0. -1.
     999902    2    1    2    0    0  0.13729593301E-03 -0.21363161490E-01  0.29074475722E-02  0.10223694627E+01  0.10221420945E+01 0.  0.
     999903    2    3    3    0    0  0.98375558328E-01  0.66647771249E-01 -0.51223357556E-01  0.13089494000E+00  0.19747837109E-01 0.  0.
         14    1    1    2    0    0 -0.13729593301E-03  0.21363161490E-01 -0.29074475722E-02  0.21560537340E-01  0.00000000000E+00 0.  1.
     999901    1    3    3    0    0 -0.98238262395E-01 -0.88010932739E-01  0.54130805129E-01  0.89147452266E+00  0.88000000000E+00 0.  1.
        -11    1    4    4    0    0  0.37785684155E-01  0.21659704545E-01 -0.28610413659E-01  0.52112547613E-01  0.51100000000E-03 0. -1.
         11    1    4    4    0    0  0.60589874173E-01  0.44988066704E-01 -0.22612943898E-01  0.78782392391E-01  0.51100000000E-03 0.  1.
</event>
<event>
 8    1  0.1119901E+005  0.1043930E+01  0.7957747E-01            NaN
         13   -1    0    0    0    0  0.00000000000E+00  0.00000000000E+00  0.74505805969E-08  0.10566000000E+00  0.10566000000E+00 0. -1.
     999900   -1    0    0    0    0 -0.00000000000E+00 -0.00000000000E+00 -0.74505805969E-08  0.93827000000E+00  0.93827000000E+00 0. -1.
     999902    2    1    2    0    0 -0.11737218842E-01  0.20221266411E-01 -0.60023472454E-04  0.10205491205E+01  0.10202812563E+01 0.  0.
     999903    2    3    3    0    0 -0.96050338251E-01  0.32880773948E-01  0.82702518749E-01  0.13256342041E+00  0.20652870287E-01 0.  0.
         14    1    1    2    0    0  0.11737218842E-01 -0.20221266411E-01  0.60023472454E-04  0.23380879458E-01  0.00000000000E+00 0.  1.
     999901    1    3    3    0    0  0.84313119409E-01 -0.12659507536E-01 -0.82762542221E-01  0.88798570013E+00  0.88000000000E+00 0.  1.
        -11    1    4    4    0    0 -0.61966277417E-01  0.21663083398E-01  0.40364534244E-01  0.77062737202E-01  0.51100000000E-03 0.  1.
         11    1    4    4    0    0 -0.34084060834E-01  0.11217690550E-01  0.42337984505E-01  0.55500683213E-01  0.51100000000E-03 0. -1.
</event>
<event>
 8    1  0.1119901E+005  0.1043930E+01  0.7957747E-01            NaN
         13   -1    0    0    0    0  0.00000000000E+00  0.00000000000E+00  0.74505805969E-08  0.10566000000E+00  0.10566000000E+00 0.  1.
     999900   -1    0    0    0    0 -0.00000000000E+00 -0.00000000000E+00 -0.74505805969E-08  0.93827000000E+00  0.93827000000E+00 0. -1.
     999902    2    1    2    0    0  0.12804689698E-01  0.14355153261E-01 -0.14949834091E-01  0.10195675690E+01  0.10192764590E+01 0.  0.
     999903    2    3    3    0    0 -0.18570497961E-01 -0.71989900255E-01 -0.10479122318E+00  0.13023560297E+00  0.21276811110E-01 0.  0.
         14    1    1    2    0    0 -0.12804689698E-01 -0.14355153261E-01  0.14949834091E-01  0.24362430970E-01  0.00000000000E+00 0.  1.
     999901    1    3    3    0    0  0.31375187659E-01  0.86345053517E-01  0.89841389091E-01  0.88933196606E+00  0.88000000000E+00 0. -1.
        -11    1    4    4    0    0 -0.90117989281E-02 -0.52103713446E-01 -0.57920253941E-01  0.78428479601E-01  0.51100000000E-03 0. -1.
         11    1    4    4    0    0 -0.95586990326E-02 -0.19886186809E-01 -0.46870969240E-01  0.51807123367E-01  0.51100000000E-03 0.  1.
</event>
<event>
 8    1  0.1119901E+005  0.1043930E+01  0.7957747E-01            NaN
         13   -1    0    0    0    0  0.00000000000E+00  0.00000000000E+00  0.74505805969E-08  0.10566000000E+00  0.10566000000E+00 0. -1.
     999900   -1    0    0    0    0 -0.00000000000E+00 -0.00000000000E+00 -0.74505805969E-08  0.93827000000E+00  0.93827000000E+00 0.  1.
     999902    2    1    2    0    0 -0.79928745247E-02 -0.44179374336E-02  0.22203808592E-01  0.10199213905E+01  0.10196387740E+01 0.  0.
     999903    2    3    3    0    0  0.46022764519E-01  0.11445310082E+00  0.36294571065E-01  0.13017616708E+00  0.20271444091E-01 0.  0.
         14    1    1    2    0    0  0.79928745247E-02  0.44179374336E-02 -0.22203808592E-01  0.24008609504E-01  0.00000000000E+00 0.  1.
     999901    1    3    3    0    0 -0.54015639044E-01 -0.11887103826E+00 -0.14090762474E-01  0.88974522341E+00  0.88000000000E+00 0. -1.
        -11    1    4    4    0    0  0.10521028251E-01  0.43313960801E-01  0.20725173888E-01  0.49158775305E-01  0.51100000000E-03 0.  1.
         11    1    4    4    0    0  0.35501736268E-01  0.71139140023E-01  0.15569397178E-01  0.81017391779E-01  0.51100000000E-03 0. -1.
</event>
<event>
 8    1  0.1119901E+005  0.1043930E+01  0.7957747E-01            NaN
         13   -1    0    0    0    0  0.00000000000E+00  0.00000000000E+00  0.74505805969E-08  0.10566000000E+00  0.10566000000E+00 0.  1.
     999900   -1    0    0    0    0 -0.00000000000E+00 -0.00000000000E+00 -0.74505805969E-08  0.93827000000E+00  0.93827000000E+00 0.  1.
     999902    2    1    2    0    0 -0.18961040734E-01 -0.14544888469E-01 -0.74923801135E-02  0.10188858269E+01  0.10185779880E+01 0.  0.
     999903    2    3    3    0    0 -0.93434731916E-01  0.21487094409E-01 -0.87195991374E-01  0.13141903873E+00  0.21819222579E-01 0.  0.
         14    1    1    2    0    0  0.18961040734E-01  0.14544888469E-01  0.74923801135E-02  0.25044173096E-01  0.00000000000E+00 0. -1.
     999901    1    3    3    0    0  0.74473691182E-01 -0.36031982879E-01  0.79703611261E-01  0.88746678818E+00  0.88000000000E+00 0. -1.
        -11    1    4    4    0    0 -0.55979815740E-01  0.12759753050E-01 -0.66085119533E-01  0.87544589855E-01  0.51100000000E-03 0.  1.
         11    1    4    4    0    0 -0.37454916176E-01  0.87273413595E-02 -0.21110871841E-01  0.43874448872E-01  0.51100000000E-03 0. -1.
</event>
<event>
 8    1  0.1119901E+005  0.1043930E+01  0.7957747E-01            NaN
         13   -1    0    0    0    0  0.00000000000E+00  0.00000000000E+00  0.74505805969E-08  0.10566000000E+00  0.10566000000E+00 0. -1.
     999900   -1    0    0    0    0 -0.00000000000E+00 -0.00000000000E+00 -0.74505805969E-08  0.93827000000E+00  0.93827000000E+00 0. -1.
     999902    2    1    2    0    0  0.50547290008E-02  0.14494745546E-01  0.16281243540E-01  0.10215530738E+01  0.10213079633E+01 0.  0.
     999903    2    3    3    0    0  0.77445974758E-01  0.10560633445E-01  0.10680593807E+00  0.13394353691E+00  0.20590208567E-01 0.  0.
         14    1    1    2    0    0 -0.50547290008E-02 -0.14494745546E-01 -0.16281243540E-01  0.22376926173E-01  0.00000000000E+00 0.  1.
     999901    1    3    3    0    0 -0.72391245757E-01  0.39341121014E-02 -0.90524694530E-01  0.88760953691E+00  0.88000000000E+00 0. -1.
        -11    1    4    4    0    0  0.38800027303E-01 -0.49701198809E-02  0.49244056484E-01  0.62891831189E-01  0.51100000000E-03 0. -1.
         11    1    4    4    0    0  0.38645947455E-01  0.15530753326E-01  0.57561881587E-01  0.71051705724E-01  0.51100000000E-03 0.  1.
</event>
<event>
 8    1  0.1119901E+005  0.1043930E+01  0.7957747E-01            NaN
         13   -1    0    0    0    0  0.00000000000E+00  0.00000000000E+00  0.74505805969E-08  0.10566000000E+00  0.10566000000E+00 0. -1.
     999900   -1    0    0    0    0 -0.00000000000E+00 -0.00000000000E+00 -0.74505805969E-08  0.93827000000E+00  0.93827000000E+00 0. -1.
     999902    2    1    2    0    0  0.32359352834E-02  0.22816370611E-01 -0.29143761651E-02  0.10207017492E+01  0.10204374108E+01 0.  0.
     999903    2    3    3    0    0  0.36893568754E-01 -0.86485594130E-01  0.85811391512E-01  0.12887664439E+00  0.20117185407E-01 0.  0.
         14    1    1    2    0    0 -0.32359352834E-02 -0.22816370611E-01  0.29143761651E-02  0.23228250762E-01  0.00000000000E+00 0.  1.
     999901    1    3    3    0    0 -0.33657633470E-01  0.10930196474E+00 -0.88725767677E-01  0.89182510485E+00  0.88000000000E+00 0. -1.
        -11    1    4    4    0    0  0.31206518274E-01 -0.82158817932E-01  0.83799665728E-01  0.12143542829E+00  0.51100000000E-03 0.  1.
         11    1    4    4    0    0  0.56870504794E-02 -0.43267761978E-02  0.20117257837E-02  0.74412161002E-02  0.51100000000E-03 0. -1.
</event>
<event>
 8    1  0.1119901E+005  0.1043930E+01  0.7957747E-01            NaN
         13   -1    0    0    0    0  0.00000000000E+00  0.00000000000E+00  0.74505805969E-08  0.10566000000E+00  0.10566000000E+00 0.  1.
     999900   -1    0    0    0    0 -0.00000000000E+00 -0.00000000000E+00 -0.74505805969E-08  0.93827000000E+00  0.93827000000E+00 0.  1.
     999902    2    1    2    0    0  0.33030698792E-02 -0.23214865401E-01  0.11128259276E-01  0.10179746845E+01  0.10176437392E+01 0.  0.
     999903    2    3    3    0    0 -0.66891492297E-01 -0.59074853302E-02 -0.10615900926E+00  0.12725411931E+00  0.20359408387E-01 0.  0.
         14    1    1    2    0    0 -0.33030698792E-02  0.23214865401E-01 -0.11128259276E-01  0.25955315462E-01  0.00000000000E+00 0. -1.
     999901    1    3    3    0    0  0.70194562176E-01 -0.17307380070E-01  0.11728726853E+00  0.89072056523E+00  0.88000000000E+00 0. -1.
        -11    1    4    4    0    0 -0.20476727829E-01  0.59283833500E-02 -0.42869809756E-01  0.47880307238E-01  0.51100000000E-03 0. -1.
         11    1    4    4    0    0 -0.46414764468E-01 -0.11835868680E-01 -0.63289199501E-01  0.79373812070E-01  0.51100000000E-03 0.  1.
</event>
<event>
 8    1  0.1119901E+005  0.1043930E+01  0.7957747E-01            NaN
         13   -1    0    0    0    0  0.00000000000E+00  0.00000000000E+00  0.74505805969E-08  0.10566000000E+00  0.10566000000E+00 0. -1.
     999900   -1    0    0    0    0 -0.00000000000E+00 -0.00000000000E+00 -0.74505805969E-08  0.93827000000E+00  0.93827000000E+00 0. -1.
     999902    2    1    2    0    0  0.43611569748E-02 -0.26003316954E-01 -0.73675959422E-03  0.10175532110E+01  0.10172112869E+01 0.  0.
     999903    2    3    3    0    0 -0.18160447157E-02 -0.78888184336E-01 -0.10130803943E+00  0.13022601693E+00  0.21653013373E-01 0.  0.
         14    1    1    2    0    0 -0.43611569748E-02  0.26003316954E-01  0.73675959422E-03  0.26376788991E-01  0.00000000000E+00 0.  1.
     999901    1    3    3    0    0  0.61772016904E-02  0.52884867382E-01  0.10057127983E+00  0.88732719408E+00  0.88000000000E+00 0.  1.
        -11    1    4    4    0    0 -0.75759756124E-02 -0.72992505006E-01 -0.88258099564E-01  0.11478264003E+00  0.51100000000E-03 0. -1.
         11    1    4    4    0    0  0.57599308967E-02 -0.58956793293E-02 -0.13049939861E-01  0.15443376900E-01  0.51100000000E-03 0.  1.
</event>
<event>
 8    1  0.1119901E+005  0.1043930E+01  0.7957747E-01            NaN
         13   -1    0    0    0    0  0.00000000000E+00  0.00000000000E+00  0.74505805969E-08  0.10566000000E+00  0.10566000000E+00 0. -1.
     999900   -1    0    0    0    0 -0.00000000000E+00 -0.00000000000E+00 -0.74505805969E-08  0.93827000000E+00  0.93827000000E+00 0. -1.
     999902    2    1    2    0    0 -0.63558850649E-02  0.13822731966E-01  0.18054916392E-01  0.10203197226E+01  0.10200465142E+01 0.  0.
     999903    2    3    3    0    0 -0.35139742984E-01 -0.59355825417E-01  0.11079083382E+00  0.13195968176E+00  0.19514948214E-01 0.  0.
         14    1    1    2    0    0  0.63558850649E-02 -0.13822731966E-01 -0.18054916392E-01  0.23610277421E-01  0.00000000000E+00 0.  1.
     999901    1    3    3    0    0  0.28783857919E-01  0.73178557383E-01 -0.92735917431E-01  0.88836004082E+00  0.88000000000E+00 0. -1.
        -11    1    4    4    0    0 -0.24197017737E-01 -0.44536965259E-01  0.63800423996E-01  0.81484919862E-01  0.51100000000E-03 0. -1.
         11    1    4    4    0    0 -0.10942725246E-01 -0.14818860158E-01  0.46990409827E-01  0.50474761900E-01  0.51100000000E-03 0.  1.
</event>
<event>
 8    1  0.1119901E+005  0.1043930E+01  0.7957747E-01            NaN
         13   -1    0    0    0    0  0.00000000000E+00  0.00000000000E+00  0.74505805969E-08  0.10566000000E+00  0.10566000000E+00 0. -1.
     999900   -1    0    0    0    0 -0.00000000000E+00 -0.00000000000E+00 -0.74505805969E-08  0.93827000000E+00  0.93827000000E+00 0. -1.
     999902    2    1    2    0    0 -0.19463840067E-01 -0.70759824109E-02 -0.11409476663E-01  0.10202849846E+01  0.10200109622E+01 0.  0.
     999903    2    3    3    0    0  0.62498989716E-01  0.80597900216E-01  0.74775175903E-01  0.12796642626E+00  0.19543133908E-01 0.  0.
         14    1    1    2    0    0  0.19463840067E-01  0.70759824109E-02  0.11409476663E-01  0.23645015436E-01  0.00000000000E+00 0. -1.
     999901    1    3    3    0    0 -0.81962829783E-01 -0.87673882627E-01 -0.86184652566E-01  0.89231855831E+00  0.88000000000E+00 0. -1.
        -11    1    4    4    0    0  0.22835012411E-01  0.41891941673E-01  0.27183176740E-01  0.54914103722E-01  0.51100000000E-03 0.  1.
         11    1    4    4    0    0  0.39663977305E-01  0.38705958543E-01  0.47591999163E-01  0.73052322535E-01  0.51100000000E-03 0. -1.
</event>
<event>
 8    1  0.1119901E+005  0.1043930E+01  0.7957747E-01            NaN
         13   -1    0    0    0    0  0.00000000000E+00  0.00000000000E+00  0.74505805969E-08  0.10566000000E+00  0.10566000000E+00 0.  1.
     999900   -1    0    0    0    0 -0.00000000000E+00 -0.00000000000E+00 -0.74505805969E-08  0.93827000000E+00  0.93827000000E+00 0. -1.
     999902    2    1    2    0    0 -0.13275722806E-01 -0.31956636966E-02  0.19996212210E-01  0.10197162521E+01  0.10194287269E+01 0.  0.
     999903    2    3    3    0    0 -0.87225380924E-01 -0.86094587684E-01 -0.40644804105E-01  0.13066163268E+00  0.19997926084E-01 0.  0.
         14    1    1    2    0    0  0.13275722806E-01  0.31956636966E-02 -0.19996212210E-01  0.24213747856E-01  0.00000000000E+00 0. -1.
     999901    1    3    3    0    0  0.73949658117E-01  0.82898923987E-01  0.60641016315E-01  0.88905461947E+00  0.88000000000E+00 0.  1.
        -11    1    4    4    0    0 -0.12318441409E-01 -0.83838141644E-02  0.10627802205E-02  0.14947339612E-01  0.51100000000E-03 0.  1.
         11    1    4    4    0    0 -0.74906939514E-01 -0.77710773519E-01 -0.41707584326E-01  0.11571429307E+00  0.51100000000E-03 0. -1.
</event>
<event>
 8    1  0.1119901E+005  0.1043930E+01  0.7957747E-01            NaN
         13   -1    0    0    0    0  0.00000000000E+00  0.00000000000E+00  0.74505805969E-08  0.10566000000E+00  0.10566000000E+00 0. -1.
     999900   -1    0    0    0    0 -0.00000000000E+00 -0.00000000000E+00 -0.74505805969E-08  0.93827000000E+00  0.93827000000E+00 0. -1.
     999902    2    1    2    0    0  0.14574507747E-01  0.15815989884E-01  0.25853931254E-02  0.10222679117E+01  0.10220383736E+01 0.  0.
     999903    2    3    3    0    0  0.68406417715E-01 -0.10959146611E+00 -0.16496500110E-01  0.13154403574E+00  0.18492468582E-01 0.  0.
         14    1    1    2    0    0 -0.14574507747E-01 -0.15815989884E-01 -0.25853931254E-02  0.21662088304E-01  0.00000000000E+00 0. -1.
     999901    1    3    3    0    0 -0.53831909968E-01  0.12540745599E+00  0.19081893236E-01  0.89072387596E+00  0.88000000000E+00 0. -1.
        -11    1    4    4    0    0  0.16181230196E-01 -0.41435796012E-01 -0.86619875287E-02  0.45321612402E-01  0.51100000000E-03 0. -1.
         11    1    4    4    0    0  0.52225187519E-01 -0.68155670097E-01 -0.78345125814E-02  0.86222423337E-01  0.51100000000E-03 0.  1.
</event>
<event>
 8    1  0.1119901E+005  0.1043930E+01  0.7957747E-01            NaN
         13   -1    0    0    0    0  0.00000000000E+00  0.00000000000E+00  0.74505805969E-08  0.10566000000E+00  0.10566000000E+00 0. -1.
     999900   -1    0    0    0    0 -0.00000000000E+00 -0.00000000000E+00 -0.74505805969E-08  0.93827000000E+00  0.93827000000E+00 0. -1.
     999902    2    1    2    0    0  0.12096402194E-01  0.13390057317E-01  0.15885285080E-01  0.10198892250E+01  0.10196058417E+01 0.  0.
     999903    2    3    3    0    0  0.85231756647E-01  0.69079736044E-01  0.73451791260E-01  0.13323031480E+00  0.17851858984E-01 0.  0.
         14    1    1    2    0    0 -0.12096402194E-01 -0.13390057317E-01 -0.15885285080E-01  0.24040775010E-01  0.00000000000E+00 0.  1.
     999901    1    3    3    0    0 -0.73135354452E-01 -0.55689678726E-01 -0.57566506180E-01  0.88665891019E+00  0.88000000000E+00 0. -1.
        -11    1    4    4    0    0  0.38455574817E-01  0.26752961928E-01  0.21686777657E-01  0.51624893730E-01  0.51100000000E-03 0. -1.
         11    1    4    4    0    0  0.46776181830E-01  0.42326774116E-01  0.51765013603E-01  0.81605421069E-01  0.51100000000E-03 0.  1.
</event>
<event>
 8    1  0.1119901E+005  0.1043930E+01  0.7957747E-01            NaN
         13   -1    0    0    0    0  0.00000000000E+00  0.00000000000E+00  0.74505805969E-08  0.10566000000E+00  0.10566000000E+00 0. -1.
     999900   -1    0    0    0    0 -0.00000000000E+00 -0.00000000000E+00 -0.74505805969E-08  0.93827000000E+00  0.93827000000E+00 0.  1.
     999902    2    1    2    0    0  0.26474620161E-01 -0.11052079457E-01  0.78444839527E-03  0.10152303601E+01  0.10148246226E+01 0.  0.
     999903    2    3    3    0    0  0.83017815139E-01 -0.92049529361E-01  0.30001389462E-01  0.12922169790E+00  0.20810822968E-01 0.  0.
         14    1    1    2    0    0 -0.26474620161E-01  0.11052079457E-01 -0.78444839527E-03  0.28699639933E-01  0.00000000000E+00 0. -1.
     999901    1    3    3    0    0 -0.56543194978E-01  0.80997449903E-01 -0.29216941067E-01  0.88600866217E+00  0.88000000000E+00 0.  1.
        -11    1    4    4    0    0  0.55331097062E-01 -0.48528892581E-01  0.23330919426E-01  0.77208656506E-01  0.51100000000E-03 0. -1.
         11    1    4    4    0    0  0.27686718078E-01 -0.43520636779E-01  0.66704700359E-02  0.52013041394E-01  0.51100000000E-03 0.  1.
</event>
<event>
 8    1  0.1119901E+005  0.1043930E+01  0.7957747E-01            NaN
         13   -1    0    0    0    0  0.00000000000E+00  0.00000000000E+00  0.74505805969E-08  0.10566000000E+00  0.10566000000E+00 0.  1.
     999900   -1    0    0    0    0 -0.00000000000E+00 -0.00000000000E+00 -0.74505805969E-08  0.93827000000E+00  0.93827000000E+00 0. -1.
     999902    2    1    2    0    0 -0.10435151799E-01  0.17493466484E-01 -0.12541484685E-01  0.10200092433E+01  0.10197287158E+01 0.  0.
     999903    2    3    3    0    0  0.57294114008E-01  0.29647931662E-01 -0.11302193373E+00  0.13162233148E+00  0.19719667522E-01 0.  0.
         14    1    1    2    0    0  0.10435151799E-01 -0.17493466484E-01  0.12541484685E-01  0.23920756693E-01  0.00000000000E+00 0.  1.
     999901    1    3    3    0    0 -0.67729265807E-01 -0.12154465178E-01  0.10048044905E+00  0.88838691183E+00  0.88000000000E+00 0.  1.
        -11    1    4    4    0    0  0.19414047528E-01  0.13964166604E-01 -0.60030257285E-01  0.64620400038E-01  0.51100000000E-03 0.  1.
         11    1    4    4    0    0  0.37880066480E-01  0.15683765058E-01 -0.52991676446E-01  0.67001931439E-01  0.51100000000E-03 0. -1.
</event>
<event>
 8    1  0.1119901E+005  0.1043930E+01  0.7957747E-01            NaN
         13   -1    0    0    0    0  0.00000000000E+00  0.00000000000E+00  0.74505805969E-08  0.10566000000E+00  0.10566000000E+00 0. -1.
     999900   -1    0    0    0    0 -0.00000000000E+00 -0.00000000000E+00 -0.74505805969E-08  0.93827000000E+00  0.93827000000E+00 0.  1.
     999902    2    1    2    0    0 -0.10939381130E-01  0.20190014438E-01  0.10615102077E-01  0.10186320330E+01  0.10183178440E+01 0.  0.
     999903    2    3    3    0    0 -0.20654708163E-01 -0.11757181969E+00 -0.37077110795E-01  0.12658536511E+00  0.19984813204E-01 0.  0.
         14    1    1    2    0    0  0.10939381130E-01 -0.20190014438E-01 -0.10615102077E-01  0.25297967006E-01  0.00000000000E+00 0.  1.
     999901    1    3    3    0    0  0.97153270334E-02  0.13776183413E+00  0.47692212872E-01  0.89204666789E+00  0.88000000000E+00 0.  1.
        -11    1    4    4    0    0 -0.17273041297E-01 -0.46674935189E-01 -0.19557622027E-01  0.53475875223E-01  0.51100000000E-03 0.  1.
         11    1    4    4    0    0 -0.33816668658E-02 -0.70896884504E-01 -0.17519488768E-01  0.73109489882E-01  0.51100000000E-03 0. -1.
</event>
<event>
 8    1  0.1119901E+005  0.1043930E+01  0.7957747E-01            NaN
         13   -1    0    0    0    0  0.00000000000E+00  0.00000000000E+00  0.74505805969E-08  0.10566000000E+00  0.10566000000E+00 0. -1.
     999900   -1    0    0    0    0 -0.00000000000E+00 -0.00000000000E+00 -0.74505805969E-08  0.93827000000E+00  0.93827000000E+00 0. -1.
     999902    2    1    2    0    0  0.16887805240E-01 -0.60058154032E-02  0.25493833193E-01  0.10127658649E+01  0.10122862707E+01 0.  0.
     999903    2    3    3    0    0 -0.24911857274E-01 -0.11593095808E+00  0.33785326481E-01  0.12490354584E+00  0.19971474763E-01 0.  0.
         14    1    1    2    0    0 -0.16887805240E-01  0.60058154032E-02 -0.25493833193E-01  0.31164135081E-01  0.00000000000E+00 0.  1.
     999901    1    3    3    0    0  0.41799662513E-01  0.10992514268E+00 -0.82914932886E-02  0.88786231908E+00  0.88000000000E+00 0.  1.
        -11    1    4    4    0    0 -0.23632602653E-02 -0.36664666847E-01  0.27723834235E-02  0.36848745228E-01  0.51100000000E-03 0. -1.
         11    1    4    4    0    0 -0.22548597008E-01 -0.79266291232E-01  0.31012943058E-01  0.88054800612E-01  0.51100000000E-03 0.  1.
</event>
<event>
 7    1  0.1119901E+005  0.1043930E+01  0.7957747E-01            NaN
         13   -1    0    0    0    0  0.00000000000E+00  0.00000000000E+00  0.74505805969E-08  0.10566000000E+00  0.10566000000E+00 0.  1.
     999900   -1    0    0    0    0 -0.00000000000E+00 -0.00000000000E+00 -0.74505805969E-08  0.93827000000E+00  0.93827000000E+00 0.  1.
     999903    2    1    2    0    0 -0.20848931737E-01 -0.58891794967E-01 -0.13134350761E-01  0.66846397243E-01  0.19824434051E-01 0.  0.
         14    1    1    2    0    0  0.18229935179E-01 -0.83497760402E-01 -0.24161860776E-02  0.85498798143E-01  0.00000000000E+00 0.  1.
     999901    1    1    2    0    0  0.26189965580E-02  0.14238955537E+00  0.15550536838E-01  0.89158480461E+00  0.88000000000E+00 0.  1.
        -11    1    3    3    0    0 -0.14794830247E-01 -0.43211403580E-01 -0.27640007635E-03  0.45677674190E-01  0.51100000000E-03 0.  1.
         11    1    3    3    0    0 -0.60541014901E-02 -0.15680391388E-01 -0.12857950684E-01  0.21168723054E-01  0.51100000000E-03 0. -1.
</event>
<event>
 8    1  0.1119901E+005  0.1043930E+01  0.7957747E-01            NaN
         13   -1    0    0    0    0  0.00000000000E+00  0.00000000000E+00  0.74505805969E-08  0.10566000000E+00  0.10566000000E+00 0.  1.
     999900   -1    0    0    0    0 -0.00000000000E+00 -0.00000000000E+00 -0.74505805969E-08  0.93827000000E+00  0.93827000000E+00 0.  1.
     999902    2    1    2    0    0 -0.15117767452E-01  0.87714584215E-02  0.15924147985E-01  0.10202854686E+01  0.10200114576E+01 0.  0.
     999903    2    3    3    0    0  0.12898019368E-02 -0.34505112918E-01 -0.12195451268E+00  0.12834791753E+00  0.20199464495E-01 0.  0.
         14    1    1    2    0    0  0.15117767452E-01 -0.87714584215E-02 -0.15924147985E-01  0.23644531389E-01  0.00000000000E+00 0. -1.
     999901    1    3    3    0    0 -0.16407569388E-01  0.43276571340E-01  0.13787866066E+00  0.89193755108E+00  0.88000000000E+00 0. -1.
        -11    1    4    4    0    0 -0.22549437507E-02 -0.53492764935E-02 -0.47495522261E-02  0.75179051385E-02  0.51100000000E-03 0. -1.
         11    1    4    4    0    0  0.35447456875E-02 -0.29155836425E-01 -0.11720496045E+00  0.12083001239E+00  0.51100000000E-03 0.  1.
</event>
<event>
 8    1  0.1119901E+005  0.1043930E+01  0.7957747E-01            NaN
         13   -1    0    0    0    0  0.00000000000E+00  0.00000000000E+00  0.74505805969E-08  0.10566000000E+00  0.10566000000E+00 0.  1.
     999900   -1    0    0    0    0 -0.00000000000E+00 -0.00000000000E+00 -0.74505805969E-08  0.93827000000E+00  0.93827000000E+00 0.  1.
     999902    2    1    2    0    0  0.16183035384E-01  0.73678638792E-02  0.16342059060E-01  0.10197796595E+01  0.10194936562E+01 0.  0.
     999903    2    3    3    0    0  0.48230975856E-01 -0.56700581983E-01  0.10726851950E+00  0.13219898290E+00  0.20708760837E-01 0.  0.
         14    1    1    2    0    0 -0.16183035384E-01 -0.73678638792E-02 -0.16342059060E-01  0.24150340509E-01  0.00000000000E+00 0. -1.
     999901    1    3    3    0    0 -0.32047940471E-01  0.64068445863E-01 -0.90926460441E-01  0.88758067659E+00  0.88000000000E+00 0.  1.
        -11    1    4    4    0    0  0.11248733358E-01 -0.27884353260E-01  0.36257986500E-01  0.47105985447E-01  0.51100000000E-03 0. -1.
         11    1    4    4    0    0  0.36982242497E-01 -0.28816228724E-01  0.71010533001E-01  0.85092997456E-01  0.51100000000E-03 0.  1.
</event>
<event>
 8    1  0.1278875E+005  0.1043930E+01  0.7957747E-01            NaN
         13   -1    0    0    0    0  0.00000000000E+00  0.00000000000E+00  0.74505805969E-08  0.10566000000E+00  0.10566000000E+00 0. -1.
     999900   -1    0    0    0    0 -0.00000000000E+00 -0.00000000000E+00 -0.74505805969E-08  0.93827000000E+00  0.93827000000E+00 0. -1.
     999902    2    1    2    0    0 -0.20431191174E-01 -0.16803622328E-02 -0.12271278845E-01  0.10200377110E+01  0.10197578587E+01 0.  0.
     999903    2    3    3    0    0 -0.42587328638E-01  0.64760896243E-01  0.10332207855E+00  0.12971913905E+00  0.11997869677E-01 0.  0.
         14    1    1    2    0    0  0.20431191174E-01  0.16803622328E-02  0.12271278845E-01  0.23892289018E-01  0.00000000000E+00 0. -1.
     999901    1    3    3    0    0  0.22156137464E-01 -0.66441258476E-01 -0.11559335740E+00  0.89031857193E+00  0.88000000000E+00 0. -1.
        -11    1    4    4    0    0 -0.25429673568E-01  0.27902109563E-01  0.48392352811E-01  0.61378147149E-01  0.51100000000E-03 0. -1.
         11    1    4    4    0    0 -0.17157655070E-01  0.36858786680E-01  0.54929725739E-01  0.68340991900E-01  0.51100000000E-03 0.  1.
</event>
<event>
 8    1  0.1119901E+005  0.1043930E+01  0.7957747E-01            NaN
         13   -1    0    0    0    0  0.00000000000E+00  0.00000000000E+00  0.74505805969E-08  0.10566000000E+00  0.10566000000E+00 0. -1.
     999900   -1    0    0    0    0 -0.00000000000E+00 -0.00000000000E+00 -0.74505805969E-08  0.93827000000E+00  0.93827000000E+00 0. -1.
     999902    2    1    2    0    0  0.14129583948E-01 -0.66026253612E-02 -0.22019545443E-01  0.10169466684E+01  0.10165886219E+01 0.  0.
     999903    2    3    3    0    0 -0.24637429648E-02 -0.12685202617E+00  0.36278780554E-02  0.12824365430E+00  0.18323940499E-01 0.  0.
         14    1    1    2    0    0 -0.14129583948E-01  0.66026253612E-02  0.22019545443E-01  0.26983331628E-01  0.00000000000E+00 0. -1.
     999901    1    3    3    0    0  0.16593326913E-01  0.12024940081E+00 -0.25647423499E-01  0.88870301407E+00  0.88000000000E+00 0.  1.
        -11    1    4    4    0    0 -0.97098490177E-02 -0.48681536621E-01  0.30044402513E-02  0.49733901496E-01  0.51100000000E-03 0.  1.
         11    1    4    4    0    0  0.72461060528E-02 -0.78170489550E-01  0.62343780413E-03  0.78509752802E-01  0.51100000000E-03 0. -1.
</event>
<event>
 8    1  0.1119901E+005  0.1043930E+01  0.7957747E-01            NaN
         13   -1    0    0    0    0  0.00000000000E+00  0.00000000000E+00  0.74505805969E-08  0.10566000000E+00  0.10566000000E+00 0. -1.
     999900   -1    0    0    0    0 -0.00000000000E+00 -0.00000000000E+00 -0.74505805969E-08  0.93827000000E+00  0.93827000000E+00 0. -1.
     999902    2    1    2    0    0  0.19286021595E-01  0.83965954440E-02 -0.11497776347E-01  0.10199580934E+01  0.10196763506E+01 0.  0.
     999903    2    3    3    0    0 -0.69425288024E-01 -0.10571665606E+00 -0.37404097758E-02  0.12813316253E+00  0.20204818459E-01 0.  0.
         14    1    1    2    0    0 -0.19286021595E-01 -0.83965954440E-02  0.11497776347E-01  0.23971906577E-01  0.00000000000E+00 0. -1.
     999901    1    3    3    0    0  0.88711309620E-01  0.11411325150E+00 -0.77573665715E-02  0.89182493089E+00  0.88000000000E+00 0.  1.
        -11    1    4    4    0    0 -0.13796944239E-01 -0.35376667433E-01  0.36438628284E-02  0.38149746085E-01  0.51100000000E-03 0.  1.
         11    1    4    4    0    0 -0.55628343786E-01 -0.70339988628E-01 -0.73842726043E-02  0.89983416446E-01  0.51100000000E-03 0. -1.
</event>
<event>
 8    1  0.1119901E+005  0.1043930E+01  0.7957747E-01            NaN
         13   -1    0    0    0    0  0.00000000000E+00  0.00000000000E+00  0.74505805969E-08  0.10566000000E+00  0.10566000000E+00 0. -1.
     999900   -1    0    0    0    0 -0.00000000000E+00 -0.00000000000E+00 -0.74505805969E-08  0.93827000000E+00  0.93827000000E+00 0.  1.
     999902    2    1    2    0    0  0.13319146586E-01 -0.15377388432E-01 -0.13011719731E-01  0.10197811162E+01  0.10194951477E+01 0.  0.
     999903    2    3    3    0    0  0.46731164262E-01  0.78391894289E-01  0.88069674385E-01  0.12841896217E+00  0.20151215747E-01 0.  0.
         14    1    1    2    0    0 -0.13319146586E-01  0.15377388432E-01  0.13011719731E-01  0.24148883849E-01  0.00000000000E+00 0. -1.
     999901    1    3    3    0    0 -0.33412017675E-01 -0.93769282721E-01 -0.10108139412E+00  0.89136215398E+00  0.88000000000E+00 0.  1.
        -11    1    4    4    0    0  0.45702044227E-01  0.62228374241E-01  0.71199474648E-01  0.10502701423E+00  0.51100000000E-03 0.  1.
         11    1    4    4    0    0  0.10291200349E-02  0.16163520047E-01  0.16870199737E-01  0.23391947942E-01  0.51100000000E-03 0. -1.
</event>
<event>
 8    1  0.1119901E+005  0.1043930E+01  0.7957747E-01            NaN
         13   -1    0    0    0    0  0.00000000000E+00  0.00000000000E+00  0.74505805969E-08  0.10566000000E+00  0.10566000000E+00 0. -1.
     999900   -1    0    0    0    0 -0.00000000000E+00 -0.00000000000E+00 -0.74505805969E-08  0.93827000000E+00  0.93827000000E+00 0.  1.
     999902    2    1    2    0    0  0.11584355977E-01  0.49272727247E-02  0.20769853539E-01  0.10196429224E+01  0.10193536320E+01 0.  0.
     999903    2    3    3    0    0  0.99928050012E-01  0.78103128784E-01 -0.25396578730E-01  0.13099751867E+00  0.20727995126E-01 0.  0.
         14    1    1    2    0    0 -0.11584355977E-01 -0.49272727247E-02 -0.20769853539E-01  0.24287077551E-01  0.00000000000E+00 0.  1.
     999901    1    3    3    0    0 -0.88343694035E-01 -0.73175856059E-01  0.46166432269E-01  0.88864540378E+00  0.88000000000E+00 0.  1.
        -11    1    4    4    0    0  0.62063153624E-01  0.36003969145E-01 -0.11208248250E-01  0.72622357314E-01  0.51100000000E-03 0.  1.
         11    1    4    4    0    0  0.37864896388E-01  0.42099159639E-01 -0.14188330480E-01  0.58375161358E-01  0.51100000000E-03 0. -1.
</event>
<event>
 8    1  0.1119901E+005  0.1043930E+01  0.7957747E-01            NaN
         13   -1    0    0    0    0  0.00000000000E+00  0.00000000000E+00  0.74505805969E-08  0.10566000000E+00  0.10566000000E+00 0. -1.
     999900   -1    0    0    0    0 -0.00000000000E+00 -0.00000000000E+00 -0.74505805969E-08  0.93827000000E+00  0.93827000000E+00 0.  1.
     999902    2    1    2    0    0  0.21479768442E-01  0.94535262171E-02  0.41822297281E-02  0.10200922011E+01  0.10198136389E+01 0.  0.
     999903    2    3    3    0    0  0.10119193941E+00 -0.80165193235E-01 -0.16528592866E-01  0.13171475698E+00  0.20231559896E-01 0.  0.
         14    1    1    2    0    0 -0.21479768442E-01 -0.94535262171E-02 -0.41822297281E-02  0.23837798887E-01  0.00000000000E+00 0.  1.
     999901    1    3    3    0    0 -0.79712170966E-01  0.89618719452E-01  0.20710822594E-01  0.88837744414E+00  0.88000000000E+00 0.  1.
        -11    1    4    4    0    0  0.57167591758E-01 -0.42362792896E-01  0.77948318603E-03  0.71159036562E-01  0.51100000000E-03 0.  1.
         11    1    4    4    0    0  0.44024347651E-01 -0.37802400339E-01 -0.17308076052E-01  0.60555720416E-01  0.51100000000E-03 0. -1.
</event>
<event>
 8    1  0.1119901E+005  0.1043930E+01  0.7957747E-01            NaN
         13   -1    0    0    0    0  0.00000000000E+00  0.00000000000E+00  0.74505805969E-08  0.10566000000E+00  0.10566000000E+00 0.  1.
     999900   -1    0    0    0    0 -0.00000000000E+00 -0.00000000000E+00 -0.74505805969E-08  0.93827000000E+00  0.93827000000E+00 0.  1.
     999902    2    1    2    0    0 -0.20170421540E-01  0.84731424853E-02 -0.10542243218E-01  0.10196446353E+01  0.10193553861E+01 0.  0.
     999903    2    3    3    0    0 -0.53868202978E-01 -0.23334720972E-01  0.11399413135E+00  0.12966902366E+00  0.19315828158E-01 0.  0.
         14    1    1    2    0    0  0.20170421540E-01 -0.84731424853E-02  0.10542243218E-01  0.24285364744E-01  0.00000000000E+00 0.  1.
     999901    1    3    3    0    0  0.33697781438E-01  0.31807863458E-01 -0.12453637457E+00  0.88997561160E+00  0.88000000000E+00 0.  1.
        -11    1    4    4    0    0 -0.32659280546E-01 -0.13171354184E-01  0.87028505642E-01  0.93884690403E-01  0.51100000000E-03 0. -1.
         11    1    4    4    0    0 -0.21208922433E-01 -0.10163366788E-01  0.26965625713E-01  0.35784333252E-01  0.51100000000E-03 0.  1.
</event>
<event>
 8    1  0.1119901E+005  0.1043930E+01  0.7957747E-01            NaN
         13   -1    0    0    0    0  0.00000000000E+00  0.00000000000E+00  0.74505805969E-08  0.10566000000E+00  0.10566000000E+00 0. -1.
     999900   -1    0    0    0    0 -0.00000000000E+00 -0.00000000000E+00 -0.74505805969E-08  0.93827000000E+00  0.93827000000E+00 0.  1.
     999902    2    1    2    0    0  0.14460706266E-01  0.17091724446E-01  0.57383367220E-02  0.10208179344E+01  0.10205562638E+01 0.  0.
     999903    2    3    3    0    0  0.23742654363E-01  0.11738033411E+00  0.55803595040E-01  0.13365927330E+00  0.20221366098E-01 0.  0.
         14    1    1    2    0    0 -0.14460706266E-01 -0.17091724446E-01 -0.57383367220E-02  0.23112065650E-01  0.00000000000E+00 0. -1.
     999901    1    3    3    0    0 -0.92819480970E-02 -0.10028860967E+00 -0.50065258318E-01  0.88715866105E+00  0.88000000000E+00 0. -1.
        -11    1    4    4    0    0  0.43788342518E-02  0.52873279002E-01  0.33325822916E-01  0.62654843515E-01  0.51100000000E-03 0. -1.
         11    1    4    4    0    0  0.19363820111E-01  0.64507055109E-01  0.22477772123E-01  0.71004429783E-01  0.51100000000E-03 0.  1.
</event>
<event>
 8    1  0.1119901E+005  0.1043930E+01  0.7957747E-01            NaN
         13   -1    0    0    0    0  0.00000000000E+00  0.00000000000E+00  0.74505805969E-08  0.10566000000E+00  0.10566000000E+00 0.  1.
     999900   -1    0    0    0    0 -0.00000000000E+00 -0.00000000000E+00 -0.74505805969E-08  0.93827000000E+00  0.93827000000E+00 0. -1.
     999902    2    1    2    0    0 -0.26545818701E-02  0.18581059935E-01 -0.12598213870E-01  0.10213243019E+01  0.10210740973E+01 0.  0.
     999903    2    3    3    0    0 -0.10522117837E+00 -0.49749611102E-01 -0.58185518855E-01  0.13156748699E+00  0.19440392164E-01 0.  0.
         14    1    1    2    0    0  0.26545818701E-02 -0.18581059935E-01  0.12598213870E-01  0.22605698086E-01  0.00000000000E+00 0.  1.
     999901    1    3    3    0    0  0.10256659650E+00  0.68330671038E-01  0.45587304985E-01  0.88975681492E+00  0.88000000000E+00 0. -1.
        -11    1    4    4    0    0 -0.23970340518E-01 -0.80958869801E-02 -0.46696848375E-02  0.25733007753E-01  0.51100000000E-03 0.  1.
         11    1    4    4    0    0 -0.81250837850E-01 -0.41653724122E-01 -0.53515834018E-01  0.10583447924E+00  0.51100000000E-03 0. -1.
</event>
<event>
 8    1  0.1119901E+005  0.1043930E+01  0.7957747E-01            NaN
         13   -1    0    0    0    0  0.00000000000E+00  0.00000000000E+00  0.74505805969E-08  0.10566000000E+00  0.10566000000E+00 0.  1.
     999900   -1    0    0    0    0 -0.00000000000E+00 -0.00000000000E+00 -0.74505805969E-08  0.93827000000E+00  0.93827000000E+00 0. -1.
     999902    2    1    2    0    0 -0.11643605535E-01 -0.18205017599E-01  0.60351900110E-02  0.10214929830E+01  0.10212465395E+01 0.  0.
     999903    2    3    3    0    0  0.69697050679E-01  0.10332041442E+00 -0.26294357644E-01  0.12883967251E+00  0.19377333653E-01 0.  0.
         14    1    1    2    0    0  0.11643605535E-01  0.18205017599E-01 -0.60351900110E-02  0.22437017050E-01  0.00000000000E+00 0. -1.
     999901    1    3    3    0    0 -0.81340656214E-01 -0.12152543202E+00  0.32329547655E-01  0.89265331044E+00  0.88000000000E+00 0. -1.
        -11    1    4    4    0    0  0.45881711702E-01  0.78435790064E-01 -0.25504551018E-01  0.94382455336E-01  0.51100000000E-03 0.  1.
         11    1    4    4    0    0  0.23815338977E-01  0.24884624360E-01 -0.78980662616E-03  0.34457217178E-01  0.51100000000E-03 0. -1.
</event>
<event>
 8    1  0.1119901E+005  0.1043930E+01  0.7957747E-01            NaN
         13   -1    0    0    0    0  0.00000000000E+00  0.00000000000E+00  0.74505805969E-08  0.10566000000E+00  0.10566000000E+00 0. -1.
     999900   -1    0    0    0    0 -0.00000000000E+00 -0.00000000000E+00 -0.74505805969E-08  0.93827000000E+00  0.93827000000E+00 0. -1.
     999902    2    1    2    0    0 -0.26316931179E-02 -0.15614187838E-01  0.16871538879E-01  0.10207917742E+01  0.10205295041E+01 0.  0.
     999903    2    3    3    0    0  0.41914088251E-01 -0.48027908610E-02  0.12464654842E+00  0.13303242298E+00  0.19519373385E-01 0.  0.
         14    1    1    2    0    0  0.26316931179E-02  0.15614187838E-01 -0.16871538879E-01  0.23138225832E-01  0.00000000000E+00 0.  1.
     999901    1    3    3    0    0 -0.44545781369E-01 -0.10811396977E-01 -0.10777500954E+00  0.88775935119E+00  0.88000000000E+00 0. -1.
        -11    1    4    4    0    0  0.99829642100E-03 -0.53897537199E-02  0.17022947238E-01  0.17891000379E-01  0.51100000000E-03 0.  1.
         11    1    4    4    0    0  0.40915791830E-01  0.58696285887E-03  0.10762360118E+00  0.11514142260E+00  0.51100000000E-03 0. -1.
</event>
<event>
 8    1  0.1119901E+005  0.1043930E+01  0.7957747E-01            NaN
         13   -1    0    0    0    0  0.00000000000E+00  0.00000000000E+00  0.74505805969E-08  0.10566000000E+00  0.10566000000E+00 0. -1.
     999900   -1    0    0    0    0 -0.00000000000E+00 -0.00000000000E+00 -0.74505805969E-08  0.93827000000E+00  0.93827000000E+00 0.  1.
     999902    2    1    2    0    0  0.15920579169E-01 -0.91382142502E-02 -0.15242798999E-01  0.10200696831E+01  0.10197905881E+01 0.  0.
     999903    2    3    3    0    0  0.11188753724E+00  0.62655452493E-01 -0.24063850960E-01  0.13190201956E+00  0.19353219943E-01 0.  0.
         14    1    1    2    0    0 -0.15920579169E-01  0.91382142502E-02  0.15242798999E-01  0.23860316890E-01  0.00000000000E+00 0. -1.
     999901    1    3    3    0    0 -0.95966958074E-01 -0.71793666744E-01  0.88210519609E-02  0.88816766355E+00  0.88000000000E+00 0. -1.
        -11    1    4    4    0    0  0.10158066681E+00  0.55838745050E-01 -0.15709719025E-01  0.11697715038E+00  0.51100000000E-03 0. -1.
         11    1    4    4    0    0  0.10306870436E-01  0.68167074432E-02 -0.83541319356E-02  0.14924869177E-01  0.51100000000E-03 0.  1.
</event>
<event>
 8    1  0.1119901E+005  0.1043930E+01  0.7957747E-01            NaN
         13   -1    0    0    0    0  0.00000000000E+00  0.00000000000E+00  0.74505805969E-08  0.10566000000E+00  0.10566000000E+00 0.  1.
     999900   -1    0    0    0    0 -0.00000000000E+00 -0.00000000000E+00 -0.74505805969E-08  0.93827000000E+00  0.93827000000E+00 0. -1.
     999902    2    1    2    0    0  0.53133991234E-02 -0.18457845850E-01  0.14197227206E-01  0.10200451608E+01  0.10197654851E+01 0.  0.
     999903    2    3    3    0    0 -0.73003100344E-01 -0.13431533042E-01 -0.10330661756E+00  0.12877309714E+00  0.20009861994E-01 0.  0.
         14    1    1    2    0    0 -0.53133991234E-02  0.18457845850E-01 -0.14197227206E-01  0.23884839208E-01  0.00000000000E+00 0. -1.
     999901    1    3    3    0    0  0.78316499467E-01 -0.50263128083E-02  0.11750384476E+00  0.89127206365E+00  0.88000000000E+00 0. -1.
        -11    1    4    4    0    0 -0.46080039522E-01 -0.16494620638E-02 -0.50861642783E-01  0.68653176147E-01  0.51100000000E-03 0.  1.
         11    1    4    4    0    0 -0.26923060822E-01 -0.11782070978E-01 -0.52444974772E-01  0.60119920995E-01  0.51100000000E-03 0. -1.
</event>
<event>
 8    1  0.1119901E+005  0.1043930E+01  0.7957747E-01            NaN
         13   -1    0    0    0    0  0.00000000000E+00  0.00000000000E+00  0.74505805969E-08  0.10566000000E+00  0.10566000000E+00 0.  1.
     999900   -1    0    0    0    0 -0.00000000000E+00 -0.00000000000E+00 -0.74505805969E-08  0.93827000000E+00  0.93827000000E+00 0.  1.
     999902    2    1    2    0    0 -0.14491624727E-01 -0.14359266899E-01  0.11626182108E-01  0.10204488620E+01  0.10201786687E+01 0.  0.
     999903    2    3    3    0    0 -0.55163006140E-01 -0.32690441950E-01  0.11479649501E+00  0.13329932174E+00  0.21882679670E-01 0.  0.
         14    1    1    2    0    0  0.14491624727E-01  0.14359266899E-01 -0.11626182108E-01  0.23481138037E-01  0.00000000000E+00 0. -1.
     999901    1    3    3    0    0  0.40671381413E-01  0.18331175050E-01 -0.10317031290E+00  0.88714954022E+00  0.88000000000E+00 0.  1.
        -11    1    4    4    0    0 -0.40102313545E-01 -0.32267498995E-01  0.77140974878E-01  0.92738223884E-01  0.51100000000E-03 0. -1.
         11    1    4    4    0    0 -0.15060692595E-01 -0.42294295512E-03  0.37655520133E-01  0.40561097861E-01  0.51100000000E-03 0.  1.
</event>
<event>
 8    1  0.1119901E+005  0.1043930E+01  0.7957747E-01            NaN
         13   -1    0    0    0    0  0.00000000000E+00  0.00000000000E+00  0.74505805969E-08  0.10566000000E+00  0.10566000000E+00 0. -1.
     999900   -1    0    0    0    0 -0.00000000000E+00 -0.00000000000E+00 -0.74505805969E-08  0.93827000000E+00  0.93827000000E+00 0.  1.
     999902    2    1    2    0    0 -0.75402142460E-02  0.61654316239E-02  0.23035217544E-01  0.10189202294E+01  0.10186132462E+01 0.  0.
     999903    2    3    3    0    0 -0.29663369811E-01  0.82997732404E-02  0.12735599587E+00  0.13247969884E+00  0.19558097484E-01 0.  0.
         14    1    1    2    0    0  0.75402142460E-02 -0.61654316239E-02 -0.23035217544E-01  0.25009770597E-01  0.00000000000E+00 0.  1.
     999901    1    3    3    0    0  0.22123155565E-01 -0.21343416165E-02 -0.10432077833E+00  0.88644053056E+00  0.88000000000E+00 0.  1.
        -11    1    4    4    0    0 -0.98303821791E-02  0.11126779274E-01  0.35873501125E-01  0.38827964598E-01  0.51100000000E-03 0.  1.
         11    1    4    4    0    0 -0.19832987632E-01 -0.28270060336E-02  0.91482494746E-01  0.93651734247E-01  0.51100000000E-03 0. -1.
</event>
<event>
 8    1  0.1119901E+005  0.1043930E+01  0.7957747E-01            NaN
         13   -1    0    0    0    0  0.00000000000E+00  0.00000000000E+00  0.74505805969E-08  0.10566000000E+00  0.10566000000E+00 0. -1.
     999900   -1    0    0    0    0 -0.00000000000E+00 -0.00000000000E+00 -0.74505805969E-08  0.93827000000E+00  0.93827000000E+00 0. -1.
     999902    2    1    2    0    0 -0.13875471666E-01  0.18367865481E-01  0.16746329204E-02  0.10208494543E+01  0.10205885051E+01 0.  0.
     999903    2    3    3    0    0  0.26187923800E-01 -0.54103343744E-01  0.11337931798E+00  0.12993133878E+00  0.20354456408E-01 0.  0.
         14    1    1    2    0    0  0.13875471666E-01 -0.18367865481E-01 -0.16746329204E-02  0.23080545741E-01  0.00000000000E+00 0. -1.
     999901    1    3    3    0    0 -0.40063395466E-01  0.72471209225E-01 -0.11170468506E+00  0.89091811548E+00  0.88000000000E+00 0. -1.
        -11    1    4    4    0    0  0.11002574809E-01 -0.28325006832E-01  0.36884131489E-01  0.47791871078E-01  0.51100000000E-03 0. -1.
         11    1    4    4    0    0  0.15185348991E-01 -0.25778336912E-01  0.76495186486E-01  0.82139467703E-01  0.51100000000E-03 0.  1.
</event>
<event>
 8    1  0.1119901E+005  0.1043930E+01  0.7957747E-01            NaN
         13   -1    0    0    0    0  0.00000000000E+00  0.00000000000E+00  0.74505805969E-08  0.10566000000E+00  0.10566000000E+00 0.  1.
     999900   -1    0    0    0    0 -0.00000000000E+00 -0.00000000000E+00 -0.74505805969E-08  0.93827000000E+00  0.93827000000E+00 0. -1.
     999902    2    1    2    0    0  0.62396069108E-02  0.12319327970E-01  0.18834500626E-01  0.10205754084E+01  0.10203081531E+01 0.  0.
     999903    2    3    3    0    0 -0.44372186015E-01 -0.73963110730E-01  0.97184752629E-01  0.13144944722E+00  0.19865759254E-01 0.  0.
         14    1    1    2    0    0 -0.62396069108E-02 -0.12319327970E-01 -0.18834500626E-01  0.23354591623E-01  0.00000000000E+00 0. -1.
     999901    1    3    3    0    0  0.50611792926E-01  0.86282438700E-01 -0.78350252003E-01  0.88912596116E+00  0.88000000000E+00 0. -1.
        -11    1    4    4    0    0 -0.31211785581E-01 -0.66213866842E-01  0.79174601370E-01  0.10783009944E+00  0.51100000000E-03 0.  1.
         11    1    4    4    0    0 -0.13160400435E-01 -0.77492438870E-02  0.18010151259E-01  0.23619347785E-01  0.51100000000E-03 0. -1.
</event>
<event>
 8    1  0.1119901E+005  0.1043930E+01  0.7957747E-01            NaN
         13   -1    0    0    0    0  0.00000000000E+00  0.00000000000E+00  0.74505805969E-08  0.10566000000E+00  0.10566000000E+00 0.  1.
     999900   -1    0    0    0    0 -0.00000000000E+00 -0.00000000000E+00 -0.74505805969E-08  0.93827000000E+00  0.93827000000E+00 0.  1.
     999902    2    1    2    0    0 -0.87399552539E-02 -0.14150132982E-01 -0.13348698570E-01  0.10226039400E+01  0.10223815419E+01 0.  0.
     999903    2    3    3    0    0  0.11736725595E+00  0.50723782810E-01  0.17044733681E-01  0.13073208016E+00  0.21269201317E-01 0.  0.
         14    1    1    2    0    0  0.87399552539E-02  0.14150132982E-01  0.13348698570E-01  0.21326059991E-01  0.00000000000E+00 0.  1.
     999901    1    3    3    0    0 -0.12610721120E+00 -0.64873915792E-01 -0.30393432250E-01  0.89187185985E+00  0.88000000000E+00 0. -1.
        -11    1    4    4    0    0  0.72838536433E-01  0.26196819251E-01  0.19524516021E-01  0.79832284042E-01  0.51100000000E-03 0. -1.
         11    1    4    4    0    0  0.44528719517E-01  0.24526963559E-01 -0.24797823407E-02  0.50899796117E-01  0.51100000000E-03 0.  1.
</event>
<event>
 8    1  0.1119901E+005  0.1043930E+01  0.7957747E-01            NaN
         13   -1    0    0    0    0  0.00000000000E+00  0.00000000000E+00  0.74505805969E-08  0.10566000000E+00  0.10566000000E+00 0.  1.
     999900   -1    0    0    0    0 -0.00000000000E+00 -0.00000000000E+00 -0.74505805969E-08  0.93827000000E+00  0.93827000000E+00 0. -1.
     999902    2    1    2    0    0 -0.68668565313E-03  0.21906903408E-01  0.14883728134E-01  0.10174364288E+01  0.10170914301E+01 0.  0.
     999903    2    3    3    0    0  0.40258099067E-01 -0.11706205638E+00  0.46273192322E-02  0.12553170228E+00  0.20311489650E-01 0.  0.
         14    1    1    2    0    0  0.68668565313E-03 -0.21906903408E-01 -0.14883728134E-01  0.26493571244E-01  0.00000000000E+00 0. -1.
     999901    1    3    3    0    0 -0.40944784720E-01  0.13896895978E+00  0.10256408902E-01  0.89190472647E+00  0.88000000000E+00 0.  1.
        -11    1    4    4    0    0  0.36543743862E-01 -0.84765830261E-01 -0.20866611897E-02  0.92332586183E-01  0.51100000000E-03 0.  1.
         11    1    4    4    0    0  0.37143552050E-02 -0.32296226114E-01  0.67139804218E-02  0.33199116101E-01  0.51100000000E-03 0. -1.
</event>
<event>
 8    1  0.1119901E+005  0.1043930E+01  0.7957747E-01            NaN
         13   -1    0    0    0    0  0.00000000000E+00  0.00000000000E+00  0.74505805969E-08  0.10566000000E+00  0.10566000000E+00 0. -1.
     999900   -1    0    0    0    0 -0.00000000000E+00 -0.00000000000E+00 -0.74505805969E-08  0.93827000000E+00  0.93827000000E+00 0. -1.
     999902    2    1    2    0    0  0.24956581285E-02 -0.14917891122E-01 -0.16170143297E-01  0.10217885159E+01  0.10215485920E+01 0.  0.
     999903    2    3    3    0    0 -0.10418222202E+00 -0.26332243302E-01 -0.76233028965E-01  0.13324025732E+00  0.19853690922E-01 0.  0.
         14    1    1    2    0    0 -0.24956581285E-02  0.14917891122E-01  0.16170143297E-01  0.22141484125E-01  0.00000000000E+00 0.  1.
     999901    1    3    3    0    0  0.10667788015E+00  0.11414352181E-01  0.60062885668E-01  0.88854825856E+00  0.88000000000E+00 0.  1.
        -11    1    4    4    0    0 -0.16038875783E-01 -0.36340840465E-02 -0.21347187050E-01  0.26952098604E-01  0.51100000000E-03 0.  1.
         11    1    4    4    0    0 -0.88143346236E-01 -0.22698159256E-01 -0.54885841915E-01  0.10628815871E+00  0.51100000000E-03 0. -1.
</event>
<event>
 8    1  0.1119901E+005  0.1043930E+01  0.7957747E-01            NaN
         13   -1    0    0    0    0  0.00000000000E+00  0.00000000000E+00  0.74505805969E-08  0.10566000000E+00  0.10566000000E+00 0.  1.
     999900   -1    0    0    0    0 -0.00000000000E+00 -0.00000000000E+00 -0.74505805969E-08  0.93827000000E+00  0.93827000000E+00 0. -1.
     999902    2    1    2    0    0  0.68676222416E-02 -0.11564050184E-02  0.22419118829E-01  0.10204540890E+01  0.10201840174E+01 0.  0.
     999903    2    3    3    0    0 -0.92408965723E-01  0.78989250246E-01  0.44735319284E-01  0.13097267842E+00  0.19335850153E-01 0.  0.
         14    1    1    2    0    0 -0.68676222416E-02  0.11564050184E-02 -0.22419118829E-01  0.23475910992E-01  0.00000000000E+00 0. -1.
     999901    1    3    3    0    0  0.99276587965E-01 -0.80145655264E-01 -0.22316200455E-01  0.88948141059E+00  0.88000000000E+00 0. -1.
        -11    1    4    4    0    0 -0.65832041046E-01  0.66290738199E-01  0.37236318057E-01  0.10057397329E+00  0.51100000000E-03 0. -1.
         11    1    4    4    0    0 -0.26576924677E-01  0.12698512047E-01  0.74990012270E-02  0.30398705135E-01  0.51100000000E-03 0.  1.
</event>
<event>
 8    1  0.1129297E+005  0.1043930E+01  0.7957747E-01            NaN
         13   -1    0    0    0    0  0.00000000000E+00  0.00000000000E+00  0.74505805969E-08  0.10566000000E+00  0.10566000000E+00 0. -1.
     999900   -1    0    0    0    0 -0.00000000000E+00 -0.00000000000E+00 -0.74505805969E-08  0.93827000000E+00  0.93827000000E+00 0.  1.
     999902    2    1    2    0    0 -0.16007279005E-01 -0.49382665358E-03  0.16997378902E-01  0.10205764620E+01  0.10203092311E+01 0.  0.
     999903    2    3    3    0    0 -0.29559785083E-01  0.41590032441E-01  0.12183533086E+00  0.13325142701E+00  0.17566538087E-01 0.  0.
         14    1    1    2    0    0  0.16007279005E-01  0.49382665358E-03 -0.16997378902E-01  0.23353537964E-01  0.00000000000E+00 0.  1.
     999901    1    3    3    0    0  0.13552506078E-01 -0.42083859095E-01 -0.10483795196E+00  0.88732503503E+00  0.88000000000E+00 0.  1.
        -11    1    4    4    0    0 -0.16717242131E-01  0.94982861686E-02  0.48573341515E-01  0.52242839237E-01  0.51100000000E-03 0.  1.
         11    1    4    4    0    0 -0.12842542951E-01  0.32091746273E-01  0.73261989348E-01  0.81008587770E-01  0.51100000000E-03 0. -1.
</event>
<event>
 8    1  0.1119901E+005  0.1043930E+01  0.7957747E-01            NaN
         13   -1    0    0    0    0  0.00000000000E+00  0.00000000000E+00  0.74505805969E-08  0.10566000000E+00  0.10566000000E+00 0. -1.
     999900   -1    0    0    0    0 -0.00000000000E+00 -0.00000000000E+00 -0.74505805969E-08  0.93827000000E+00  0.93827000000E+00 0. -1.
     999902    2    1    2    0    0  0.14355288664E-01  0.89117136277E-02 -0.16893058373E-01  0.10200371481E+01  0.10197572824E+01 0.  0.
     999903    2    3    3    0    0 -0.88990994812E-01  0.66024565483E-01 -0.66558388296E-01  0.13076273758E+00  0.19754343341E-01 0.  0.
         14    1    1    2    0    0 -0.14355288664E-01 -0.89117136277E-02  0.16893058373E-01  0.23892851935E-01  0.00000000000E+00 0. -1.
     999901    1    3    3    0    0  0.10334628348E+00 -0.57112851855E-01  0.49665329923E-01  0.88927441049E+00  0.88000000000E+00 0.  1.
        -11    1    4    4    0    0 -0.59610031423E-01  0.32418140799E-01 -0.42182498261E-01  0.79899411635E-01  0.51100000000E-03 0.  1.
         11    1    4    4    0    0 -0.29380963389E-01  0.33606424684E-01 -0.24375890035E-01  0.50863325940E-01  0.51100000000E-03 0. -1.
</event>
<event>
 8    1  0.1119901E+005  0.1043930E+01  0.7957747E-01            NaN
         13   -1    0    0    0    0  0.00000000000E+00  0.00000000000E+00  0.74505805969E-08  0.10566000000E+00  0.10566000000E+00 0. -1.
     999900   -1    0    0    0    0 -0.00000000000E+00 -0.00000000000E+00 -0.74505805969E-08  0.93827000000E+00  0.93827000000E+00 0.  1.
     999902    2    1    2    0    0  0.13368185159E-01 -0.18466094222E-01 -0.38878121661E-02  0.10208038223E+01  0.10205418284E+01 0.  0.
     999903    2    3    3    0    0  0.19865525110E-01  0.10504189693E+00 -0.70659437210E-01  0.12965013793E+00  0.19696776390E-01 0.  0.
         14    1    1    2    0    0 -0.13368185159E-01  0.18466094222E-01  0.38878121661E-02  0.23126177672E-01  0.00000000000E+00 0. -1.
     999901    1    3    3    0    0 -0.64973399512E-02 -0.12350799115E+00  0.66771625044E-01  0.89115368440E+00  0.88000000000E+00 0.  1.
        -11    1    4    4    0    0  0.71381979458E-02  0.95785461923E-02 -0.11687762665E-01  0.16720267169E-01  0.51100000000E-03 0.  1.
         11    1    4    4    0    0  0.12727327165E-01  0.95463350737E-01 -0.58971674545E-01  0.11292987076E+00  0.51100000000E-03 0. -1.
</event>
<event>
 8    1  0.1119901E+005  0.1043930E+01  0.7957747E-01            NaN
         13   -1    0    0    0    0  0.00000000000E+00  0.00000000000E+00  0.74505805969E-08  0.10566000000E+00  0.10566000000E+00 0. -1.
     999900   -1    0    0    0    0 -0.00000000000E+00 -0.00000000000E+00 -0.74505805969E-08  0.93827000000E+00  0.93827000000E+00 0.  1.
     999902    2    1    2    0    0 -0.31414333943E-02  0.20166858214E-01 -0.54813087202E-02  0.10227967201E+01  0.10225783663E+01 0.  0.
     999903    2    3    3    0    0 -0.82755910491E-01 -0.88994124352E-01 -0.46408908660E-01  0.13154498601E+00  0.19539745434E-01 0.  0.
         14    1    1    2    0    0  0.31414333943E-02 -0.20166858214E-01  0.54813087202E-02  0.21133279899E-01  0.00000000000E+00 0. -1.
     999901    1    3    3    0    0  0.79614477097E-01  0.10916098257E+00  0.40927599940E-01  0.89125173409E+00  0.88000000000E+00 0. -1.
        -11    1    4    4    0    0 -0.68361467479E-01 -0.70268006597E-01 -0.45020399438E-01  0.10787947197E+00  0.51100000000E-03 0.  1.
         11    1    4    4    0    0 -0.14394443012E-01 -0.18726117755E-01 -0.13885092214E-02  0.23665514038E-01  0.51100000000E-03 0. -1.
</event>
<event>
 8    1  0.1119901E+005  0.1043930E+01  0.7957747E-01            NaN
         13   -1    0    0    0    0  0.00000000000E+00  0.00000000000E+00  0.74505805969E-08  0.10566000000E+00  0.10566000000E+00 0. -1.
     999900   -1    0    0    0    0 -0.00000000000E+00 -0.00000000000E+00 -0.74505805969E-08  0.93827000000E+00  0.93827000000E+00 0.  1.
     999902    2    1    2    0    0 -0.13034642234E-01  0.14135561431E-01 -0.13852605365E-01  0.10202316737E+01  0.10199563997E+01 0.  0.
     999903    2    3    3    0    0  0.84041515896E-01 -0.53999362123E-01 -0.80502317659E-01  0.12977767013E+00  0.19563052213E-01 0.  0.
         14    1    1    2    0    0  0.13034642234E-01 -0.14135561431E-01  0.13852605365E-01  0.23698326324E-01  0.00000000000E+00 0. -1.
     999901    1    3    3    0    0 -0.97076158130E-01  0.68134923554E-01  0.66649712294E-01  0.89045400355E+00  0.88000000000E+00 0. -1.
        -11    1    4    4    0    0  0.36546876535E-01 -0.34876884990E-01 -0.37590022985E-01  0.62970963468E-01  0.51100000000E-03 0. -1.
         11    1    4    4    0    0  0.47494639361E-01 -0.19122477133E-01 -0.42912294674E-01  0.66806706661E-01  0.51100000000E-03 0.  1.
</event>
<event>
 8    1  0.1119901E+005  0.1043930E+01  0.7957747E-01            NaN
         13   -1    0    0    0    0  0.00000000000E+00  0.00000000000E+00  0.74505805969E-08  0.10566000000E+00  0.10566000000E+00 0.  1.
     999900   -1    0    0    0    0 -0.00000000000E+00 -0.00000000000E+00 -0.74505805969E-08  0.93827000000E+00  0.93827000000E+00 0.  1.
     999902    2    1    2    0    0  0.10362459002E-02  0.20553515810E-01 -0.11857617647E-01  0.10201787071E+01  0.10199021867E+01 0.  0.
     999903    2    3    3    0    0 -0.43300721574E-01  0.12184701490E+00 -0.24957548753E-01  0.13316250216E+00  0.19690739315E-01 0.  0.
         14    1    1    2    0    0 -0.10362459002E-02 -0.20553515810E-01  0.11857617647E-01  0.23751292891E-01  0.00000000000E+00 0. -1.
     999901    1    3    3    0    0  0.44336967474E-01 -0.10129349909E+00  0.13099931106E-01  0.88701620495E+00  0.88000000000E+00 0.  1.
        -11    1    4    4    0    0 -0.31016146859E-01  0.92186872255E-01 -0.10116049042E-01  0.97790676199E-01  0.51100000000E-03 0. -1.
         11    1    4    4    0    0 -0.12284574715E-01  0.29660142640E-01 -0.14841499711E-01  0.35371825964E-01  0.51100000000E-03 0.  1.
</event>
<event>
 8    1  0.1119901E+005  0.1043930E+01  0.7957747E-01            NaN
         13   -1    0    0    0    0  0.00000000000E+00  0.00000000000E+00  0.74505805969E-08  0.10566000000E+00  0.10566000000E+00 0. -1.
     999900   -1    0    0    0    0 -0.00000000000E+00 -0.00000000000E+00 -0.74505805969E-08  0.93827000000E+00  0.93827000000E+00 0. -1.
     999902    2    1    2    0    0  0.25012559755E-01  0.32912377504E-03 -0.31357463683E-02  0.10187194988E+01  0.10184075057E+01 0.  0.
     999903    2    3    3    0    0  0.24480375225E-01  0.91873706570E-01 -0.86543264097E-01  0.13004773264E+00  0.19560405807E-01 0.  0.
         14    1    1    2    0    0 -0.25012559755E-01 -0.32912377504E-03  0.31357463683E-02  0.25210501250E-01  0.00000000000E+00 0.  1.
     999901    1    3    3    0    0  0.53218453056E-03 -0.91544582795E-01  0.83407517729E-01  0.88867176611E+00  0.88000000000E+00 0.  1.
        -11    1    4    4    0    0  0.12501199826E-01  0.16679471954E-01 -0.16531562688E-01  0.26608992233E-01  0.51100000000E-03 0. -1.
         11    1    4    4    0    0  0.11979175399E-01  0.75194234616E-01 -0.70011701409E-01  0.10343874041E+00  0.51100000000E-03 0.  1.
</event>
<event>
 8    1  0.1119901E+005  0.1043930E+01  0.7957747E-01            NaN
         13   -1    0    0    0    0  0.00000000000E+00  0.00000000000E+00  0.74505805969E-08  0.10566000000E+00  0.10566000000E+00 0.  1.
     999900   -1    0    0    0    0 -0.00000000000E+00 -0.00000000000E+00 -0.74505805969E-08  0.93827000000E+00  0.93827000000E+00 0. -1.
     999902    2    1    2    0    0 -0.26309093765E-02 -0.12709041930E-01  0.20220359826E-01  0.10199028407E+01  0.10196197822E+01 0.  0.
     999903    2    3    3    0    0  0.89184643638E-01  0.17152194035E-01  0.93128215518E-01  0.13162510004E+00  0.20104825642E-01 0.  0.
         14    1    1    2    0    0  0.26309093765E-02  0.12709041930E-01 -0.20220359826E-01  0.24027159267E-01  0.00000000000E+00 0. -1.
     999901    1    3    3    0    0 -0.91815553014E-01 -0.29861235965E-01 -0.72907855691E-01  0.88827774069E+00  0.88000000000E+00 0. -1.
        -11    1    4    4    0    0  0.51092930596E-01  0.16348737963E-01  0.43566528381E-01  0.69109133304E-01  0.51100000000E-03 0. -1.
         11    1    4    4    0    0  0.38091713041E-01  0.80345607173E-03  0.49561687137E-01  0.62515966736E-01  0.51100000000E-03 0.  1.
</event>
<event>
 8    1  0.1119901E+005  0.1043930E+01  0.7957747E-01            NaN
         13   -1    0    0    0    0  0.00000000000E+00  0.00000000000E+00  0.74505805969E-08  0.10566000000E+00  0.10566000000E+00 0.  1.
     999900   -1    0    0    0    0 -0.00000000000E+00 -0.00000000000E+00 -0.74505805969E-08  0.93827000000E+00  0.93827000000E+00 0.  1.
     999902    2    1    2    0    0  0.21766799918E-01 -0.74382627916E-02 -0.88595407296E-02  0.10192801969E+01  0.10189820935E+01 0.  0.
     999903    2    3    3    0    0 -0.95031761264E-01  0.81894468440E-01 -0.37811149360E-02  0.12706495874E+00  0.19836010145E-01 0.  0.
         14    1    1    2    0    0 -0.21766799918E-01  0.74382627916E-02  0.88595407296E-02  0.24649803123E-01  0.00000000000E+00 0.  1.
     999901    1    3    3    0    0  0.11679856118E+00 -0.89332731231E-01 -0.50784257937E-02  0.89221523814E+00  0.88000000000E+00 0. -1.
        -11    1    4    4    0    0 -0.32496033926E-01  0.25412403638E-01  0.78543343350E-02  0.41996835220E-01  0.51100000000E-03 0. -1.
         11    1    4    4    0    0 -0.62535727337E-01  0.56482064801E-01 -0.11635449271E-01  0.85068123516E-01  0.51100000000E-03 0.  1.
</event>
<event>
 7    1  0.1119901E+005  0.1043930E+01  0.7957747E-01            NaN
         13   -1    0    0    0    0  0.00000000000E+00  0.00000000000E+00  0.74505805969E-08  0.10566000000E+00  0.10566000000E+00 0.  1.
     999900   -1    0    0    0    0 -0.00000000000E+00 -0.00000000000E+00 -0.74505805969E-08  0.93827000000E+00  0.93827000000E+00 0. -1.
     999903    2    1    2    0    0  0.30034868394E-01  0.44784065002E-01  0.30060590507E-03  0.57530503737E-01  0.20049007425E-01 0.  0.
         14    1    1    2    0    0  0.60930821994E-01 -0.80535958596E-01  0.12024958154E-03  0.10098821791E+00  0.00000000000E+00 0.  1.
     999901    1    1    2    0    0 -0.90965690388E-01  0.35751893593E-01 -0.42085548661E-03  0.88541127836E+00  0.88000000000E+00 0. -1.
        -11    1    3    3    0    0  0.17454753980E-01  0.29217994667E-01 -0.93586064576E-02  0.35301618726E-01  0.51100000000E-03 0.  1.
         11    1    3    3    0    0  0.12580114414E-01  0.15566070336E-01  0.96592123627E-02  0.22228885011E-01  0.51100000000E-03 0. -1.
</event>
<event>
 8    1  0.1119901E+005  0.1043930E+01  0.7957747E-01            NaN
         13   -1    0    0    0    0  0.00000000000E+00  0.00000000000E+00  0.74505805969E-08  0.10566000000E+00  0.10566000000E+00 0.  1.
     999900   -1    0    0    0    0 -0.00000000000E+00 -0.00000000000E+00 -0.74505805969E-08  0.93827000000E+00  0.93827000000E+00 0.  1.
     999902    2    1    2    0    0 -0.94967380794E-02 -0.13231629004E-01  0.15112133843E-01  0.10217119751E+01  0.10214703713E+01 0.  0.
     999903    2    3    3    0    0 -0.94715446270E-01  0.23278148185E-01  0.88852524560E-01  0.13377456895E+00  0.22090184060E-01 0.  0.
         14    1    1    2    0    0  0.94967380794E-02  0.13231629004E-01 -0.15112133843E-01  0.22218024879E-01  0.00000000000E+00 0. -1.
     999901    1    3    3    0    0  0.85218708191E-01 -0.36509777189E-01 -0.73740390717E-01  0.88793740617E+00  0.88000000000E+00 0.  1.
        -11    1    4    4    0    0 -0.84899235760E-01  0.23279333672E-01  0.69846012847E-01  0.11237675133E+00  0.51100000000E-03 0. -1.
         11    1    4    4    0    0 -0.98162105098E-02 -0.11854865422E-05  0.19006511713E-01  0.21397817615E-01  0.51100000000E-03 0.  1.
</event>
<event>
 8    1  0.1119901E+005  0.1043930E+01  0.7957747E-01            NaN
         13   -1    0    0    0    0  0.00000000000E+00  0.00000000000E+00  0.74505805969E-08  0.10566000000E+00  0.10566000000E+00 0.  1.
     999900   -1    0    0    0    0 -0.00000000000E+00 -0.00000000000E+00 -0.74505805969E-08  0.93827000000E+00  0.93827000000E+00 0.  1.
     999902    2    1    2    0    0 -0.26231076288E-03  0.16443528254E-01  0.15552549137E-01  0.10212950665E+01  0.10210442070E+01 0.  0.
     999903    2    3    3    0    0 -0.12969455495E+00  0.77489463062E-02  0.75506286083E-02  0.13174892814E+00  0.20494982867E-01 0.  0.
         14    1    1    2    0    0  0.26231076288E-03 -0.16443528254E-01 -0.15552549137E-01  0.22634933467E-01  0.00000000000E+00 0. -1.
     999901    1    3    3    0    0  0.12943224419E+00  0.86945819482E-02  0.80019205284E-02  0.88954613839E+00  0.88000000000E+00 0. -1.
        -11    1    4    4    0    0 -0.87949161792E-01  0.75446854382E-02 -0.42133247702E-02  0.88374151000E-01  0.51100000000E-03 0. -1.
         11    1    4    4    0    0 -0.41745393156E-01  0.20426086804E-03  0.11763953378E-01  0.43374777145E-01  0.51100000000E-03 0.  1.
</event>
<event>
 8    1  0.1119901E+005  0.1043930E+01  0.7957747E-01            NaN
         13   -1    0    0    0    0  0.00000000000E+00  0.00000000000E+00  0.74505805969E-08  0.10566000000E+00  0.10566000000E+00 0.  1.
     999900   -1    0    0    0    0 -0.00000000000E+00 -0.00000000000E+00 -0.74505805969E-08  0.93827000000E+00  0.93827000000E+00 0. -1.
     999902    2    1    2    0    0  0.31198623746E-02 -0.15834103588E-01  0.17396343816E-01  0.10202005846E+01  0.10199245794E+01 0.  0.
     999903    2    3    3    0    0  0.51250837598E-01 -0.73175059558E-01 -0.92699488657E-01  0.13018616429E+00  0.19339195421E-01 0.  0.
         14    1    1    2    0    0 -0.31198623746E-02  0.15834103588E-01 -0.17396343816E-01  0.23729415413E-01  0.00000000000E+00 0. -1.
     999901    1    3    3    0    0 -0.48130975224E-01  0.57340955970E-01  0.11009583247E+00  0.89001442030E+00  0.88000000000E+00 0.  1.
        -11    1    4    4    0    0  0.15587530766E-01 -0.15377037171E-01 -0.33860672241E-01  0.40326549978E-01  0.51100000000E-03 0.  1.
         11    1    4    4    0    0  0.35663306832E-01 -0.57798022387E-01 -0.58838816416E-01  0.89859614312E-01  0.51100000000E-03 0. -1.
</event>
<event>
 8    1  0.1119901E+005  0.1043930E+01  0.7957747E-01            NaN
         13   -1    0    0    0    0  0.00000000000E+00  0.00000000000E+00  0.74505805969E-08  0.10566000000E+00  0.10566000000E+00 0. -1.
     999900   -1    0    0    0    0 -0.00000000000E+00 -0.00000000000E+00 -0.74505805969E-08  0.93827000000E+00  0.93827000000E+00 0.  1.
     999902    2    1    2    0    0 -0.20635142391E-01  0.10778453983E-01  0.98263575892E-02  0.10186606218E+01  0.10183471515E+01 0.  0.
     999903    2    3    3    0    0 -0.12544991365E+00  0.30881373364E-01 -0.17230904089E-01  0.13179966366E+00  0.19568015500E-01 0.  0.
         14    1    1    2    0    0  0.20635142391E-01 -0.10778453983E-01 -0.98263575892E-02  0.25269378212E-01  0.00000000000E+00 0.  1.
     999901    1    3    3    0    0  0.10481477125E+00 -0.20102919381E-01  0.27057261679E-01  0.88686095813E+00  0.88000000000E+00 0. -1.
        -11    1    4    4    0    0 -0.50081759069E-01  0.15224338136E-01 -0.16260798633E-01  0.54814576130E-01  0.51100000000E-03 0.  1.
         11    1    4    4    0    0 -0.75368154577E-01  0.15657035229E-01 -0.97010545653E-03  0.76985087531E-01  0.51100000000E-03 0. -1.
</event>
<event>
 8    1  0.1119901E+005  0.1043930E+01  0.7957747E-01            NaN
         13   -1    0    0    0    0  0.00000000000E+00  0.00000000000E+00  0.74505805969E-08  0.10566000000E+00  0.10566000000E+00 0. -1.
     999900   -1    0    0    0    0 -0.00000000000E+00 -0.00000000000E+00 -0.74505805969E-08  0.93827000000E+00  0.93827000000E+00 0.  1.
     999902    2    1    2    0    0 -0.22230670571E-01  0.78332288711E-03  0.51744037389E-02  0.10210916384E+01  0.10208361980E+01 0.  0.
     999903    2    3    3    0    0 -0.11019146291E+00  0.67028683001E-01 -0.28980722687E-01  0.13357142935E+00  0.19142664609E-01 0.  0.
         14    1    1    2    0    0  0.22230670571E-01 -0.78332288711E-03 -0.51744037389E-02  0.22838361650E-01  0.00000000000E+00 0.  1.
     999901    1    3    3    0    0  0.87960792336E-01 -0.66245360114E-01  0.34155126426E-01  0.88752020900E+00  0.88000000000E+00 0. -1.
        -11    1    4    4    0    0 -0.69621858045E-01  0.33494221731E-01 -0.22900407293E-01  0.80583843183E-01  0.51100000000E-03 0.  1.
         11    1    4    4    0    0 -0.40569604862E-01  0.33534461270E-01 -0.60803153936E-02  0.52987586166E-01  0.51100000000E-03 0. -1.
</event>
<event>
 8    1  0.1149076E+005  0.1043930E+01  0.7957747E-01            NaN
         13   -1    0    0    0    0  0.00000000000E+00  0.00000000000E+00  0.74505805969E-08  0.10566000000E+00  0.10566000000E+00 0.  1.
     999900   -1    0    0    0    0 -0.00000000000E+00 -0.00000000000E+00 -0.74505805969E-08  0.93827000000E+00  0.93827000000E+00 0.  1.
     999902    2    1    2    0    0  0.11822084293E-01  0.18736496213E-01 -0.76715420720E-03  0.10217623097E+01  0.10215218113E+01 0.  0.
     999903    2    3    3    0    0 -0.62231830383E-01  0.47440852731E-01  0.10407109045E+00  0.13198763042E+00  0.21598784594E-01 0.  0.
         14    1    1    2    0    0 -0.11822084293E-01 -0.18736496213E-01  0.76715420720E-03  0.22167690294E-01  0.00000000000E+00 0.  1.
     999901    1    3    3    0    0  0.74053914675E-01 -0.28704356518E-01 -0.10483824465E+00  0.88977467929E+00  0.88000000000E+00 0.  1.
        -11    1    4    4    0    0 -0.21523894798E-01  0.29382000254E-01  0.42064308108E-01  0.55643931599E-01  0.51100000000E-03 0. -1.
         11    1    4    4    0    0 -0.40707935584E-01  0.18058852478E-01  0.62006782338E-01  0.76343698818E-01  0.51100000000E-03 0.  1.
</event>
<event>
 8    1  0.1119901E+005  0.1043930E+01  0.7957747E-01            NaN
         13   -1    0    0    0    0  0.00000000000E+00  0.00000000000E+00  0.74505805969E-08  0.10566000000E+00  0.10566000000E+00 0.  1.
     999900   -1    0    0    0    0 -0.00000000000E+00 -0.00000000000E+00 -0.74505805969E-08  0.93827000000E+00  0.93827000000E+00 0.  1.
     999902    2    1    2    0    0 -0.99068703642E-02 -0.79433880327E-02 -0.20604579836E-01  0.10197268555E+01  0.10194395851E+01 0.  0.
     999903    2    3    3    0    0 -0.45491812556E-01 -0.10464742804E+00 -0.64784042931E-01  0.13261368096E+00  0.19204868002E-01 0.  0.
         14    1    1    2    0    0  0.99068703642E-02  0.79433880327E-02  0.20604579836E-01  0.24203144508E-01  0.00000000000E+00 0.  1.
     999901    1    3    3    0    0  0.35584942192E-01  0.96704040007E-01  0.44179463095E-01  0.88711317453E+00  0.88000000000E+00 0. -1.
        -11    1    4    4    0    0 -0.38487071229E-01 -0.71077665142E-01 -0.39252209032E-01  0.89857031827E-01  0.51100000000E-03 0.  1.
         11    1    4    4    0    0 -0.70047413264E-02 -0.33569762898E-01 -0.25531833899E-01  0.42756649135E-01  0.51100000000E-03 0. -1.
</event>
<event>
 8    1  0.1119901E+005  0.1043930E+01  0.7957747E-01            NaN
         13   -1    0    0    0    0  0.00000000000E+00  0.00000000000E+00  0.74505805969E-08  0.10566000000E+00  0.10566000000E+00 0. -1.
     999900   -1    0    0    0    0 -0.00000000000E+00 -0.00000000000E+00 -0.74505805969E-08  0.93827000000E+00  0.93827000000E+00 0. -1.
     999902    2    1    2    0    0 -0.22396183105E-01  0.43292467610E-02  0.52646176760E-02  0.10205195836E+01  0.10202510343E+01 0.  0.
     999903    2    3    3    0    0  0.24648603836E-01 -0.58090897179E-01 -0.11136301570E+00  0.12939024890E+00  0.18921132115E-01 0.  0.
         14    1    1    2    0    0  0.22396183105E-01 -0.43292467610E-02 -0.52646176760E-02  0.23410416367E-01  0.00000000000E+00 0.  1.
     999901    1    3    3    0    0 -0.47044786941E-01  0.62420143940E-01  0.11662763337E+00  0.89112933473E+00  0.88000000000E+00 0.  1.
        -11    1    4    4    0    0  0.10208089087E-01 -0.43122755764E-01 -0.66188459913E-01  0.79655197534E-01  0.51100000000E-03 0.  1.
         11    1    4    4    0    0  0.14440514749E-01 -0.14968141414E-01 -0.45174555783E-01  0.49735051371E-01  0.51100000000E-03 0. -1.
</event>
<event>
 8    1  0.1119901E+005  0.1043930E+01  0.7957747E-01            NaN
         13   -1    0    0    0    0  0.00000000000E+00  0.00000000000E+00  0.74505805969E-08  0.10566000000E+00  0.10566000000E+00 0.  1.
     999900   -1    0    0    0    0 -0.00000000000E+00 -0.00000000000E+00 -0.74505805969E-08  0.93827000000E+00  0.93827000000E+00 0.  1.
     999902    2    1    2    0    0 -0.22697629460E-01 -0.45813565340E-02  0.10456450561E-02  0.10207510314E+01  0.10204878263E+01 0.  0.
     999903    2    3    3    0    0  0.78419273604E-01 -0.49774107970E-01 -0.87934695264E-01  0.12935632994E+00  0.19326281775E-01 0.  0.
         14    1    1    2    0    0  0.22697629460E-01  0.45813565340E-02 -0.10456450561E-02  0.23178968579E-01  0.00000000000E+00 0.  1.
     999901    1    3    3    0    0 -0.10111690306E+00  0.45192751436E-01  0.88980340320E-01  0.89139470148E+00  0.88000000000E+00 0. -1.
        -11    1    4    4    0    0  0.56271922878E-01 -0.40822414101E-01 -0.54891890079E-01  0.88579791797E-01  0.51100000000E-03 0.  1.
         11    1    4    4    0    0  0.22147350727E-01 -0.89516938688E-02 -0.33042805185E-01  0.40776538142E-01  0.51100000000E-03 0. -1.
</event>
<event>
 8    1  0.1119901E+005  0.1043930E+01  0.7957747E-01            NaN
         13   -1    0    0    0    0  0.00000000000E+00  0.00000000000E+00  0.74505805969E-08  0.10566000000E+00  0.10566000000E+00 0. -1.
     999900   -1    0    0    0    0 -0.00000000000E+00 -0.00000000000E+00 -0.74505805969E-08  0.93827000000E+00  0.93827000000E+00 0. -1.
     999902    2    1    2    0    0  0.97333826289E-02  0.22483544059E-01 -0.40100293693E-02  0.10191040292E+01  0.10188015967E+01 0.  0.
     999903    2    3    3    0    0 -0.23270611737E-01  0.94675677298E-01 -0.86189675717E-01  0.13171771985E+00  0.20393437154E-01 0.  0.
         14    1    1    2    0    0 -0.97333826289E-02 -0.22483544059E-01  0.40100293693E-02  0.24825970805E-01  0.00000000000E+00 0.  1.
     999901    1    3    3    0    0  0.33003994366E-01 -0.72192133239E-01  0.82179646348E-01  0.88738630935E+00  0.88000000000E+00 0. -1.
        -11    1    4    4    0    0 -0.40258551927E-02  0.49571872623E-01 -0.34932895535E-01  0.60779489771E-01  0.51100000000E-03 0.  1.
         11    1    4    4    0    0 -0.19244756544E-01  0.45103804675E-01 -0.51256780182E-01  0.70938230075E-01  0.51100000000E-03 0. -1.
</event>
<event>
 8    1  0.1119901E+005  0.1043930E+01  0.7957747E-01            NaN
         13   -1    0    0    0    0  0.00000000000E+00  0.00000000000E+00  0.74505805969E-08  0.10566000000E+00  0.10566000000E+00 0. -1.
     999900   -1    0    0    0    0 -0.00000000000E+00 -0.00000000000E+00 -0.74505805969E-08  0.93827000000E+00  0.93827000000E+00 0. -1.
     999902    2    1    2    0    0  0.26774467259E-02  0.22118347053E-01  0.95892604456E-02  0.10196741984E+01  0.10193856615E+01 0.  0.
     999903    2    3    3    0    0 -0.10526918041E-01 -0.82966693507E-01  0.96239712386E-01  0.12909824886E+00  0.20248145214E-01 0.  0.
         14    1    1    2    0    0 -0.26774467259E-02 -0.22118347053E-01 -0.95892604456E-02  0.24255801640E-01  0.00000000000E+00 0.  1.
     999901    1    3    3    0    0  0.13204364767E-01  0.10508504056E+00 -0.86650451941E-01  0.89057594950E+00  0.88000000000E+00 0. -1.
        -11    1    4    4    0    0 -0.15754157231E-01 -0.57938441548E-01  0.73208350776E-01  0.94682523326E-01  0.51100000000E-03 0.  1.
         11    1    4    4    0    0  0.52272391898E-02 -0.25028251959E-01  0.23031361611E-01  0.34415725538E-01  0.51100000000E-03 0. -1.
</event>
<event>
 8    1  0.1119901E+005  0.1043930E+01  0.7957747E-01            NaN
         13   -1    0    0    0    0  0.00000000000E+00  0.00000000000E+00  0.74505805969E-08  0.10566000000E+00  0.10566000000E+00 0. -1.
     999900   -1    0    0    0    0 -0.00000000000E+00 -0.00000000000E+00 -0.74505805969E-08  0.93827000000E+00  0.93827000000E+00 0. -1.
     999902    2    1    2    0    0  0.29405012164E-03 -0.16576538949E-01 -0.18402877628E-01  0.10191603812E+01  0.10188593370E+01 0.  0.
     999903    2    3    3    0    0  0.12713221580E+00  0.25681936983E-02  0.11156611233E-01  0.12936927965E+00  0.21041497830E-01 0.  0.
         14    1    1    2    0    0 -0.29405012164E-03  0.16576538949E-01  0.18402877628E-01  0.24769618770E-01  0.00000000000E+00 0. -1.
     999901    1    3    3    0    0 -0.12683816568E+00 -0.19144732648E-01 -0.29559488861E-01  0.88979110158E+00  0.88000000000E+00 0. -1.
        -11    1    4    4    0    0  0.87183808174E-01  0.99881894407E-02  0.23283557253E-02  0.87786460786E-01  0.51100000000E-03 0. -1.
         11    1    4    4    0    0  0.39948407627E-01 -0.74199957424E-02  0.88282555078E-02  0.41582818868E-01  0.51100000000E-03 0.  1.
</event>
<event>
 8    1  0.1119901E+005  0.1043930E+01  0.7957747E-01            NaN
         13   -1    0    0    0    0  0.00000000000E+00  0.00000000000E+00  0.74505805969E-08  0.10566000000E+00  0.10566000000E+00 0. -1.
     999900   -1    0    0    0    0 -0.00000000000E+00 -0.00000000000E+00 -0.74505805969E-08  0.93827000000E+00  0.93827000000E+00 0.  1.
     999902    2    1    2    0    0  0.22058604276E-01 -0.61988999082E-02 -0.18058604686E-01  0.10147560118E+01  0.10143365526E+01 0.  0.
     999903    2    3    3    0    0 -0.40665720529E-01  0.11096617010E+00 -0.34839659160E-01  0.12461916935E+00  0.18680037096E-01 0.  0.
         14    1    1    2    0    0 -0.22058604276E-01  0.61988999082E-02  0.18058604686E-01  0.29173988172E-01  0.00000000000E+00 0. -1.
     999901    1    3    3    0    0  0.62724324805E-01 -0.11716507001E+00  0.16781054474E-01  0.89013684248E+00  0.88000000000E+00 0. -1.
        -11    1    4    4    0    0 -0.16862364848E-01  0.66860583913E-01 -0.26161052287E-01  0.73751873245E-01  0.51100000000E-03 0. -1.
         11    1    4    4    0    0 -0.23803355681E-01  0.44105586186E-01 -0.86786068733E-02  0.50867296102E-01  0.51100000000E-03 0.  1.
</event>
<event>
 8    1  0.1119901E+005  0.1043930E+01  0.7957747E-01            NaN
         13   -1    0    0    0    0  0.00000000000E+00  0.00000000000E+00  0.74505805969E-08  0.10566000000E+00  0.10566000000E+00 0. -1.
     999900   -1    0    0    0    0 -0.00000000000E+00 -0.00000000000E+00 -0.74505805969E-08  0.93827000000E+00  0.93827000000E+00 0. -1.
     999902    2    1    2    0    0 -0.54288118119E-02  0.70809935195E-02  0.22529174323E-01  0.10196982819E+01  0.10194103246E+01 0.  0.
     999903    2    3    3    0    0 -0.98655613194E-02  0.66539652375E-01 -0.10735451123E+00  0.12816881595E+00  0.19426776993E-01 0.  0.
         14    1    1    2    0    0  0.54288118119E-02 -0.70809935195E-02 -0.22529174323E-01  0.24231718111E-01  0.00000000000E+00 0.  1.
     999901    1    3    3    0    0  0.44367495076E-02 -0.59458658855E-01  0.12988368555E+00  0.89152946594E+00  0.88000000000E+00 0.  1.
        -11    1    4    4    0    0 -0.49896375183E-02  0.37830359797E-01 -0.77906513209E-01  0.86750899283E-01  0.51100000000E-03 0.  1.
         11    1    4    4    0    0 -0.48759238011E-02  0.28709292578E-01 -0.29447998016E-01  0.41417916671E-01  0.51100000000E-03 0. -1.
</event>
<event>
 8    1  0.1119901E+005  0.1043930E+01  0.7957747E-01            NaN
         13   -1    0    0    0    0  0.00000000000E+00  0.00000000000E+00  0.74505805969E-08  0.10566000000E+00  0.10566000000E+00 0.  1.
     999900   -1    0    0    0    0 -0.00000000000E+00 -0.00000000000E+00 -0.74505805969E-08  0.93827000000E+00  0.93827000000E+00 0. -1.
     999902    2    1    2    0    0  0.21968454078E-01  0.22155788494E-02  0.97350497519E-02  0.10197992529E+01  0.10195137190E+01 0.  0.
     999903    2    3    3    0    0 -0.11007879018E-01  0.10431863854E+00 -0.72787223695E-01  0.12944965918E+00  0.21346722936E-01 0.  0.
         14    1    1    2    0    0 -0.21968454078E-01 -0.22155788494E-02 -0.97350497519E-02  0.24130747148E-01  0.00000000000E+00 0.  1.
     999901    1    3    3    0    0  0.32976333096E-01 -0.10210305969E+00  0.82522273447E-01  0.89034959368E+00  0.88000000000E+00 0.  1.
        -11    1    4    4    0    0 -0.52235803956E-02  0.92479857042E-01 -0.56525628684E-01  0.10851367457E+00  0.51100000000E-03 0.  1.
         11    1    4    4    0    0 -0.57842986220E-02  0.11838781500E-01 -0.16261595011E-01  0.20935984602E-01  0.51100000000E-03 0. -1.
</event>
<event>
 8    1  0.1119901E+005  0.1043930E+01  0.7957747E-01            NaN
         13   -1    0    0    0    0  0.00000000000E+00  0.00000000000E+00  0.74505805969E-08  0.10566000000E+00  0.10566000000E+00 0. -1.
     999900   -1    0    0    0    0 -0.00000000000E+00 -0.00000000000E+00 -0.74505805969E-08  0.93827000000E+00  0.93827000000E+00 0. -1.
     999902    2    1    2    0    0 -0.16093724838E-01 -0.16177707819E-01  0.59202444296E-02  0.10203551086E+01  0.10200827281E+01 0.  0.
     999903    2    3    3    0    0  0.68705466503E-01  0.95157029078E-01 -0.46174781124E-01  0.12777445782E+00  0.20467055224E-01 0.  0.
         14    1    1    2    0    0  0.16093724838E-01  0.16177707819E-01 -0.59202444296E-02  0.23574891380E-01  0.00000000000E+00 0.  1.
     999901    1    3    3    0    0 -0.84799191342E-01 -0.11133473690E+00  0.52095025554E-01  0.89258065080E+00  0.88000000000E+00 0. -1.
        -11    1    4    4    0    0  0.62352990413E-01  0.81821709162E-01 -0.33173350280E-01  0.10808986906E+00  0.51100000000E-03 0.  1.
         11    1    4    4    0    0  0.63524760908E-02  0.13335319916E-01 -0.13001430844E-01  0.19684588763E-01  0.51100000000E-03 0. -1.
</event>
<event>
 8    1  0.1119901E+005  0.1043930E+01  0.7957747E-01            NaN
         13   -1    0    0    0    0  0.00000000000E+00  0.00000000000E+00  0.74505805969E-08  0.10566000000E+00  0.10566000000E+00 0.  1.
     999900   -1    0    0    0    0 -0.00000000000E+00 -0.00000000000E+00 -0.74505805969E-08  0.93827000000E+00  0.93827000000E+00 0. -1.
     999902    2    1    2    0    0 -0.17007639666E-02  0.18474493265E-01 -0.14756848213E-01  0.10202242187E+01  0.10199487694E+01 0.  0.
     999903    2    3    3    0    0  0.46149144927E-01 -0.81917034769E-01  0.84033461721E-01  0.12774027034E+00  0.20391415234E-01 0.  0.
         14    1    1    2    0    0  0.17007639666E-02 -0.18474493265E-01  0.14756848213E-01  0.23705781333E-01  0.00000000000E+00 0.  1.
     999901    1    3    3    0    0 -0.47849908894E-01  0.10039152803E+00 -0.98790309933E-01  0.89248394833E+00  0.88000000000E+00 0. -1.
        -11    1    4    4    0    0  0.18219600516E-01 -0.17896324838E-01  0.30191568823E-01  0.39547746265E-01  0.51100000000E-03 0. -1.
         11    1    4    4    0    0  0.27929544411E-01 -0.64020709931E-01  0.53841892898E-01  0.88192524076E-01  0.51100000000E-03 0.  1.
</event>
<event>
 8    1  0.1119901E+005  0.1043930E+01  0.7957747E-01            NaN
         13   -1    0    0    0    0  0.00000000000E+00  0.00000000000E+00  0.74505805969E-08  0.10566000000E+00  0.10566000000E+00 0. -1.
     999900   -1    0    0    0    0 -0.00000000000E+00 -0.00000000000E+00 -0.74505805969E-08  0.93827000000E+00  0.93827000000E+00 0.  1.
     999902    2    1    2    0    0 -0.22251390676E-01  0.25079094519E-02  0.20029211548E-02  0.10214483255E+01  0.10212008891E+01 0.  0.
     999903    2    3    3    0    0 -0.41682046629E-01  0.47263463088E-01 -0.11484085746E+00  0.13238529138E+00  0.19136741567E-01 0.  0.
         14    1    1    2    0    0  0.22251390676E-01 -0.25079094519E-02 -0.20029211548E-02  0.22481674537E-01  0.00000000000E+00 0. -1.
     999901    1    3    3    0    0  0.19430655952E-01 -0.44755553637E-01  0.11684377861E+00  0.88906303408E+00  0.88000000000E+00 0. -1.
        -11    1    4    4    0    0 -0.14476612868E-01  0.23139846015E-01 -0.66567549511E-01  0.71948068513E-01  0.51100000000E-03 0. -1.
         11    1    4    4    0    0 -0.27205433761E-01  0.24123617073E-01 -0.48273307946E-01  0.60437222867E-01  0.51100000000E-03 0.  1.
</event>
<event>
 8    1  0.1119901E+005  0.1043930E+01  0.7957747E-01            NaN
         13   -1    0    0    0    0  0.00000000000E+00  0.00000000000E+00  0.74505805969E-08  0.10566000000E+00  0.10566000000E+00 0. -1.
     999900   -1    0    0    0    0 -0.00000000000E+00 -0.00000000000E+00 -0.74505805969E-08  0.93827000000E+00  0.93827000000E+00 0.  1.
     999902    2    1    2    0    0 -0.20298317689E-01 -0.26272462748E-02  0.80002254298E-02  0.10219543833E+01  0.10217180794E+01 0.  0.
     999903    2    3    3    0    0  0.25820419503E-01 -0.86481501082E-01  0.95259486959E-01  0.13247551747E+00  0.18156232565E-01 0.  0.
         14    1    1    2    0    0  0.20298317689E-01  0.26272462748E-02 -0.80002254298E-02  0.21975616736E-01  0.00000000000E+00 0.  1.
     999901    1    3    3    0    0 -0.46118737192E-01  0.83854254807E-01 -0.87259261529E-01  0.88947886579E+00  0.88000000000E+00 0.  1.
        -11    1    4    4    0    0  0.21901106287E-01 -0.42651533776E-01  0.52832457506E-01  0.71346629053E-01  0.51100000000E-03 0.  1.
         11    1    4    4    0    0  0.39193132157E-02 -0.43829967306E-01  0.42427029453E-01  0.61128888419E-01  0.51100000000E-03 0. -1.
</event>
<event>
 8    1  0.1119901E+005  0.1043930E+01  0.7957747E-01            NaN
         13   -1    0    0    0    0  0.00000000000E+00  0.00000000000E+00  0.74505805969E-08  0.10566000000E+00  0.10566000000E+00 0.  1.
     999900   -1    0    0    0    0 -0.00000000000E+00 -0.00000000000E+00 -0.74505805969E-08  0.93827000000E+00  0.93827000000E+00 0. -1.
     999902    2    1    2    0    0 -0.25491280477E-02  0.22464863210E-01 -0.76323201720E-02  0.10200674678E+01  0.10197883204E+01 0.  0.
     999903    2    3    3    0    0  0.10537852617E+00 -0.61070801107E-01 -0.37518482320E-01  0.12904571246E+00  0.20270245787E-01 0.  0.
         14    1    1    2    0    0  0.25491280477E-02 -0.22464863210E-01  0.76323201720E-02  0.23862532222E-01  0.00000000000E+00 0.  1.
     999901    1    3    3    0    0 -0.10792765422E+00  0.83535664317E-01  0.29886162148E-01  0.89102175532E+00  0.88000000000E+00 0.  1.
        -11    1    4    4    0    0  0.88881608208E-01 -0.51573868750E-01 -0.23540499680E-01  0.10542400325E+00  0.51100000000E-03 0.  1.
         11    1    4    4    0    0  0.16496917960E-01 -0.94969323568E-02 -0.13977982639E-01  0.23621709211E-01  0.51100000000E-03 0. -1.
</event>
<event>
 8    1  0.1119901E+005  0.1043930E+01  0.7957747E-01            NaN
         13   -1    0    0    0    0  0.00000000000E+00  0.00000000000E+00  0.74505805969E-08  0.10566000000E+00  0.10566000000E+00 0.  1.
     999900   -1    0    0    0    0 -0.00000000000E+00 -0.00000000000E+00 -0.74505805969E-08  0.93827000000E+00  0.93827000000E+00 0. -1.
     999902    2    1    2    0    0 -0.44449764384E-02 -0.14772581225E-01  0.18366505651E-01  0.10199442646E+01  0.10196621928E+01 0.  0.
     999903    2    3    3    0    0  0.39764174561E-01  0.10301138714E+00  0.65117964135E-01  0.12976832072E+00  0.20172564318E-01 0.  0.
         14    1    1    2    0    0  0.44449764384E-02  0.14772581225E-01 -0.18366505651E-01  0.23985735374E-01  0.00000000000E+00 0. -1.
     999901    1    3    3    0    0 -0.44209150999E-01 -0.11778396836E+00 -0.46751458484E-01  0.89017594390E+00  0.88000000000E+00 0.  1.
        -11    1    4    4    0    0  0.24298612200E-01  0.35763422032E-01  0.24714423805E-01  0.49804706357E-01  0.51100000000E-03 0. -1.
         11    1    4    4    0    0  0.15465562361E-01  0.67247965107E-01  0.40403540329E-01  0.79963614365E-01  0.51100000000E-03 0.  1.
</event>
<event>
 8    1  0.1119901E+005  0.1043930E+01  0.7957747E-01            NaN
         13   -1    0    0    0    0  0.00000000000E+00  0.00000000000E+00  0.74505805969E-08  0.10566000000E+00  0.10566000000E+00 0. -1.
     999900   -1    0    0    0    0 -0.00000000000E+00 -0.00000000000E+00 -0.74505805969E-08  0.93827000000E+00  0.93827000000E+00 0. -1.
     999902    2    1    2    0    0  0.56472456200E-02  0.20292422564E-01 -0.16392957101E-02  0.10228027407E+01  0.10225845125E+01 0.  0.
     999903    2    3    3    0    0  0.12418875310E+00 -0.46329143049E-02 -0.44179466350E-01  0.13348669587E+00  0.20556323488E-01 0.  0.
         14    1    1    2    0    0 -0.56472456200E-02 -0.20292422564E-01  0.16392957101E-02  0.21127259336E-01  0.00000000000E+00 0.  1.
     999901    1    3    3    0    0 -0.11854150748E+00  0.24925336869E-01  0.42540170640E-01  0.88931604480E+00  0.88000000000E+00 0. -1.
        -11    1    4    4    0    0  0.88178910183E-01  0.57846418289E-02 -0.28525438316E-01  0.92859808498E-01  0.51100000000E-03 0.  1.
         11    1    4    4    0    0  0.36009842917E-01 -0.10417556134E-01 -0.15654028034E-01  0.40626887370E-01  0.51100000000E-03 0. -1.
</event>
<event>
 8    1  0.1119901E+005  0.1043930E+01  0.7957747E-01            NaN
         13   -1    0    0    0    0  0.00000000000E+00  0.00000000000E+00  0.74505805969E-08  0.10566000000E+00  0.10566000000E+00 0. -1.
     999900   -1    0    0    0    0 -0.00000000000E+00 -0.00000000000E+00 -0.74505805969E-08  0.93827000000E+00  0.93827000000E+00 0. -1.
     999902    2    1    2    0    0 -0.24207628833E-01  0.33335490103E-03  0.21604565941E-02  0.10196238693E+01  0.10193341193E+01 0.  0.
     999903    2    3    3    0    0 -0.30429008461E-01  0.12531159331E+00 -0.30184449316E-02  0.13075656382E+00  0.21430072336E-01 0.  0.
         14    1    1    2    0    0  0.24207628833E-01 -0.33335490103E-03 -0.21604565941E-02  0.24306130747E-01  0.00000000000E+00 0.  1.
     999901    1    3    3    0    0  0.62213796279E-02 -0.12497823841E+00  0.51789015257E-02  0.88886730543E+00  0.88000000000E+00 0. -1.
        -11    1    4    4    0    0 -0.32011403146E-01  0.95798431064E-01  0.33365049913E-03  0.10100713722E+00  0.51100000000E-03 0. -1.
         11    1    4    4    0    0  0.15823946854E-02  0.29513162243E-01 -0.33520954308E-02  0.29749426604E-01  0.51100000000E-03 0.  1.
</event>
<event>
 8    1  0.1119901E+005  0.1043930E+01  0.7957747E-01            NaN
         13   -1    0    0    0    0  0.00000000000E+00  0.00000000000E+00  0.74505805969E-08  0.10566000000E+00  0.10566000000E+00 0. -1.
     999900   -1    0    0    0    0 -0.00000000000E+00 -0.00000000000E+00 -0.74505805969E-08  0.93827000000E+00  0.93827000000E+00 0.  1.
     999902    2    1    2    0    0 -0.20251794551E-01  0.91862064269E-02  0.82568354800E-02  0.10202087668E+01  0.10199329542E+01 0.  0.
     999903    2    3    3    0    0  0.38271975282E-01 -0.10407495672E+00  0.63548774820E-01  0.12930455129E+00  0.19618345871E-01 0.  0.
         14    1    1    2    0    0  0.20251794551E-01 -0.91862064269E-02 -0.82568354800E-02  0.23721233172E-01  0.00000000000E+00 0.  1.
     999901    1    3    3    0    0 -0.58523769833E-01  0.11326116314E+00 -0.55291939340E-01  0.89090421554E+00  0.88000000000E+00 0.  1.
        -11    1    4    4    0    0  0.18097650114E-01 -0.24791150200E-01  0.14929282121E-01  0.34136060897E-01  0.51100000000E-03 0.  1.
         11    1    4    4    0    0  0.20174325168E-01 -0.79283806517E-01  0.48619492699E-01  0.95168490390E-01  0.51100000000E-03 0. -1.
</event>
<event>
 8    1  0.1119901E+005  0.1043930E+01  0.7957747E-01            NaN
         13   -1    0    0    0    0  0.00000000000E+00  0.00000000000E+00  0.74505805969E-08  0.10566000000E+00  0.10566000000E+00 0. -1.
     999900   -1    0    0    0    0 -0.00000000000E+00 -0.00000000000E+00 -0.74505805969E-08  0.93827000000E+00  0.93827000000E+00 0.  1.
     999902    2    1    2    0    0 -0.20090206596E-01 -0.87775435331E-02  0.83595317768E-02  0.10204663378E+01  0.10201965512E+01 0.  0.
     999903    2    3    3    0    0 -0.25633490679E-02 -0.12983997989E+00  0.84382297049E-02  0.13200513415E+00  0.22116975033E-01 0.  0.
         14    1    1    2    0    0  0.20090206596E-01  0.87775435331E-02 -0.83595317768E-02  0.23463662184E-01  0.00000000000E+00 0. -1.
     999901    1    3    3    0    0 -0.17526857528E-01  0.12106243636E+00 -0.78697928083E-04  0.88846120367E+00  0.88000000000E+00 0. -1.
        -11    1    4    4    0    0 -0.44639425565E-02 -0.45279986580E-01  0.12927707677E-01  0.47303178694E-01  0.51100000000E-03 0.  1.
         11    1    4    4    0    0  0.19005934886E-02 -0.84559993309E-01 -0.44894779719E-02  0.84701955453E-01  0.51100000000E-03 0. -1.
</event>
<event>
 8    1  0.1119901E+005  0.1043930E+01  0.7957747E-01            NaN
         13   -1    0    0    0    0  0.00000000000E+00  0.00000000000E+00  0.74505805969E-08  0.10566000000E+00  0.10566000000E+00 0. -1.
     999900   -1    0    0    0    0 -0.00000000000E+00 -0.00000000000E+00 -0.74505805969E-08  0.93827000000E+00  0.93827000000E+00 0.  1.
     999902    2    1    2    0    0  0.36166968210E-02  0.20339272799E-01 -0.90963330743E-02  0.10213576765E+01  0.10211082183E+01 0.  0.
     999903    2    3    3    0    0 -0.41313981405E-01 -0.45082027341E-01 -0.11467391248E+00  0.13150075672E+00  0.20077563763E-01 0.  0.
         14    1    1    2    0    0 -0.36166968210E-02 -0.20339272799E-01  0.90963330743E-02  0.22572323524E-01  0.00000000000E+00 0.  1.
     999901    1    3    3    0    0  0.44930678226E-01  0.65421300140E-01  0.10557757941E+00  0.88985691975E+00  0.88000000000E+00 0. -1.
        -11    1    4    4    0    0 -0.12399908127E-01 -0.31844795401E-02 -0.31190348504E-01  0.33719394898E-01  0.51100000000E-03 0.  1.
         11    1    4    4    0    0 -0.28914073279E-01 -0.41897547801E-01 -0.83483563976E-01  0.97781361826E-01  0.51100000000E-03 0. -1.
</event>
<event>
 8    1  0.1119901E+005  0.1043930E+01  0.7957747E-01            NaN
         13   -1    0    0    0    0  0.00000000000E+00  0.00000000000E+00  0.74505805969E-08  0.10566000000E+00  0.10566000000E+00 0.  1.
     999900   -1    0    0    0    0 -0.00000000000E+00 -0.00000000000E+00 -0.74505805969E-08  0.93827000000E+00  0.93827000000E+00 0.  1.
     999902    2    1    2    0    0 -0.19335998266E-01  0.27147093888E-02 -0.40260793811E-02  0.10239936064E+01  0.10237995146E+01 0.  0.
     999903    2    3    3    0    0 -0.28541669838E-01  0.12406342489E+00 -0.39539679570E-01  0.13490898107E+00  0.20752990126E-01 0.  0.
         14    1    1    2    0    0  0.19335998266E-01 -0.27147093888E-02  0.40260793811E-02  0.19936393636E-01  0.00000000000E+00 0.  1.
     999901    1    3    3    0    0  0.92056715717E-02 -0.12134871550E+00  0.35513600189E-01  0.88908462530E+00  0.88000000000E+00 0.  1.
        -11    1    4    4    0    0 -0.24960100827E-01  0.71053357263E-01 -0.29226964957E-01  0.80784050488E-01  0.51100000000E-03 0.  1.
         11    1    4    4    0    0 -0.35815690115E-02  0.53010067627E-01 -0.10312714613E-01  0.54124930578E-01  0.51100000000E-03 0. -1.
</event>
<event>
 8    1  0.1119901E+005  0.1043930E+01  0.7957747E-01            NaN
         13   -1    0    0    0    0  0.00000000000E+00  0.00000000000E+00  0.74505805969E-08  0.10566000000E+00  0.10566000000E+00 0.  1.
     999900   -1    0    0    0    0 -0.00000000000E+00 -0.00000000000E+00 -0.74505805969E-08  0.93827000000E+00  0.93827000000E+00 0.  1.
     999902    2    1    2    0    0 -0.35613213151E-02  0.37485866771E-02 -0.23351829224E-01  0.10200125829E+01  0.10197321347E+01 0.  0.
     999903    2    3    3    0    0  0.11802026869E+00 -0.41443542143E-01 -0.31459713008E-01  0.13046767157E+00  0.19640488175E-01 0.  0.
         14    1    1    2    0    0  0.35613213151E-02 -0.37485866771E-02  0.23351829224E-01  0.23917417079E-01  0.00000000000E+00 0.  1.
     999901    1    3    3    0    0 -0.12158159000E+00  0.45192128820E-01  0.81078837832E-02  0.88954491135E+00  0.88000000000E+00 0.  1.
        -11    1    4    4    0    0  0.74871915199E-01 -0.25807775935E-01 -0.10079916542E-01  0.79835523564E-01  0.51100000000E-03 0. -1.
         11    1    4    4    0    0  0.43148353487E-01 -0.15635766208E-01 -0.21379796466E-01  0.50632148004E-01  0.51100000000E-03 0.  1.
</event>
<event>
 8    1  0.1119901E+005  0.1043930E+01  0.7957747E-01            NaN
         13   -1    0    0    0    0  0.00000000000E+00  0.00000000000E+00  0.74505805969E-08  0.10566000000E+00  0.10566000000E+00 0.  1.
     999900   -1    0    0    0    0 -0.00000000000E+00 -0.00000000000E+00 -0.74505805969E-08  0.93827000000E+00  0.93827000000E+00 0.  1.
     999902    2    1    2    0    0 -0.77718772711E-02  0.22096811362E-01 -0.34600896071E-02  0.10202520911E+01  0.10199772968E+01 0.  0.
     999903    2    3    3    0    0  0.65157307522E-01 -0.88796745633E-01  0.61740904595E-01  0.12791402928E+00  0.20487138082E-01 0.  0.
         14    1    1    2    0    0  0.77718772711E-02 -0.22096811362E-01  0.34600896071E-02  0.23677908877E-01  0.00000000000E+00 0.  1.
     999901    1    3    3    0    0 -0.72929184793E-01  0.11089355699E+00 -0.65200994202E-01  0.89233806185E+00  0.88000000000E+00 0.  1.
        -11    1    4    4    0    0  0.17940163274E-01 -0.41400066282E-01  0.24861493072E-01  0.51518636484E-01  0.51100000000E-03 0.  1.
         11    1    4    4    0    0  0.47217144248E-01 -0.47396679351E-01  0.36879411523E-01  0.76395392791E-01  0.51100000000E-03 0. -1.
</event>
<event>
 8    1  0.1119901E+005  0.1043930E+01  0.7957747E-01            NaN
         13   -1    0    0    0    0  0.00000000000E+00  0.00000000000E+00  0.74505805969E-08  0.10566000000E+00  0.10566000000E+00 0. -1.
     999900   -1    0    0    0    0 -0.00000000000E+00 -0.00000000000E+00 -0.74505805969E-08  0.93827000000E+00  0.93827000000E+00 0.  1.
     999902    2    1    2    0    0 -0.33085626376E-02 -0.22323095448E-01 -0.67462202529E-02  0.10203762601E+01  0.10201043738E+01 0.  0.
     999903    2    3    3    0    0  0.17565360415E-01  0.11963625764E+00 -0.37428884149E-01  0.12822739107E+00  0.20493082330E-01 0.  0.
         14    1    1    2    0    0  0.33085626376E-02  0.22323095448E-01  0.67462202529E-02  0.23553739932E-01  0.00000000000E+00 0. -1.
     999901    1    3    3    0    0 -0.20873923052E-01 -0.14195935309E+00  0.30682663896E-01  0.89214886900E+00  0.88000000000E+00 0.  1.
        -11    1    4    4    0    0  0.21461087318E-01  0.10770000464E+00 -0.30989708287E-01  0.11410737229E+00  0.51100000000E-03 0. -1.
         11    1    4    4    0    0 -0.38957269037E-02  0.11936252995E-01 -0.64391758615E-02  0.14120018784E-01  0.51100000000E-03 0.  1.
</event>
<event>
 8    1  0.1119901E+005  0.1043930E+01  0.7957747E-01            NaN
         13   -1    0    0    0    0  0.00000000000E+00  0.00000000000E+00  0.74505805969E-08  0.10566000000E+00  0.10566000000E+00 0.  1.
     999900   -1    0    0    0    0 -0.00000000000E+00 -0.00000000000E+00 -0.74505805969E-08  0.93827000000E+00  0.93827000000E+00 0.  1.
     999902    2    1    2    0    0  0.17758340470E-01  0.90002003906E-02 -0.10931232111E-01  0.10212175783E+01  0.10209649789E+01 0.  0.
     999903    2    3    3    0    0  0.11670954359E+00  0.17449819631E-01  0.58176362950E-01  0.13293913303E+00  0.19044949872E-01 0.  0.
         14    1    1    2    0    0 -0.17758340470E-01 -0.90002003906E-02  0.10931232111E-01  0.22712421685E-01  0.00000000000E+00 0.  1.
     999901    1    3    3    0    0 -0.98951203115E-01 -0.84496192403E-02 -0.69107595061E-01  0.88827844529E+00  0.88000000000E+00 0.  1.
        -11    1    4    4    0    0  0.17629758253E-01  0.18835191561E-02  0.16840701670E-01  0.24458666648E-01  0.51100000000E-03 0. -1.
         11    1    4    4    0    0  0.99079785332E-01  0.15566300475E-01  0.41335661281E-01  0.10848046638E+00  0.51100000000E-03 0.  1.
</event>
<event>
 8    1  0.1119901E+005  0.1043930E+01  0.7957747E-01            NaN
         13   -1    0    0    0    0  0.00000000000E+00  0.00000000000E+00  0.74505805969E-08  0.10566000000E+00  0.10566000000E+00 0. -1.
     999900   -1    0    0    0    0 -0.00000000000E+00 -0.00000000000E+00 -0.74505805969E-08  0.93827000000E+00  0.93827000000E+00 0. -1.
     999902    2    1    2    0    0 -0.14230411870E-01  0.20412512272E-01 -0.72097737968E-02  0.10180233191E+01  0.10176936288E+01 0.  0.
     999903    2    3    3    0    0  0.66701551000E-01  0.70649672378E-01  0.81697667029E-01  0.12842886769E+00  0.19467720596E-01 0.  0.
         14    1    1    2    0    0  0.14230411870E-01 -0.20412512272E-01  0.72097737968E-02  0.25906680942E-01  0.00000000000E+00 0. -1.
     999901    1    3    3    0    0 -0.80931962870E-01 -0.50237160106E-01 -0.88907440826E-01  0.88959445137E+00  0.88000000000E+00 0. -1.
        -11    1    4    4    0    0  0.50862422392E-01  0.41532794616E-01  0.49695355507E-01  0.82351979455E-01  0.51100000000E-03 0.  1.
         11    1    4    4    0    0  0.15839128608E-01  0.29116877762E-01  0.32002311522E-01  0.46076888235E-01  0.51100000000E-03 0. -1.
</event>
<event>
 8    1  0.1119901E+005  0.1043930E+01  0.7957747E-01            NaN
         13   -1    0    0    0    0  0.00000000000E+00  0.00000000000E+00  0.74505805969E-08  0.10566000000E+00  0.10566000000E+00 0.  1.
     999900   -1    0    0    0    0 -0.00000000000E+00 -0.00000000000E+00 -0.74505805969E-08  0.93827000000E+00  0.93827000000E+00 0. -1.
     999902    2    1    2    0    0 -0.88520120267E-02 -0.72427923062E-02  0.20653540819E-01  0.10203209995E+01  0.10200478210E+01 0.  0.
     999903    2    3    3    0    0 -0.73883891801E-01  0.90358257286E-01  0.57947215613E-01  0.13175702967E+00  0.19457413531E-01 0.  0.
         14    1    1    2    0    0  0.88520120267E-02  0.72427923062E-02 -0.20653540819E-01  0.23609000523E-01  0.00000000000E+00 0.  1.
     999901    1    3    3    0    0  0.65031879775E-01 -0.97601049592E-01 -0.37293674794E-01  0.88856396981E+00  0.88000000000E+00 0. -1.
        -11    1    4    4    0    0 -0.54489462186E-01  0.55752367644E-01  0.45050276088E-01  0.90040082651E-01  0.51100000000E-03 0.  1.
         11    1    4    4    0    0 -0.19394429615E-01  0.34605889642E-01  0.12896939526E-01  0.41716947014E-01  0.51100000000E-03 0. -1.
</event>
<event>
 8    1  0.1119901E+005  0.1043930E+01  0.7957747E-01            NaN
         13   -1    0    0    0    0  0.00000000000E+00  0.00000000000E+00  0.74505805969E-08  0.10566000000E+00  0.10566000000E+00 0.  1.
     999900   -1    0    0    0    0 -0.00000000000E+00 -0.00000000000E+00 -0.74505805969E-08  0.93827000000E+00  0.93827000000E+00 0.  1.
     999902    2    1    2    0    0 -0.15965962311E-01 -0.10377334178E-01 -0.13393999848E-01  0.10206491012E+01  0.10203835492E+01 0.  0.
     999903    2    3    3    0    0  0.71085172796E-02 -0.58794392517E-01 -0.11731721709E+00  0.13291227182E+00  0.19875385937E-01 0.  0.
         14    1    1    2    0    0  0.15965962311E-01  0.10377334178E-01  0.13393999848E-01  0.23280898804E-01  0.00000000000E+00 0.  1.
     999901    1    3    3    0    0 -0.23074479591E-01  0.48417058339E-01  0.10392321724E+00  0.88773682937E+00  0.88000000000E+00 0. -1.
        -11    1    4    4    0    0  0.11396441811E-01 -0.49311927102E-01 -0.10637615495E+00  0.11780361838E+00  0.51100000000E-03 0. -1.
         11    1    4    4    0    0 -0.42879245310E-02 -0.94824654151E-02 -0.10941062141E-01  0.15108653445E-01  0.51100000000E-03 0.  1.
</event>
<event>
 8    1  0.1119901E+005  0.1043930E+01  0.7957747E-01            NaN
         13   -1    0    0    0    0  0.00000000000E+00  0.00000000000E+00  0.74505805969E-08  0.10566000000E+00  0.10566000000E+00 0. -1.
     999900   -1    0    0    0    0 -0.00000000000E+00 -0.00000000000E+00 -0.74505805969E-08  0.93827000000E+00  0.93827000000E+00 0. -1.
     999902    2    1    2    0    0  0.98434004454E-03  0.16222378206E-01  0.16148955588E-01  0.10210187965E+01  0.10207617056E+01 0.  0.
     999903    2    3    3    0    0  0.12527342763E+00 -0.92895310867E-02  0.34831465159E-01  0.13172263042E+00  0.18918069231E-01 0.  0.
         14    1    1    2    0    0 -0.98434004454E-03 -0.16222378206E-01 -0.16148955588E-01  0.22911203516E-01  0.00000000000E+00 0.  1.
     999901    1    3    3    0    0 -0.12428908758E+00  0.25511909292E-01 -0.18682509571E-01  0.88929616606E+00  0.88000000000E+00 0.  1.
        -11    1    4    4    0    0  0.98274404612E-01 -0.14507830214E-01  0.30216893503E-01  0.10383476062E+00  0.51100000000E-03 0.  1.
         11    1    4    4    0    0  0.26999023014E-01  0.52182991270E-02  0.46145716559E-02  0.27887869801E-01  0.51100000000E-03 0. -1.
</event>
<event>
 8    1  0.1119901E+005  0.1043930E+01  0.7957747E-01            NaN
         13   -1    0    0    0    0  0.00000000000E+00  0.00000000000E+00  0.74505805969E-08  0.10566000000E+00  0.10566000000E+00 0. -1.
     999900   -1    0    0    0    0 -0.00000000000E+00 -0.00000000000E+00 -0.74505805969E-08  0.93827000000E+00  0.93827000000E+00 0.  1.
     999902    2    1    2    0    0 -0.20045051859E-01 -0.14914473570E-01 -0.36629818940E-02  0.10186780087E+01  0.10183649751E+01 0.  0.
     999903    2    3    3    0    0  0.89440828404E-01 -0.62065666247E-01 -0.65449009530E-01  0.12849381087E+00  0.19372089975E-01 0.  0.
         14    1    1    2    0    0  0.20045051859E-01  0.14914473570E-01  0.36629818940E-02  0.25251991253E-01  0.00000000000E+00 0. -1.
     999901    1    3    3    0    0 -0.10948588026E+00  0.47151192678E-01  0.61786027636E-01  0.89018419788E+00  0.88000000000E+00 0. -1.
        -11    1    4    4    0    0  0.52925346750E-01 -0.40791353924E-01 -0.50141676337E-01  0.83543256523E-01  0.51100000000E-03 0. -1.
         11    1    4    4    0    0  0.36515481653E-01 -0.21274312323E-01 -0.15307333193E-01  0.44950554342E-01  0.51100000000E-03 0.  1.
</event>
<event>
 8    1  0.1119901E+005  0.1043930E+01  0.7957747E-01            NaN
         13   -1    0    0    0    0  0.00000000000E+00  0.00000000000E+00  0.74505805969E-08  0.10566000000E+00  0.10566000000E+00 0.  1.
     999900   -1    0    0    0    0 -0.00000000000E+00 -0.00000000000E+00 -0.74505805969E-08  0.93827000000E+00  0.93827000000E+00 0.  1.
     999902    2    1    2    0    0 -0.21994300351E-01  0.16651344982E-02  0.84282323753E-02  0.10203173546E+01  0.10200440908E+01 0.  0.
     999903    2    3    3    0    0 -0.24657700674E-01 -0.11921035413E+00 -0.42605772694E-01  0.13058568320E+00  0.20451358268E-01 0.  0.
         14    1    1    2    0    0  0.21994300351E-01 -0.16651344982E-02 -0.84282323753E-02  0.23612645379E-01  0.00000000000E+00 0.  1.
     999901    1    3    3    0    0  0.26634003229E-02  0.12087548863E+00  0.51034005070E-01  0.88973167142E+00  0.88000000000E+00 0. -1.
        -11    1    4    4    0    0 -0.28604711686E-02 -0.15549000462E-01  0.13983924944E-02  0.15879871952E-01  0.51100000000E-03 0.  1.
         11    1    4    4    0    0 -0.21797229505E-01 -0.10366135367E+00 -0.44004165189E-01  0.11470581125E+00  0.51100000000E-03 0. -1.
</event>
<event>
 8    1  0.1119901E+005  0.1043930E+01  0.7957747E-01            NaN
         13   -1    0    0    0    0  0.00000000000E+00  0.00000000000E+00  0.74505805969E-08  0.10566000000E+00  0.10566000000E+00 0.  1.
     999900   -1    0    0    0    0 -0.00000000000E+00 -0.00000000000E+00 -0.74505805969E-08  0.93827000000E+00  0.93827000000E+00 0. -1.
     999902    2    1    2    0    0 -0.38931896137E-02 -0.22409902839E-01 -0.83849596631E-02  0.10196881309E+01  0.10193999294E+01 0.  0.
     999903    2    3    3    0    0  0.42066160877E-01 -0.84313956436E-01 -0.90575272725E-01  0.13250177992E+00  0.21781563552E-01 0.  0.
         14    1    1    2    0    0  0.38931896137E-02  0.22409902839E-01  0.83849596631E-02  0.24241869136E-01  0.00000000000E+00 0.  1.
     999901    1    3    3    0    0 -0.45959350491E-01  0.61904053596E-01  0.82190313062E-01  0.88718635095E+00  0.88000000000E+00 0.  1.
        -11    1    4    4    0    0  0.39192920191E-01 -0.56897075191E-01 -0.66584693598E-01  0.95953867567E-01  0.51100000000E-03 0. -1.
         11    1    4    4    0    0  0.28732406856E-02 -0.27416881244E-01 -0.23990579127E-01  0.36547912349E-01  0.51100000000E-03 0.  1.
</event>
<event>
 8    1  0.1119901E+005  0.1043930E+01  0.7957747E-01            NaN
         13   -1    0    0    0    0  0.00000000000E+00  0.00000000000E+00  0.74505805969E-08  0.10566000000E+00  0.10566000000E+00 0.  1.
     999900   -1    0    0    0    0 -0.00000000000E+00 -0.00000000000E+00 -0.74505805969E-08  0.93827000000E+00  0.93827000000E+00 0. -1.
     999902    2    1    2    0    0  0.50011334882E-02  0.19486566744E-03  0.23144076478E-01  0.10202509463E+01  0.10199761251E+01 0.  0.
     999903    2    3    3    0    0  0.12286445377E+00 -0.32839712110E-01  0.27389792314E-01  0.13176849193E+00  0.20943114661E-01 0.  0.
         14    1    1    2    0    0 -0.50011334882E-02 -0.19486566744E-03 -0.23144076478E-01  0.23679053714E-01  0.00000000000E+00 0. -1.
     999901    1    3    3    0    0 -0.11786332028E+00  0.33034577778E-01 -0.42457158359E-02  0.88848245436E+00  0.88000000000E+00 0. -1.
        -11    1    4    4    0    0  0.10308733290E+00 -0.19573679840E-01  0.19916203102E-01  0.10680376124E+00  0.51100000000E-03 0. -1.
         11    1    4    4    0    0  0.19777120866E-01 -0.13266032271E-01  0.74735892118E-02  0.24964730695E-01  0.51100000000E-03 0.  1.
</event>
<event>
 8    1  0.1119901E+005  0.1043930E+01  0.7957747E-01            NaN
         13   -1    0    0    0    0  0.00000000000E+00  0.00000000000E+00  0.74505805969E-08  0.10566000000E+00  0.10566000000E+00 0. -1.
     999900   -1    0    0    0    0 -0.00000000000E+00 -0.00000000000E+00 -0.74505805969E-08  0.93827000000E+00  0.93827000000E+00 0. -1.
     999902    2    1    2    0    0 -0.70376725672E-02 -0.18442609999E-01 -0.13055397082E-01  0.10202635239E+01  0.10199889980E+01 0.  0.
     999903    2    3    3    0    0  0.78889524419E-01  0.32883539186E-01 -0.97054617458E-01  0.13061543290E+00  0.18327802076E-01 0.  0.
         14    1    1    2    0    0  0.70376725672E-02  0.18442609999E-01  0.13055397082E-01  0.23666476115E-01  0.00000000000E+00 0.  1.
     999901    1    3    3    0    0 -0.85927196986E-01 -0.51326149185E-01  0.83999220376E-01  0.88964809099E+00  0.88000000000E+00 0.  1.
        -11    1    4    4    0    0  0.59948863681E-01  0.18654842612E-01 -0.61500154043E-01  0.87888562839E-01  0.51100000000E-03 0.  1.
         11    1    4    4    0    0  0.18940660737E-01  0.14228696574E-01 -0.35554463415E-01  0.42726870060E-01  0.51100000000E-03 0. -1.
</event>
<event>
 8    1  0.1119901E+005  0.1043930E+01  0.7957747E-01            NaN
         13   -1    0    0    0    0  0.00000000000E+00  0.00000000000E+00  0.74505805969E-08  0.10566000000E+00  0.10566000000E+00 0. -1.
     999900   -1    0    0    0    0 -0.00000000000E+00 -0.00000000000E+00 -0.74505805969E-08  0.93827000000E+00  0.93827000000E+00 0.  1.
     999902    2    1    2    0    0 -0.77440578081E-03 -0.23285295250E-01  0.32435738666E-02  0.10204071292E+01  0.10201359634E+01 0.  0.
     999903    2    3    3    0    0  0.74660751240E-01  0.79689115966E-01  0.65744687284E-01  0.12900341513E+00  0.19872952228E-01 0.  0.
         14    1    1    2    0    0  0.77440578081E-03  0.23285295250E-01 -0.32435738666E-02  0.23522870799E-01  0.00000000000E+00 0. -1.
     999901    1    3    3    0    0 -0.75435157021E-01 -0.10297441122E+00 -0.62501113418E-01  0.89140371407E+00  0.88000000000E+00 0. -1.
        -11    1    4    4    0    0  0.18466496687E-01  0.19244972421E-01  0.26550943903E-01  0.37637670046E-01  0.51100000000E-03 0.  1.
         11    1    4    4    0    0  0.56194254553E-01  0.60444143545E-01  0.39193743381E-01  0.91365745085E-01  0.51100000000E-03 0. -1.
</event>
<event>
 8    1  0.1119901E+005  0.1043930E+01  0.7957747E-01            NaN
         13   -1    0    0    0    0  0.00000000000E+00  0.00000000000E+00  0.74505805969E-08  0.10566000000E+00  0.10566000000E+00 0.  1.
     999900   -1    0    0    0    0 -0.00000000000E+00 -0.00000000000E+00 -0.74505805969E-08  0.93827000000E+00  0.93827000000E+00 0. -1.
     999902    2    1    2    0    0 -0.91295785719E-02  0.19131686594E-01  0.10441880936E-01  0.10202994369E+01  0.10200257533E+01 0.  0.
     999903    2    3    3    0    0 -0.65146845236E-01 -0.65128248193E-01 -0.88186890033E-01  0.12902770207E+00  0.19632120885E-01 0.  0.
         14    1    1    2    0    0  0.91295785719E-02 -0.19131686594E-01 -0.10441880936E-01  0.23630563140E-01  0.00000000000E+00 0. -1.
     999901    1    3    3    0    0  0.56017266664E-01  0.84259934787E-01  0.98628770970E-01  0.89127173479E+00  0.88000000000E+00 0.  1.
        -11    1    4    4    0    0 -0.11001033099E-01 -0.34374549266E-02 -0.15945605101E-01  0.19681520994E-01  0.51100000000E-03 0.  1.
         11    1    4    4    0    0 -0.54145812138E-01 -0.61690793266E-01 -0.72241284933E-01  0.10934618107E+00  0.51100000000E-03 0. -1.
</event>
<event>
 8    1  0.1119901E+005  0.1043930E+01  0.7957747E-01            NaN
         13   -1    0    0    0    0  0.00000000000E+00  0.00000000000E+00  0.74505805969E-08  0.10566000000E+00  0.10566000000E+00 0.  1.
     999900   -1    0    0    0    0 -0.00000000000E+00 -0.00000000000E+00 -0.74505805969E-08  0.93827000000E+00  0.93827000000E+00 0.  1.
     999902    2    1    2    0    0  0.18223155842E-01  0.15993213192E-01 -0.46313301058E-02  0.10192456832E+01  0.10189467342E+01 0.  0.
     999903    2    3    3    0    0  0.12424943938E-01 -0.28897725467E-01  0.12340849405E+00  0.12882835846E+00  0.19432749962E-01 0.  0.
         14    1    1    2    0    0 -0.18223155842E-01 -0.15993213192E-01  0.46313301058E-02  0.24684316794E-01  0.00000000000E+00 0.  1.
     999901    1    3    3    0    0  0.57982119039E-02  0.44890938659E-01 -0.12803982416E+00  0.89041732474E+00  0.88000000000E+00 0.  1.
        -11    1    4    4    0    0  0.16379393746E-01 -0.17839150736E-01  0.95926106484E-01  0.98937348179E-01  0.51100000000E-03 0.  1.
         11    1    4    4    0    0 -0.39544498087E-02 -0.11058574731E-01  0.27482387566E-01  0.29891010282E-01  0.51100000000E-03 0. -1.
</event>
<event>
 8    1  0.1119901E+005  0.1043930E+01  0.7957747E-01            NaN
         13   -1    0    0    0    0  0.00000000000E+00  0.00000000000E+00  0.74505805969E-08  0.10566000000E+00  0.10566000000E+00 0. -1.
     999900   -1    0    0    0    0 -0.00000000000E+00 -0.00000000000E+00 -0.74505805969E-08  0.93827000000E+00  0.93827000000E+00 0. -1.
     999902    2    1    2    0    0 -0.15412349855E-01  0.62519704210E-02  0.17497717103E-01  0.10197887953E+01  0.10195030109E+01 0.  0.
     999903    2    3    3    0    0 -0.56488348352E-01  0.44053132424E-01 -0.10593420955E+00  0.12942279972E+00  0.19914626778E-01 0.  0.
         14    1    1    2    0    0  0.15412349855E-01 -0.62519704210E-02 -0.17497717103E-01  0.24141204734E-01  0.00000000000E+00 0.  1.
     999901    1    3    3    0    0  0.41075998497E-01 -0.37801162002E-01  0.12343192665E+00  0.89036599554E+00  0.88000000000E+00 0.  1.
        -11    1    4    4    0    0 -0.48053757501E-01  0.36980036720E-01 -0.99889903397E-01  0.11685435656E+00  0.51100000000E-03 0.  1.
         11    1    4    4    0    0 -0.84345908512E-02  0.70730957034E-02 -0.60443061515E-02  0.12568443162E-01  0.51100000000E-03 0. -1.
</event>
<event>
 8    1  0.1119901E+005  0.1043930E+01  0.7957747E-01            NaN
         13   -1    0    0    0    0  0.00000000000E+00  0.00000000000E+00  0.74505805969E-08  0.10566000000E+00  0.10566000000E+00 0.  1.
     999900   -1    0    0    0    0 -0.00000000000E+00 -0.00000000000E+00 -0.74505805969E-08  0.93827000000E+00  0.93827000000E+00 0. -1.
     999902    2    1    2    0    0  0.48076959733E-02 -0.21751567840E-01 -0.85490250478E-02  0.10200693530E+01  0.10197902503E+01 0.  0.
     999903    2    3    3    0    0 -0.89700096011E-02  0.58720543089E-01 -0.11359255851E+00  0.13006950488E+00  0.22050929639E-01 0.  0.
         14    1    1    2    0    0 -0.48076959733E-02  0.21751567840E-01  0.85490250478E-02  0.23860646959E-01  0.00000000000E+00 0. -1.
     999901    1    3    3    0    0  0.13777705574E-01 -0.80472110928E-01  0.10504353346E+00  0.88999984816E+00  0.88000000000E+00 0.  1.
        -11    1    4    4    0    0  0.40869871903E-03  0.49358444520E-02 -0.28744147009E-01  0.29172190582E-01  0.51100000000E-03 0.  1.
         11    1    4    4    0    0 -0.93787083201E-02  0.53784698637E-01 -0.84848411499E-01  0.10089731430E+00  0.51100000000E-03 0. -1.
</event>
<event>
 8    1  0.1119901E+005  0.1043930E+01  0.7957747E-01            NaN
         13   -1    0    0    0    0  0.00000000000E+00  0.00000000000E+00  0.74505805969E-08  0.10566000000E+00  0.10566000000E+00 0.  1.
     999900   -1    0    0    0    0 -0.00000000000E+00 -0.00000000000E+00 -0.74505805969E-08  0.93827000000E+00  0.93827000000E+00 0. -1.
     999902    2    1    2    0    0 -0.70687365091E-02 -0.24070314457E-01 -0.38548063785E-02  0.10185487745E+01  0.10182324879E+01 0.  0.
     999903    2    3    3    0    0  0.82087143269E-01 -0.82084900627E-01  0.54178349655E-01  0.13024572360E+00  0.23503721892E-01 0.  0.
         14    1    1    2    0    0  0.70687365091E-02  0.24070314457E-01  0.38548063785E-02  0.25381225465E-01  0.00000000000E+00 0.  1.
     999901    1    3    3    0    0 -0.89155879778E-01  0.58014586170E-01 -0.58033156034E-01  0.88830305094E+00  0.88000000000E+00 0. -1.
        -11    1    4    4    0    0  0.10877559404E-01 -0.13433495503E-01  0.17898558711E-01  0.24887740455E-01  0.51100000000E-03 0.  1.
         11    1    4    4    0    0  0.71209583865E-01 -0.68651405124E-01  0.36279790945E-01  0.10535798314E+00  0.51100000000E-03 0. -1.
</event>
<event>
 8    1  0.1119901E+005  0.1043930E+01  0.7957747E-01            NaN
         13   -1    0    0    0    0  0.00000000000E+00  0.00000000000E+00  0.74505805969E-08  0.10566000000E+00  0.10566000000E+00 0.  1.
     999900   -1    0    0    0    0 -0.00000000000E+00 -0.00000000000E+00 -0.74505805969E-08  0.93827000000E+00  0.93827000000E+00 0.  1.
     999902    2    1    2    0    0 -0.21866502940E-01 -0.89885020430E-02 -0.14331223643E-02  0.10202447523E+01  0.10199697856E+01 0.  0.
     999903    2    3    3    0    0  0.93248575737E-01  0.83252529067E-01 -0.16809871824E-01  0.12783434581E+00  0.20803069583E-01 0.  0.
         14    1    1    2    0    0  0.21866502940E-01  0.89885020430E-02  0.14331223643E-02  0.23685247719E-01  0.00000000000E+00 0. -1.
     999901    1    3    3    0    0 -0.11511507868E+00 -0.92241031110E-01  0.15376749460E-01  0.89241040647E+00  0.88000000000E+00 0. -1.
        -11    1    4    4    0    0  0.32046269620E-01  0.16268673563E-01 -0.63330314680E-02  0.36496596343E-01  0.51100000000E-03 0.  1.
         11    1    4    4    0    0  0.61202306117E-01  0.66983855504E-01 -0.10476840356E-01  0.91337749464E-01  0.51100000000E-03 0. -1.
</event>
<event>
 8    1  0.1119901E+005  0.1043930E+01  0.7957747E-01            NaN
         13   -1    0    0    0    0  0.00000000000E+00  0.00000000000E+00  0.74505805969E-08  0.10566000000E+00  0.10566000000E+00 0.  1.
     999900   -1    0    0    0    0 -0.00000000000E+00 -0.00000000000E+00 -0.74505805969E-08  0.93827000000E+00  0.93827000000E+00 0. -1.
     999902    2    1    2    0    0 -0.26986958207E-02 -0.23307287796E-01 -0.15137983851E-02  0.10204182113E+01  0.10201473039E+01 0.  0.
     999903    2    3    3    0    0 -0.48787279065E-01 -0.51298424128E-01  0.10930591088E+00  0.13183019133E+00  0.20486343696E-01 0.  0.
         14    1    1    2    0    0  0.26986958207E-02  0.23307287796E-01  0.15137983851E-02  0.23511788726E-01  0.00000000000E+00 0. -1.
     999901    1    3    3    0    0  0.46088583244E-01  0.27991136332E-01 -0.11081970926E+00  0.88858801994E+00  0.88000000000E+00 0. -1.
        -11    1    4    4    0    0 -0.23107148639E-01 -0.11619065362E-01  0.46680571329E-01  0.53369278229E-01  0.51100000000E-03 0. -1.
         11    1    4    4    0    0 -0.25680130426E-01 -0.39679358767E-01  0.62625339548E-01  0.78460913105E-01  0.51100000000E-03 0.  1.
</event>
<event>
 8    1  0.1119901E+005  0.1043930E+01  0.7957747E-01            NaN
         13   -1    0    0    0    0  0.00000000000E+00  0.00000000000E+00  0.74505805969E-08  0.10566000000E+00  0.10566000000E+00 0. -1.
     999900   -1    0    0    0    0 -0.00000000000E+00 -0.00000000000E+00 -0.74505805969E-08  0.93827000000E+00  0.93827000000E+00 0. -1.
     999902    2    1    2    0    0 -0.21240182386E-02 -0.15716786478E-01  0.17376389093E-01  0.10204041051E+01  0.10201328688E+01 0.  0.
     999903    2    3    3    0    0 -0.28926883760E-02  0.75465948463E-01  0.10548067228E+00  0.13131623170E+00  0.20354445679E-01 0.  0.
         14    1    1    2    0    0  0.21240182386E-02  0.15716786478E-01 -0.17376389093E-01  0.23525894852E-01  0.00000000000E+00 0.  1.
     999901    1    3    3    0    0  0.76867013740E-03 -0.91182734941E-01 -0.88104283186E-01  0.88908787345E+00  0.88000000000E+00 0.  1.
        -11    1    4    4    0    0 -0.90963839232E-02  0.60425146967E-01  0.90465929234E-01  0.10917091215E+00  0.51100000000E-03 0. -1.
         11    1    4    4    0    0  0.62036955472E-02  0.15040801496E-01  0.15014743045E-01  0.22145319546E-01  0.51100000000E-03 0.  1.
</event>
<event>
 8    1  0.1119901E+005  0.1043930E+01  0.7957747E-01            NaN
         13   -1    0    0    0    0  0.00000000000E+00  0.00000000000E+00  0.74505805969E-08  0.10566000000E+00  0.10566000000E+00 0.  1.
     999900   -1    0    0    0    0 -0.00000000000E+00 -0.00000000000E+00 -0.74505805969E-08  0.93827000000E+00  0.93827000000E+00 0.  1.
     999902    2    1    2    0    0  0.22161178627E-01 -0.88821360293E-02  0.18457766759E-01  0.10137522046E+01  0.10133029325E+01 0.  0.
     999903    2    3    3    0    0  0.20123757751E-01  0.10239473954E+00  0.67252068048E-01  0.12540116032E+00  0.17690733231E-01 0.  0.
         14    1    1    2    0    0 -0.22161178627E-01  0.88821360293E-02 -0.18457766759E-01  0.30177795352E-01  0.00000000000E+00 0. -1.
     999901    1    3    3    0    0  0.20374208765E-02 -0.11127687557E+00 -0.48794301289E-01  0.88835104433E+00  0.88000000000E+00 0. -1.
        -11    1    4    4    0    0 -0.29674594992E-05  0.33409763751E-01  0.27508452295E-01  0.43280346480E-01  0.51100000000E-03 0. -1.
         11    1    4    4    0    0  0.20126725210E-01  0.68984975785E-01  0.39743615753E-01  0.82120813840E-01  0.51100000000E-03 0.  1.
</event>
<event>
 8    1  0.1119901E+005  0.1043930E+01  0.7957747E-01            NaN
         13   -1    0    0    0    0  0.00000000000E+00  0.00000000000E+00  0.74505805969E-08  0.10566000000E+00  0.10566000000E+00 0.  1.
     999900   -1    0    0    0    0 -0.00000000000E+00 -0.00000000000E+00 -0.74505805969E-08  0.93827000000E+00  0.93827000000E+00 0.  1.
     999902    2    1    2    0    0  0.21351599938E-01  0.76508769825E-02 -0.68415459822E-02  0.10202396330E+01  0.10199645460E+01 0.  0.
     999903    2    3    3    0    0 -0.64129559916E-02 -0.35010993695E-01  0.12341391802E+00  0.12919676550E+00  0.13925278085E-01 0.  0.
         14    1    1    2    0    0 -0.21351599938E-01 -0.76508769825E-02  0.68415459822E-02  0.23690367028E-01  0.00000000000E+00 0.  1.
     999901    1    3    3    0    0  0.27764555929E-01  0.42661870677E-01 -0.13025546400E+00  0.89104286748E+00  0.88000000000E+00 0.  1.
        -11    1    4    4    0    0 -0.71484295583E-02 -0.36081232172E-01  0.11988749808E+00  0.12540426100E+00  0.51100000000E-03 0.  1.
         11    1    4    4    0    0  0.73547356670E-03  0.10702384765E-02  0.35264199436E-02  0.37925045000E-02  0.51100000000E-03 0. -1.
</event>
<event>
 8    1  0.1119901E+005  0.1043930E+01  0.7957747E-01            NaN
         13   -1    0    0    0    0  0.00000000000E+00  0.00000000000E+00  0.74505805969E-08  0.10566000000E+00  0.10566000000E+00 0.  1.
     999900   -1    0    0    0    0 -0.00000000000E+00 -0.00000000000E+00 -0.74505805969E-08  0.93827000000E+00  0.93827000000E+00 0.  1.
     999902    2    1    2    0    0 -0.70946446817E-02 -0.27979425177E-03 -0.23093652633E-01  0.10197695145E+01  0.10194832680E+01 0.  0.
     999903    2    3    3    0    0 -0.31055197039E-01 -0.12442405092E+00 -0.15753590417E-01  0.13070271102E+00  0.19729504416E-01 0.  0.
         14    1    1    2    0    0  0.70946446817E-02  0.27979425177E-03  0.23093652633E-01  0.24160485506E-01  0.00000000000E+00 0.  1.
     999901    1    3    3    0    0  0.23960552357E-01  0.12414425667E+00 -0.73400622162E-02  0.88906680348E+00  0.88000000000E+00 0. -1.
        -11    1    4    4    0    0 -0.15847472625E-01 -0.31079907966E-01 -0.43186071161E-03  0.34893419042E-01  0.51100000000E-03 0.  1.
         11    1    4    4    0    0 -0.15207724414E-01 -0.93344142958E-01 -0.15321729705E-01  0.95809291974E-01  0.51100000000E-03 0. -1.
</event>
<event>
 8    1  0.1119901E+005  0.1043930E+01  0.7957747E-01            NaN
         13   -1    0    0    0    0  0.00000000000E+00  0.00000000000E+00  0.74505805969E-08  0.10566000000E+00  0.10566000000E+00 0.  1.
     999900   -1    0    0    0    0 -0.00000000000E+00 -0.00000000000E+00 -0.74505805969E-08  0.93827000000E+00  0.93827000000E+00 0.  1.
     999902    2    1    2    0    0 -0.37612572350E-02  0.79643696117E-02  0.21552399760E-01  0.10206472988E+01  0.10203817052E+01 0.  0.
     999903    2    3    3    0    0 -0.31669688347E-01  0.41344470838E-01 -0.11614648744E+00  0.12887709566E+00  0.20173368937E-01 0.  0.
         14    1    1    2    0    0  0.37612572350E-02 -0.79643696117E-02 -0.21552399760E-01  0.23282701190E-01  0.00000000000E+00 0. -1.
     999901    1    3    3    0    0  0.27908431112E-01 -0.33380101227E-01  0.13769888720E+00  0.89177020315E+00  0.88000000000E+00 0. -1.
        -11    1    4    4    0    0 -0.67802246309E-02  0.17913745780E-01 -0.24778016135E-01  0.31322275436E-01  0.51100000000E-03 0.  1.
         11    1    4    4    0    0 -0.24889463716E-01  0.23430725058E-01 -0.91368471301E-01  0.97554820227E-01  0.51100000000E-03 0. -1.
</event>
<event>
 8    1  0.1119901E+005  0.1043930E+01  0.7957747E-01            NaN
         13   -1    0    0    0    0  0.00000000000E+00  0.00000000000E+00  0.74505805969E-08  0.10566000000E+00  0.10566000000E+00 0. -1.
     999900   -1    0    0    0    0 -0.00000000000E+00 -0.00000000000E+00 -0.74505805969E-08  0.93827000000E+00  0.93827000000E+00 0.  1.
     999902    2    1    2    0    0 -0.72383224747E-02  0.21306957225E-01  0.57565816816E-02  0.10207024738E+01  0.10204381520E+01 0.  0.
     999903    2    3    3    0    0  0.13758219744E-01 -0.77728274504E-01  0.10097453149E+00  0.12979546979E+00  0.20494748158E-01 0.  0.
         14    1    1    2    0    0  0.72383224747E-02 -0.21306957225E-01 -0.57565816816E-02  0.23227526151E-01  0.00000000000E+00 0. -1.
     999901    1    3    3    0    0 -0.20996542219E-01  0.99035231730E-01 -0.95217949805E-01  0.89090700405E+00  0.88000000000E+00 0.  1.
        -11    1    4    4    0    0  0.17551387660E-01 -0.44042470040E-01  0.63708467094E-01  0.79415491414E-01  0.51100000000E-03 0. -1.
         11    1    4    4    0    0 -0.37931679158E-02 -0.33685804464E-01  0.37266064393E-01  0.50379978380E-01  0.51100000000E-03 0.  1.
</event>
<event>
 8    1  0.1119901E+005  0.1043930E+01  0.7957747E-01            NaN
         13   -1    0    0    0    0  0.00000000000E+00  0.00000000000E+00  0.74505805969E-08  0.10566000000E+00  0.10566000000E+00 0.  1.
     999900   -1    0    0    0    0 -0.00000000000E+00 -0.00000000000E+00 -0.74505805969E-08  0.93827000000E+00  0.93827000000E+00 0. -1.
     999902    2    1    2    0    0 -0.28302351814E-01 -0.16925608734E-01  0.55307774236E-02  0.10104921644E+01  0.10099387731E+01 0.  0.
     999903    2    3    3    0    0 -0.35096375928E-01  0.25925285017E-01 -0.11178772288E+00  0.12164685259E+00  0.19939552456E-01 0.  0.
         14    1    1    2    0    0  0.28302351814E-01  0.16925608734E-01 -0.55307774236E-02  0.33437835578E-01  0.00000000000E+00 0. -1.
     999901    1    3    3    0    0  0.67940241144E-02 -0.42850893751E-01  0.11731850030E+00  0.88884531184E+00  0.88000000000E+00 0.  1.
        -11    1    4    4    0    0 -0.20897926559E-01  0.19917665107E-01 -0.47953887813E-01  0.55975648234E-01  0.51100000000E-03 0. -1.
         11    1    4    4    0    0 -0.14198449369E-01  0.60076199103E-02 -0.63833835062E-01  0.65671204353E-01  0.51100000000E-03 0.  1.
</event>
<event>
 8    1  0.1119901E+005  0.1043930E+01  0.7957747E-01            NaN
         13   -1    0    0    0    0  0.00000000000E+00  0.00000000000E+00  0.74505805969E-08  0.10566000000E+00  0.10566000000E+00 0.  1.
     999900   -1    0    0    0    0 -0.00000000000E+00 -0.00000000000E+00 -0.74505805969E-08  0.93827000000E+00  0.93827000000E+00 0. -1.
     999902    2    1    2    0    0  0.48662392911E-02 -0.10154059788E-02  0.23769329738E-01  0.10196464177E+01  0.10193572115E+01 0.  0.
     999903    2    3    3    0    0 -0.11497938032E+00 -0.86058313935E-02  0.58307645432E-01  0.13081939157E+00  0.20484468759E-01 0.  0.
         14    1    1    2    0    0 -0.48662392911E-02  0.10154059788E-02 -0.23769329738E-01  0.24283582321E-01  0.00000000000E+00 0. -1.
     999901    1    3    3    0    0  0.11984561961E+00  0.75904254146E-02 -0.34538315694E-01  0.88882702611E+00  0.88000000000E+00 0. -1.
        -11    1    4    4    0    0 -0.76756080532E-01  0.34787867255E-02  0.34859551131E-01  0.84374446853E-01  0.51100000000E-03 0.  1.
         11    1    4    4    0    0 -0.38223299791E-01 -0.12084618119E-01  0.23448094301E-01  0.46444944712E-01  0.51100000000E-03 0. -1.
</event>
<event>
 8    1  0.1119901E+005  0.1043930E+01  0.7957747E-01            NaN
         13   -1    0    0    0    0  0.00000000000E+00  0.00000000000E+00  0.74505805969E-08  0.10566000000E+00  0.10566000000E+00 0. -1.
     999900   -1    0    0    0    0 -0.00000000000E+00 -0.00000000000E+00 -0.74505805969E-08  0.93827000000E+00  0.93827000000E+00 0.  1.
     999902    2    1    2    0    0  0.81366140420E-02  0.48270964243E-02  0.23172508690E-01  0.10189006071E+01  0.10185931360E+01 0.  0.
     999903    2    3    3    0    0 -0.12293014997E+00 -0.30312767776E-01 -0.30961665845E-03  0.12819037542E+00  0.20049708873E-01 0.  0.
         14    1    1    2    0    0 -0.81366140420E-02 -0.48270964243E-02 -0.23172508690E-01  0.25029392860E-01  0.00000000000E+00 0.  1.
     999901    1    3    3    0    0  0.13106676401E+00  0.35139864200E-01  0.23482125349E-01  0.89071023172E+00  0.88000000000E+00 0.  1.
        -11    1    4    4    0    0 -0.21970824003E-01  0.42044621956E-03 -0.50343843673E-02  0.22549945219E-01  0.51100000000E-03 0. -1.
         11    1    4    4    0    0 -0.10095932596E+00 -0.30733213995E-01  0.47247677089E-02  0.10564043020E+00  0.51100000000E-03 0.  1.
</event>
<event>
 8    1  0.1119901E+005  0.1043930E+01  0.7957747E-01            NaN
         13   -1    0    0    0    0  0.00000000000E+00  0.00000000000E+00  0.74505805969E-08  0.10566000000E+00  0.10566000000E+00 0. -1.
     999900   -1    0    0    0    0 -0.00000000000E+00 -0.00000000000E+00 -0.74505805969E-08  0.93827000000E+00  0.93827000000E+00 0. -1.
     999902    2    1    2    0    0  0.10094192608E-01 -0.18342443338E-01 -0.11343301821E-01  0.10201180608E+01  0.10198401098E+01 0.  0.
     999903    2    3    3    0    0 -0.28347483466E-01  0.12213699678E+00 -0.16723951030E-01  0.12813084849E+00  0.20415631121E-01 0.  0.
         14    1    1    2    0    0 -0.10094192608E-01  0.18342443338E-01  0.11343301821E-01  0.23811939194E-01  0.00000000000E+00 0. -1.
     999901    1    3    3    0    0  0.38441676074E-01 -0.14047944012E+00  0.53806492092E-02  0.89198721232E+00  0.88000000000E+00 0.  1.
        -11    1    4    4    0    0 -0.15051224545E-01  0.36628221705E-01 -0.12342656478E-01  0.41482144056E-01  0.51100000000E-03 0. -1.
         11    1    4    4    0    0 -0.13296258921E-01  0.85508775077E-01 -0.43812945515E-02  0.86648704430E-01  0.51100000000E-03 0.  1.
</event>
<event>
 8    1  0.1119901E+005  0.1043930E+01  0.7957747E-01            NaN
         13   -1    0    0    0    0  0.00000000000E+00  0.00000000000E+00  0.74505805969E-08  0.10566000000E+00  0.10566000000E+00 0. -1.
     999900   -1    0    0    0    0 -0.00000000000E+00 -0.00000000000E+00 -0.74505805969E-08  0.93827000000E+00  0.93827000000E+00 0.  1.
     999902    2    1    2    0    0  0.21012881212E-01  0.68586966261E-02 -0.11769709120E-01  0.10188878565E+01  0.10185800682E+01 0.  0.
     999903    2    3    3    0    0  0.75748707622E-01  0.10500615732E+00 -0.12213772018E-01  0.13174123285E+00  0.21033697336E-01 0.  0.
         14    1    1    2    0    0 -0.21012881212E-01 -0.68586966261E-02  0.11769709120E-01  0.25042143459E-01  0.00000000000E+00 0. -1.
     999901    1    3    3    0    0 -0.54735826410E-01 -0.98147460698E-01  0.44406289799E-03  0.88714662369E+00  0.88000000000E+00 0.  1.
        -11    1    4    4    0    0  0.38893594651E-01  0.61401451180E-01  0.26814824847E-02  0.72734458004E-01  0.51100000000E-03 0. -1.
         11    1    4    4    0    0  0.36855112972E-01  0.43604706144E-01 -0.14895254502E-01  0.59006774846E-01  0.51100000000E-03 0.  1.
</event>
<event>
 8    1  0.1119901E+005  0.1043930E+01  0.7957747E-01            NaN
         13   -1    0    0    0    0  0.00000000000E+00  0.00000000000E+00  0.74505805969E-08  0.10566000000E+00  0.10566000000E+00 0. -1.
     999900   -1    0    0    0    0 -0.00000000000E+00 -0.00000000000E+00 -0.74505805969E-08  0.93827000000E+00  0.93827000000E+00 0.  1.
     999902    2    1    2    0    0 -0.12233683626E-02  0.18072760800E-02  0.23317977895E-01  0.10205101159E+01  0.10202413468E+01 0.  0.
     999903    2    3    3    0    0  0.68029923348E-01  0.91466387024E-01 -0.59932026777E-01  0.12935056912E+00  0.12064471452E-01 0.  0.
         14    1    1    2    0    0  0.12233683626E-02 -0.18072760800E-02 -0.23317977895E-01  0.23419884075E-01  0.00000000000E+00 0.  1.
     999901    1    3    3    0    0 -0.69253291711E-01 -0.89659110944E-01  0.83250004672E-01  0.89115954681E+00  0.88000000000E+00 0.  1.
        -11    1    4    4    0    0  0.31025641349E-01  0.51770878669E-01 -0.31532562480E-01  0.68098295991E-01  0.51100000000E-03 0. -1.
         11    1    4    4    0    0  0.37004281999E-01  0.39695508355E-01 -0.28399464297E-01  0.61252273126E-01  0.51100000000E-03 0.  1.
</event>
<event>
 8    1  0.1119901E+005  0.1043930E+01  0.7957747E-01            NaN
         13   -1    0    0    0    0  0.00000000000E+00  0.00000000000E+00  0.74505805969E-08  0.10566000000E+00  0.10566000000E+00 0.  1.
     999900   -1    0    0    0    0 -0.00000000000E+00 -0.00000000000E+00 -0.74505805969E-08  0.93827000000E+00  0.93827000000E+00 0. -1.
     999902    2    1    2    0    0 -0.54726172700E-02 -0.12108320436E-01 -0.19283226893E-01  0.10205119770E+01  0.10202432511E+01 0.  0.
     999903    2    3    3    0    0  0.16698026385E-01  0.12538455241E+00  0.14507825123E-01  0.12891920965E+00  0.20237973199E-01 0.  0.
         14    1    1    2    0    0  0.54726172700E-02  0.12108320436E-01  0.19283226893E-01  0.23418023038E-01  0.00000000000E+00 0. -1.
     999901    1    3    3    0    0 -0.22170643655E-01 -0.13749287285E+00 -0.33791052016E-01  0.89159276731E+00  0.88000000000E+00 0. -1.
        -11    1    4    4    0    0 -0.10896770055E-02  0.64414584891E-01  0.40779711958E-02  0.64554760574E-01  0.51100000000E-03 0.  1.
         11    1    4    4    0    0  0.17787703390E-01  0.60969967519E-01  0.10429853927E-01  0.64364449078E-01  0.51100000000E-03 0. -1.
</event>
<event>
 8    1  0.1119901E+005  0.1043930E+01  0.7957747E-01            NaN
         13   -1    0    0    0    0  0.00000000000E+00  0.00000000000E+00  0.74505805969E-08  0.10566000000E+00  0.10566000000E+00 0.  1.
     999900   -1    0    0    0    0 -0.00000000000E+00 -0.00000000000E+00 -0.74505805969E-08  0.93827000000E+00  0.93827000000E+00 0.  1.
     999902    2    1    2    0    0 -0.15630806685E-01 -0.16443210086E-01 -0.87981416293E-02  0.10195967188E+01  0.10193063134E+01 0.  0.
     999903    2    3    3    0    0 -0.21384577009E-01  0.97708347940E-01  0.77225066693E-01  0.12804544357E+00  0.20680988928E-01 0.  0.
         14    1    1    2    0    0  0.15630806685E-01  0.16443210086E-01  0.87981416293E-02  0.24333281153E-01  0.00000000000E+00 0.  1.
     999901    1    3    3    0    0  0.57537703240E-02 -0.11415155803E+00 -0.86023208322E-01  0.89155127527E+00  0.88000000000E+00 0.  1.
        -11    1    4    4    0    0 -0.24030723117E-01  0.72871040094E-01  0.53090025099E-01  0.93308499205E-01  0.51100000000E-03 0. -1.
         11    1    4    4    0    0  0.26461461082E-02  0.24837307846E-01  0.24135041594E-01  0.34736944367E-01  0.51100000000E-03 0.  1.
</event>
<event>
 8    1  0.1119901E+005  0.1043930E+01  0.7957747E-01            NaN
         13   -1    0    0    0    0  0.00000000000E+00  0.00000000000E+00  0.74505805969E-08  0.10566000000E+00  0.10566000000E+00 0. -1.
     999900   -1    0    0    0    0 -0.00000000000E+00 -0.00000000000E+00 -0.74505805969E-08  0.93827000000E+00  0.93827000000E+00 0.  1.
     999902    2    1    2    0    0 -0.16518401552E-01 -0.13325574695E-01  0.90256146016E-02  0.10208672541E+01  0.10206067118E+01 0.  0.
     999903    2    3    3    0    0 -0.22603785320E-01  0.68267102032E-01 -0.10601304549E+00  0.12961628487E+00  0.19755686713E-01 0.  0.
         14    1    1    2    0    0  0.16518401552E-01  0.13325574695E-01 -0.90256146016E-02  0.23062745928E-01  0.00000000000E+00 0.  1.
     999901    1    3    3    0    0  0.60853837671E-02 -0.81592676727E-01  0.11503866009E+00  0.89125096920E+00  0.88000000000E+00 0. -1.
        -11    1    4    4    0    0 -0.73774964037E-02  0.33453064443E-01 -0.34431561901E-01  0.48572919922E-01  0.51100000000E-03 0. -1.
         11    1    4    4    0    0 -0.15226288916E-01  0.34814037588E-01 -0.71581483592E-01  0.81043364945E-01  0.51100000000E-03 0.  1.
</event>
<event>
 8    1  0.1119901E+005  0.1043930E+01  0.7957747E-01            NaN
         13   -1    0    0    0    0  0.00000000000E+00  0.00000000000E+00  0.74505805969E-08  0.10566000000E+00  0.10566000000E+00 0.  1.
     999900   -1    0    0    0    0 -0.00000000000E+00 -0.00000000000E+00 -0.74505805969E-08  0.93827000000E+00  0.93827000000E+00 0.  1.
     999902    2    1    2    0    0  0.23737635333E-01  0.39062035480E-02 -0.86854892112E-03  0.10198574402E+01  0.10195732981E+01 0.  0.
     999903    2    3    3    0    0  0.76861040679E-01  0.85188238989E-01 -0.62966119480E-01  0.13234125797E+00  0.19616847916E-01 0.  0.
         14    1    1    2    0    0 -0.23737635333E-01 -0.39062035480E-02  0.86854892112E-03  0.24072559785E-01  0.00000000000E+00 0. -1.
     999901    1    3    3    0    0 -0.53123405346E-01 -0.81282035441E-01  0.62097570559E-01  0.88751618225E+00  0.88000000000E+00 0. -1.
        -11    1    4    4    0    0  0.32250526603E-01  0.47206185405E-01 -0.24187862299E-01  0.62079257488E-01  0.51100000000E-03 0.  1.
         11    1    4    4    0    0  0.44610514076E-01  0.37982053583E-01 -0.38778257181E-01  0.70262000480E-01  0.51100000000E-03 0. -1.
</event>
<event>
 8    1  0.1119901E+005  0.1043930E+01  0.7957747E-01            NaN
         13   -1    0    0    0    0  0.00000000000E+00  0.00000000000E+00  0.74505805969E-08  0.10566000000E+00  0.10566000000E+00 0. -1.
     999900   -1    0    0    0    0 -0.00000000000E+00 -0.00000000000E+00 -0.74505805969E-08  0.93827000000E+00  0.93827000000E+00 0.  1.
     999902    2    1    2    0    0 -0.15463966314E-01  0.15745972123E-01 -0.56687089671E-02  0.10211439483E+01  0.10208896899E+01 0.  0.
     999903    2    3    3    0    0 -0.16027438666E-01 -0.10192384838E+00 -0.77268241094E-01  0.13042906843E+00  0.19900028954E-01 0.  0.
         14    1    1    2    0    0  0.15463966314E-01 -0.15745972123E-01  0.56687089671E-02  0.22786051734E-01  0.00000000000E+00 0. -1.
     999901    1    3    3    0    0  0.56347235178E-03  0.11766982050E+00  0.71599532127E-01  0.89071487983E+00  0.88000000000E+00 0.  1.
        -11    1    4    4    0    0 -0.16983406876E-01 -0.68456199443E-01 -0.60762115577E-01  0.93096633460E-01  0.51100000000E-03 0.  1.
         11    1    4    4    0    0  0.95596821064E-03 -0.33467648933E-01 -0.16506125517E-01  0.37332434972E-01  0.51100000000E-03 0. -1.
</event>
<event>
 8    1  0.1119901E+005  0.1043930E+01  0.7957747E-01            NaN
         13   -1    0    0    0    0  0.00000000000E+00  0.00000000000E+00  0.74505805969E-08  0.10566000000E+00  0.10566000000E+00 0. -1.
     999900   -1    0    0    0    0 -0.00000000000E+00 -0.00000000000E+00 -0.74505805969E-08  0.93827000000E+00  0.93827000000E+00 0.  1.
     999902    2    1    2    0    0  0.22876664886E-01 -0.72257571115E-02  0.53270196414E-02  0.10193550025E+01  0.10190587278E+01 0.  0.
     999903    2    3    3    0    0 -0.10312121359E+00 -0.44851414532E-01  0.57795333276E-01  0.12803907683E+00  0.20200756664E-01 0.  0.
         14    1    1    2    0    0 -0.22876664886E-01  0.72257571115E-02 -0.53270196414E-02  0.24574997465E-01  0.00000000000E+00 0.  1.
     999901    1    3    3    0    0  0.12599787848E+00  0.37625657421E-01 -0.52468313635E-01  0.89131592570E+00  0.88000000000E+00 0.  1.
        -11    1    4    4    0    0 -0.79593577288E-01 -0.43438513809E-01  0.45994467762E-01  0.10167494388E+00  0.51100000000E-03 0. -1.
         11    1    4    4    0    0 -0.23527636301E-01 -0.14129007229E-02  0.11800865515E-01  0.26364132951E-01  0.51100000000E-03 0.  1.
</event>
<event>
 8    1  0.1119901E+005  0.1043930E+01  0.7957747E-01            NaN
         13   -1    0    0    0    0  0.00000000000E+00  0.00000000000E+00  0.74505805969E-08  0.10566000000E+00  0.10566000000E+00 0. -1.
     999900   -1    0    0    0    0 -0.00000000000E+00 -0.00000000000E+00 -0.74505805969E-08  0.93827000000E+00  0.93827000000E+00 0.  1.
     999902    2    1    2    0    0 -0.84653428935E-02  0.12796338234E-01  0.17803468669E-01  0.10204274087E+01  0.10201567157E+01 0.  0.
     999903    2    3    3    0    0 -0.39478957738E-01  0.44843276132E-01  0.11786716775E+00  0.13363453860E+00  0.19900079299E-01 0.  0.
         14    1    1    2    0    0  0.84653428935E-02 -0.12796338234E-01 -0.17803468669E-01  0.23502591329E-01  0.00000000000E+00 0.  1.
     999901    1    3    3    0    0  0.31013614845E-01 -0.32046937898E-01 -0.10006369908E+00  0.88679287007E+00  0.88000000000E+00 0.  1.
        -11    1    4    4    0    0 -0.15304181269E-01  0.10988299420E-01  0.55943849389E-01  0.59033347304E-01  0.51100000000E-03 0.  1.
         11    1    4    4    0    0 -0.24174776469E-01  0.33854976712E-01  0.61923318358E-01  0.74601191298E-01  0.51100000000E-03 0. -1.
</event>
<event>
 8    1  0.1119901E+005  0.1043930E+01  0.7957747E-01            NaN
         13   -1    0    0    0    0  0.00000000000E+00  0.00000000000E+00  0.74505805969E-08  0.10566000000E+00  0.10566000000E+00 0. -1.
     999900   -1    0    0    0    0 -0.00000000000E+00 -0.00000000000E+00 -0.74505805969E-08  0.93827000000E+00  0.93827000000E+00 0.  1.
     999902    2    1    2    0    0  0.45054789573E-02  0.19139732794E-01 -0.11126236291E-01  0.10213374825E+01  0.10210875728E+01 0.  0.
     999903    2    3    3    0    0  0.54552828429E-01  0.91463898426E-01 -0.79383029525E-01  0.13432310161E+00  0.19984354979E-01 0.  0.
         14    1    1    2    0    0 -0.45054789573E-02 -0.19139732794E-01  0.11126236291E-01  0.22592517480E-01  0.00000000000E+00 0. -1.
     999901    1    3    3    0    0 -0.50047349472E-01 -0.72324165631E-01  0.68256793234E-01  0.88701438091E+00  0.88000000000E+00 0. -1.
        -11    1    4    4    0    0  0.10196687379E-01  0.68743615090E-02 -0.51007957338E-02  0.13323232257E-01  0.51100000000E-03 0.  1.
         11    1    4    4    0    0  0.44356141050E-01  0.84589536917E-01 -0.74282233792E-01  0.12099986935E+00  0.51100000000E-03 0. -1.
</event>
<event>
 8    1  0.1119901E+005  0.1043930E+01  0.7957747E-01            NaN
         13   -1    0    0    0    0  0.00000000000E+00  0.00000000000E+00  0.74505805969E-08  0.10566000000E+00  0.10566000000E+00 0.  1.
     999900   -1    0    0    0    0 -0.00000000000E+00 -0.00000000000E+00 -0.74505805969E-08  0.93827000000E+00  0.93827000000E+00 0.  1.
     999902    2    1    2    0    0  0.22092561810E-01 -0.14592437555E-01  0.44544914736E-02  0.10170811077E+01  0.10167266677E+01 0.  0.
     999903    2    3    3    0    0 -0.10359464737E+00 -0.67310007430E-01  0.18168185227E-01  0.12648328486E+00  0.20135797261E-01 0.  0.
         14    1    1    2    0    0 -0.22092561810E-01  0.14592437555E-01 -0.44544914736E-02  0.26848892257E-01  0.00000000000E+00 0.  1.
     999901    1    3    3    0    0  0.12568720918E+00  0.52717569875E-01 -0.13713693753E-01  0.89059782288E+00  0.88000000000E+00 0. -1.
        -11    1    4    4    0    0 -0.21603870080E-01 -0.16403157172E-01 -0.40969666248E-02  0.27437875722E-01  0.51100000000E-03 0. -1.
         11    1    4    4    0    0 -0.81990777289E-01 -0.50906850258E-01  0.22265151852E-01  0.99045409140E-01  0.51100000000E-03 0.  1.
</event>
<event>
 8    1  0.1119901E+005  0.1043930E+01  0.7957747E-01            NaN
         13   -1    0    0    0    0  0.00000000000E+00  0.00000000000E+00  0.74505805969E-08  0.10566000000E+00  0.10566000000E+00 0. -1.
     999900   -1    0    0    0    0 -0.00000000000E+00 -0.00000000000E+00 -0.74505805969E-08  0.93827000000E+00  0.93827000000E+00 0.  1.
     999902    2    1    2    0    0  0.10826297736E-01  0.12762597962E-01  0.18455933953E-01  0.10190158649E+01  0.10187112539E+01 0.  0.
     999903    2    3    3    0    0 -0.73616796072E-01  0.12837961228E-01  0.10541264560E+00  0.13070729719E+00  0.19705983211E-01 0.  0.
         14    1    1    2    0    0 -0.10826297736E-01 -0.12762597962E-01 -0.18455933953E-01  0.24914135094E-01  0.00000000000E+00 0. -1.
     999901    1    3    3    0    0  0.84443093808E-01 -0.75363265609E-04 -0.86956711648E-01  0.88830856771E+00  0.88000000000E+00 0.  1.
        -11    1    4    4    0    0 -0.23141694122E-01 -0.42313582115E-02  0.39148818805E-01  0.45676400187E-01  0.51100000000E-03 0. -1.
         11    1    4    4    0    0 -0.50475101951E-01  0.17069319439E-01  0.66263826796E-01  0.85030897006E-01  0.51100000000E-03 0.  1.
</event>
<event>
 8    1  0.1119901E+005  0.1043930E+01  0.7957747E-01            NaN
         13   -1    0    0    0    0  0.00000000000E+00  0.00000000000E+00  0.74505805969E-08  0.10566000000E+00  0.10566000000E+00 0. -1.
     999900   -1    0    0    0    0 -0.00000000000E+00 -0.00000000000E+00 -0.74505805969E-08  0.93827000000E+00  0.93827000000E+00 0.  1.
     999902    2    1    2    0    0 -0.73886310002E-02 -0.47081181064E-02  0.19175384561E-01  0.10228479314E+01  0.10226306455E+01 0.  0.
     999903    2    3    3    0    0 -0.12916898968E-01  0.33732075643E-01 -0.12375730330E+00  0.13047022912E+00  0.20047727053E-01 0.  0.
         14    1    1    2    0    0  0.73886310002E-02  0.47081181064E-02 -0.19175384561E-01  0.21082068619E-01  0.00000000000E+00 0. -1.
     999901    1    3    3    0    0  0.55282679680E-02 -0.38440193749E-01  0.14293268786E+00  0.89237770227E+00  0.88000000000E+00 0. -1.
        -11    1    4    4    0    0 -0.44919254802E-02 -0.13750477015E-02 -0.21853333073E-01  0.22358386304E-01  0.51100000000E-03 0.  1.
         11    1    4    4    0    0 -0.84249734879E-02  0.35107123344E-01 -0.10190397022E+00  0.10811184281E+00  0.51100000000E-03 0. -1.
</event>
<event>
 8    1  0.1119901E+005  0.1043930E+01  0.7957747E-01            NaN
         13   -1    0    0    0    0  0.00000000000E+00  0.00000000000E+00  0.74505805969E-08  0.10566000000E+00  0.10566000000E+00 0. -1.
     999900   -1    0    0    0    0 -0.00000000000E+00 -0.00000000000E+00 -0.74505805969E-08  0.93827000000E+00  0.93827000000E+00 0. -1.
     999902    2    1    2    0    0 -0.93366719675E-02  0.10171673654E-01  0.20645786238E-01  0.10190928327E+01  0.10187901240E+01 0.  0.
     999903    2    3    3    0    0 -0.94346103354E-01  0.21966127688E-01  0.87967184091E-01  0.13235844005E+00  0.19920672446E-01 0.  0.
         14    1    1    2    0    0  0.93366719675E-02 -0.10171673654E-01 -0.20645786238E-01  0.24837167265E-01  0.00000000000E+00 0.  1.
     999901    1    3    3    0    0  0.85009431386E-01 -0.11794454033E-01 -0.67321397853E-01  0.88673439269E+00  0.88000000000E+00 0. -1.
        -11    1    4    4    0    0 -0.28462824088E-01  0.12233617924E-01  0.18332308524E-01  0.36001783558E-01  0.51100000000E-03 0. -1.
         11    1    4    4    0    0 -0.65883279265E-01  0.97325097643E-02  0.69634875567E-01  0.96356656487E-01  0.51100000000E-03 0.  1.
</event>
<event>
 8    1  0.1119901E+005  0.1043930E+01  0.7957747E-01            NaN
         13   -1    0    0    0    0  0.00000000000E+00  0.00000000000E+00  0.74505805969E-08  0.10566000000E+00  0.10566000000E+00 0.  1.
     999900   -1    0    0    0    0 -0.00000000000E+00 -0.00000000000E+00 -0.74505805969E-08  0.93827000000E+00  0.93827000000E+00 0. -1.
     999902    2    1    2    0    0  0.48784463344E-02  0.20537477561E-01 -0.11366784857E-01  0.10199552003E+01  0.10196733887E+01 0.  0.
     999903    2    3    3    0    0  0.40123676269E-01  0.95932739243E-01 -0.80577885984E-01  0.13332289305E+00  0.21660984420E-01 0.  0.
         14    1    1    2    0    0 -0.48784463344E-02 -0.20537477561E-01  0.11366784857E-01  0.23974799711E-01  0.00000000000E+00 0. -1.
     999901    1    3    3    0    0 -0.35245229935E-01 -0.75395261682E-01  0.69211101127E-01  0.88663230724E+00  0.88000000000E+00 0. -1.
        -11    1    4    4    0    0  0.26489314291E-01  0.35706310013E-01 -0.33241152633E-01  0.55514499869E-01  0.51100000000E-03 0. -1.
         11    1    4    4    0    0  0.13634361978E-01  0.60226429230E-01 -0.47336733350E-01  0.77808393182E-01  0.51100000000E-03 0.  1.
</event>
<event>
 8    1  0.1119901E+005  0.1043930E+01  0.7957747E-01            NaN
         13   -1    0    0    0    0  0.00000000000E+00  0.00000000000E+00  0.74505805969E-08  0.10566000000E+00  0.10566000000E+00 0. -1.
     999900   -1    0    0    0    0 -0.00000000000E+00 -0.00000000000E+00 -0.74505805969E-08  0.93827000000E+00  0.93827000000E+00 0.  1.
     999902    2    1    2    0    0  0.18602409056E-01  0.11276890001E-01 -0.99027150251E-02  0.10200285014E+01  0.10197484308E+01 0.  0.
     999903    2    3    3    0    0 -0.11987056475E+00  0.35977654702E-01  0.19996509707E-01  0.12835655729E+00  0.20302745325E-01 0.  0.
         14    1    1    2    0    0 -0.18602409056E-01 -0.11276890001E-01  0.99027150251E-02  0.23901498607E-01  0.00000000000E+00 0. -1.
     999901    1    3    3    0    0  0.13847297381E+00 -0.24700764701E-01 -0.29899224733E-01  0.89167194410E+00  0.88000000000E+00 0.  1.
        -11    1    4    4    0    0 -0.10460929001E+00  0.26527657599E-01  0.11632352574E-01  0.10854673151E+00  0.51100000000E-03 0. -1.
         11    1    4    4    0    0 -0.15261274743E-01  0.94499971029E-02  0.83641571338E-02  0.19809825784E-01  0.51100000000E-03 0.  1.
</event>
<event>
 8    1  0.1119901E+005  0.1043930E+01  0.7957747E-01            NaN
         13   -1    0    0    0    0  0.00000000000E+00  0.00000000000E+00  0.74505805969E-08  0.10566000000E+00  0.10566000000E+00 0.  1.
     999900   -1    0    0    0    0 -0.00000000000E+00 -0.00000000000E+00 -0.74505805969E-08  0.93827000000E+00  0.93827000000E+00 0. -1.
     999902    2    1    2    0    0 -0.19998180557E-02 -0.84807561715E-02 -0.21956355831E-01  0.10203078905E+01  0.10200344050E+01 0.  0.
     999903    2    3    3    0    0 -0.10352461138E+00  0.13528869659E-01  0.73477532131E-01  0.12907316591E+00  0.18988389942E-01 0.  0.
         14    1    1    2    0    0  0.19998180557E-02  0.84807561715E-02  0.21956355831E-01  0.23622109535E-01  0.00000000000E+00 0.  1.
     999901    1    3    3    0    0  0.10152479333E+00 -0.22009625831E-01 -0.95433887962E-01  0.89123472456E+00  0.88000000000E+00 0. -1.
        -11    1    4    4    0    0 -0.81326414524E-01  0.37205298815E-02  0.51546863070E-01  0.96359577912E-01  0.51100000000E-03 0.  1.
         11    1    4    4    0    0 -0.22198196859E-01  0.98083397779E-02  0.21930669061E-01  0.32713587994E-01  0.51100000000E-03 0. -1.
</event>
<event>
 8    1  0.1144600E+005  0.1043930E+01  0.7957747E-01            NaN
         13   -1    0    0    0    0  0.00000000000E+00  0.00000000000E+00  0.74505805969E-08  0.10566000000E+00  0.10566000000E+00 0. -1.
     999900   -1    0    0    0    0 -0.00000000000E+00 -0.00000000000E+00 -0.74505805969E-08  0.93827000000E+00  0.93827000000E+00 0. -1.
     999902    2    1    2    0    0 -0.58899275854E-02 -0.23123193744E-01  0.55568419443E-02  0.10194299627E+01  0.10191355145E+01 0.  0.
     999903    2    3    3    0    0 -0.11661779087E+00  0.50574677649E-01  0.13156043976E-01  0.12940199468E+00  0.20354055307E-01 0.  0.
         14    1    1    2    0    0  0.58899275854E-02  0.23123193744E-01 -0.55568419443E-02  0.24500037312E-01  0.00000000000E+00 0.  1.
     999901    1    3    3    0    0  0.11072786329E+00 -0.73697871393E-01 -0.75992020315E-02  0.89002796800E+00  0.88000000000E+00 0. -1.
        -11    1    4    4    0    0 -0.67859712708E-01  0.39209592873E-01  0.12248628380E-01  0.79326053729E-01  0.51100000000E-03 0. -1.
         11    1    4    4    0    0 -0.48758078167E-01  0.11365084776E-01  0.90741559570E-03  0.50075940955E-01  0.51100000000E-03 0.  1.
</event>
<event>
 7    1  0.1119901E+005  0.1043930E+01  0.7957747E-01            NaN
         13   -1    0    0    0    0  0.00000000000E+00  0.00000000000E+00  0.74505805969E-08  0.10566000000E+00  0.10566000000E+00 0. -1.
     999900   -1    0    0    0    0 -0.00000000000E+00 -0.00000000000E+00 -0.74505805969E-08  0.93827000000E+00  0.93827000000E+00 0. -1.
     999903    2    1    2    0    0 -0.89819477007E-01 -0.24834977443E-01  0.55779343298E-01  0.11046065529E+00  0.20147125686E-01 0.  0.
         14    1    1    2    0    0  0.33439146986E-01 -0.24842958507E-01  0.21525292885E-01  0.46890162852E-01  0.00000000000E+00 0. -1.
     999901    1    1    2    0    0  0.56380330021E-01  0.49677935950E-01 -0.77304636183E-01  0.88657918186E+00  0.88000000000E+00 0. -1.
        -11    1    3    3    0    0 -0.16678495255E-01 -0.23087900783E-02  0.20919961576E-02  0.16974695418E-01  0.51100000000E-03 0.  1.
         11    1    3    3    0    0 -0.73140981751E-01 -0.22526187365E-01  0.53687347140E-01  0.93485959870E-01  0.51100000000E-03 0. -1.
</event>
<event>
 8    1  0.1119901E+005  0.1043930E+01  0.7957747E-01            NaN
         13   -1    0    0    0    0  0.00000000000E+00  0.00000000000E+00  0.74505805969E-08  0.10566000000E+00  0.10566000000E+00 0.  1.
     999900   -1    0    0    0    0 -0.00000000000E+00 -0.00000000000E+00 -0.74505805969E-08  0.93827000000E+00  0.93827000000E+00 0. -1.
     999902    2    1    2    0    0 -0.92617092028E-02  0.18731980177E-01  0.13539418648E-01  0.10190305583E+01  0.10187263109E+01 0.  0.
     999903    2    3    3    0    0 -0.11054321988E-01 -0.12336767371E+00 -0.65612533869E-02  0.12740307887E+00  0.29098342035E-01 0.  0.
         14    1    1    2    0    0  0.92617092028E-02 -0.18731980177E-01 -0.13539418648E-01  0.24899441681E-01  0.00000000000E+00 0.  1.
     999901    1    3    3    0    0  0.17926127847E-02  0.14209965388E+00  0.20100672035E-01  0.89162747945E+00  0.88000000000E+00 0. -1.
        -11    1    4    4    0    0 -0.84592500861E-02 -0.10545301179E+00  0.50124223803E-02  0.10591167125E+00  0.51100000000E-03 0. -1.
         11    1    4    4    0    0 -0.25950719014E-02 -0.17914661913E-01 -0.11573675767E-01  0.21491407618E-01  0.51100000000E-03 0.  1.
</event>
<event>
 8    1  0.1119901E+005  0.1043930E+01  0.7957747E-01            NaN
         13   -1    0    0    0    0  0.00000000000E+00  0.00000000000E+00  0.74505805969E-08  0.10566000000E+00  0.10566000000E+00 0.  1.
     999900   -1    0    0    0    0 -0.00000000000E+00 -0.00000000000E+00 -0.74505805969E-08  0.93827000000E+00  0.93827000000E+00 0.  1.
     999902    2    1    2    0    0  0.12287154599E-01  0.19149186731E-01 -0.10110518696E-01  0.10190324477E+01  0.10187282471E+01 0.  0.
     999903    2    3    3    0    0  0.17211007045E-01  0.46165420013E-01 -0.12051988009E+00  0.13170818442E+00  0.19863020360E-01 0.  0.
         14    1    1    2    0    0 -0.12287154599E-01 -0.19149186731E-01  0.10110518696E-01  0.24897552267E-01  0.00000000000E+00 0.  1.
     999901    1    3    3    0    0 -0.49238524467E-02 -0.27016233282E-01  0.11040936139E+00  0.88732426331E+00  0.88000000000E+00 0. -1.
        -11    1    4    4    0    0  0.10163158892E-01  0.44776818667E-01 -0.10374072109E+00  0.11344889432E+00  0.51100000000E-03 0. -1.
         11    1    4    4    0    0  0.70478481537E-02  0.13886013455E-02 -0.16779158998E-01  0.18259290101E-01  0.51100000000E-03 0.  1.
</event>
<event>
 8    1  0.1119901E+005  0.1043930E+01  0.7957747E-01            NaN
         13   -1    0    0    0    0  0.00000000000E+00  0.00000000000E+00  0.74505805969E-08  0.10566000000E+00  0.10566000000E+00 0. -1.
     999900   -1    0    0    0    0 -0.00000000000E+00 -0.00000000000E+00 -0.74505805969E-08  0.93827000000E+00  0.93827000000E+00 0. -1.
     999902    2    1    2    0    0 -0.10089039767E-02 -0.18485108408E-01 -0.16206561185E-01  0.10193257372E+01  0.10190287478E+01 0.  0.
     999903    2    3    3    0    0 -0.11219390368E+00 -0.30718757421E-01  0.53463059825E-01  0.12951360965E+00  0.19605158451E-01 0.  0.
         14    1    1    2    0    0  0.10089039767E-02  0.18485108408E-01  0.16206561185E-01  0.24604262751E-01  0.00000000000E+00 0. -1.
     999901    1    3    3    0    0  0.11118499971E+00  0.12233649013E-01 -0.69669621010E-01  0.88981212760E+00  0.88000000000E+00 0.  1.
        -11    1    4    4    0    0 -0.68811962092E-01 -0.12539098003E-01  0.40038253502E-01  0.80595520782E-01  0.51100000000E-03 0. -1.
         11    1    4    4    0    0 -0.43381941592E-01 -0.18179659418E-01  0.13424806323E-01  0.48918088869E-01  0.51100000000E-03 0.  1.
</event>
<event>
 8    1  0.1119901E+005  0.1043930E+01  0.7957747E-01            NaN
         13   -1    0    0    0    0  0.00000000000E+00  0.00000000000E+00  0.74505805969E-08  0.10566000000E+00  0.10566000000E+00 0. -1.
     999900   -1    0    0    0    0 -0.00000000000E+00 -0.00000000000E+00 -0.74505805969E-08  0.93827000000E+00  0.93827000000E+00 0.  1.
     999902    2    1    2    0    0  0.15525917742E-01 -0.75384109605E-02  0.14455782303E-01  0.10214166394E+01  0.10211684973E+01 0.  0.
     999903    2    3    3    0    0  0.19935253651E-01  0.21007196543E-01  0.12893064170E+00  0.13353219461E+00  0.19209892798E-01 0.  0.
         14    1    1    2    0    0 -0.15525917742E-01  0.75384109605E-02 -0.14455782303E-01  0.22513360556E-01  0.00000000000E+00 0. -1.
     999901    1    3    3    0    0 -0.44093359096E-02 -0.28545607503E-01 -0.11447485940E+00  0.88788444484E+00  0.88000000000E+00 0.  1.
        -11    1    4    4    0    0  0.95910053236E-02  0.20427622194E-01  0.66025378399E-01  0.69777409276E-01  0.51100000000E-03 0.  1.
         11    1    4    4    0    0  0.10344248328E-01  0.57957434828E-03  0.62905263305E-01  0.63754785330E-01  0.51100000000E-03 0. -1.
</event>
<event>
 8    1  0.1119901E+005  0.1043930E+01  0.7957747E-01            NaN
         13   -1    0    0    0    0  0.00000000000E+00  0.00000000000E+00  0.74505805969E-08  0.10566000000E+00  0.10566000000E+00 0. -1.
     999900   -1    0    0    0    0 -0.00000000000E+00 -0.00000000000E+00 -0.74505805969E-08  0.93827000000E+00  0.93827000000E+00 0. -1.
     999902    2    1    2    0    0 -0.18716039234E-01 -0.30863778660E-02 -0.14116468982E-01  0.10202849043E+01  0.10200108801E+01 0.  0.
     999903    2    3    3    0    0  0.70823841523E-02  0.38718439436E-01 -0.12442046306E+00  0.13203934565E+00  0.20116149103E-01 0.  0.
         14    1    1    2    0    0  0.18716039234E-01  0.30863778660E-02  0.14116468982E-01  0.23645095674E-01  0.00000000000E+00 0. -1.
     999901    1    3    3    0    0 -0.25798423386E-01 -0.41804817302E-01  0.11030399408E+00  0.88824555868E+00  0.88000000000E+00 0.  1.
        -11    1    4    4    0    0  0.13058466733E-02  0.33778889027E-01 -0.78197605697E-01  0.85192988192E-01  0.51100000000E-03 0.  1.
         11    1    4    4    0    0  0.57765374790E-02  0.49395504082E-02 -0.46222857360E-01  0.46846357457E-01  0.51100000000E-03 0. -1.
</event>
<event>
 8    1  0.1119901E+005  0.1043930E+01  0.7957747E-01            NaN
         13   -1    0    0    0    0  0.00000000000E+00  0.00000000000E+00  0.74505805969E-08  0.10566000000E+00  0.10566000000E+00 0. -1.
     999900   -1    0    0    0    0 -0.00000000000E+00 -0.00000000000E+00 -0.74505805969E-08  0.93827000000E+00  0.93827000000E+00 0.  1.
     999902    2    1    2    0    0  0.14841728793E-01  0.61913738654E-02  0.14687072975E-01  0.10221511080E+01  0.10219190611E+01 0.  0.
     999903    2    3    3    0    0  0.82303619145E-01  0.10229290187E+00 -0.15942866726E-01  0.13382413918E+00  0.20420620230E-01 0.  0.
         14    1    1    2    0    0 -0.14841728793E-01 -0.61913738654E-02 -0.14687072975E-01  0.21778891994E-01  0.00000000000E+00 0.  1.
     999901    1    3    3    0    0 -0.67461890352E-01 -0.96101528006E-01  0.30629939701E-01  0.88832696882E+00  0.88000000000E+00 0. -1.
        -11    1    4    4    0    0  0.76374657599E-01  0.83686701747E-01 -0.12480600259E-01  0.11398499408E+00  0.51100000000E-03 0.  1.
         11    1    4    4    0    0  0.59289615462E-02  0.18606200125E-01 -0.34622664673E-02  0.19839145097E-01  0.51100000000E-03 0. -1.
</event>
<event>
 8    1  0.1269476E+005  0.1043930E+01  0.7957747E-01            NaN
         13   -1    0    0    0    0  0.00000000000E+00  0.00000000000E+00  0.74505805969E-08  0.10566000000E+00  0.10566000000E+00 0.  1.
     999900   -1    0    0    0    0 -0.00000000000E+00 -0.00000000000E+00 -0.74505805969E-08  0.93827000000E+00  0.93827000000E+00 0. -1.
     999902    2    1    2    0    0  0.90964418154E-02  0.99750750022E-02 -0.20207657542E-01  0.10196278026E+01  0.10193381475E+01 0.  0.
     999903    2    3    3    0    0 -0.54832228507E-01  0.52897991394E-01 -0.10621952651E+00  0.13208777914E+00  0.18968996027E-01 0.  0.
         14    1    1    2    0    0 -0.90964418154E-02 -0.99750750022E-02  0.20207657542E-01  0.24302197398E-01  0.00000000000E+00 0.  1.
     999901    1    3    3    0    0  0.63928670323E-01 -0.42922916392E-01  0.86011868967E-01  0.88754002346E+00  0.88000000000E+00 0.  1.
        -11    1    4    4    0    0 -0.23287001084E-01  0.32042056518E-01 -0.43384931438E-01  0.58749393207E-01  0.51100000000E-03 0.  1.
         11    1    4    4    0    0 -0.31545227423E-01  0.20855934877E-01 -0.62834595071E-01  0.73338385935E-01  0.51100000000E-03 0. -1.
</event>
<event>
 8    1  0.1119901E+005  0.1043930E+01  0.7957747E-01            NaN
         13   -1    0    0    0    0  0.00000000000E+00  0.00000000000E+00  0.74505805969E-08  0.10566000000E+00  0.10566000000E+00 0. -1.
     999900   -1    0    0    0    0 -0.00000000000E+00 -0.00000000000E+00 -0.74505805969E-08  0.93827000000E+00  0.93827000000E+00 0. -1.
     999902    2    1    2    0    0 -0.15872235608E-01 -0.75127979717E-02  0.15843531414E-01  0.10202786262E+01  0.10200044547E+01 0.  0.
     999903    2    3    3    0    0  0.11744377583E+00  0.30418780400E-01 -0.35312641348E-01  0.12796202453E+00  0.20222621006E-01 0.  0.
         14    1    1    2    0    0  0.15872235608E-01  0.75127979717E-02 -0.15843531414E-01  0.23651373834E-01  0.00000000000E+00 0.  1.
     999901    1    3    3    0    0 -0.13331601144E+00 -0.37931578371E-01  0.51156172762E-01  0.89231660164E+00  0.88000000000E+00 0. -1.
        -11    1    4    4    0    0  0.64411558001E-01  0.13435962222E-01 -0.91434805764E-02  0.66432207874E-01  0.51100000000E-03 0.  1.
         11    1    4    4    0    0  0.53032217830E-01  0.16982818178E-01 -0.26169160772E-01  0.61529816656E-01  0.51100000000E-03 0. -1.
</event>
<event>
 8    1  0.1119901E+005  0.1043930E+01  0.7957747E-01            NaN
         13   -1    0    0    0    0  0.00000000000E+00  0.00000000000E+00  0.74505805969E-08  0.10566000000E+00  0.10566000000E+00 0.  1.
     999900   -1    0    0    0    0 -0.00000000000E+00 -0.00000000000E+00 -0.74505805969E-08  0.93827000000E+00  0.93827000000E+00 0. -1.
     999902    2    1    2    0    0  0.91536986716E-02  0.20964302238E-01 -0.55789166958E-02  0.10203839498E+01  0.10201122431E+01 0.  0.
     999903    2    3    3    0    0 -0.61633189067E-01 -0.49899890629E-01  0.99160449715E-01  0.12853034514E+00  0.19965113416E-01 0.  0.
         14    1    1    2    0    0 -0.91536986716E-02 -0.20964302238E-01  0.55789166958E-02  0.23546050183E-01  0.00000000000E+00 0.  1.
     999901    1    3    3    0    0  0.70786887739E-01  0.70864192867E-01 -0.10473936641E+00  0.89185360468E+00  0.88000000000E+00 0. -1.
        -11    1    4    4    0    0 -0.10266425566E-01 -0.19355558739E-01  0.29415091028E-01  0.36681682747E-01  0.51100000000E-03 0.  1.
         11    1    4    4    0    0 -0.51366763501E-01 -0.30544331891E-01  0.69745358687E-01  0.91848662389E-01  0.51100000000E-03 0. -1.
</event>
<event>
 8    1  0.1119901E+005  0.1043930E+01  0.7957747E-01            NaN
         13   -1    0    0    0    0  0.00000000000E+00  0.00000000000E+00  0.74505805969E-08  0.10566000000E+00  0.10566000000E+00 0. -1.
     999900   -1    0    0    0    0 -0.00000000000E+00 -0.00000000000E+00 -0.74505805969E-08  0.93827000000E+00  0.93827000000E+00 0. -1.
     999902    2    1    2    0    0  0.23116459656E-01  0.39726617685E-02 -0.78172319223E-02  0.10192062894E+01  0.10189063738E+01 0.  0.
     999903    2    3    3    0    0 -0.92636636313E-01 -0.39802569587E-01 -0.76208634985E-01  0.12791933559E+00  0.19743592330E-01 0.  0.
         14    1    1    2    0    0 -0.23116459656E-01 -0.39726617685E-02  0.78172319223E-02  0.24723710553E-01  0.00000000000E+00 0. -1.
     999901    1    3    3    0    0  0.11575309597E+00  0.43775231355E-01  0.68391403062E-01  0.89128695386E+00  0.88000000000E+00 0.  1.
        -11    1    4    4    0    0 -0.62311010339E-01 -0.24530533669E-01 -0.38796620990E-01  0.77394108385E-01  0.51100000000E-03 0.  1.
         11    1    4    4    0    0 -0.30325625974E-01 -0.15272035918E-01 -0.37412013994E-01  0.50525227203E-01  0.51100000000E-03 0. -1.
</event>
<event>
 8    1  0.1119901E+005  0.1043930E+01  0.7957747E-01            NaN
         13   -1    0    0    0    0  0.00000000000E+00  0.00000000000E+00  0.74505805969E-08  0.10566000000E+00  0.10566000000E+00 0. -1.
     999900   -1    0    0    0    0 -0.00000000000E+00 -0.00000000000E+00 -0.74505805969E-08  0.93827000000E+00  0.93827000000E+00 0.  1.
     999902    2    1    2    0    0 -0.82058797994E-04  0.15989214197E-01  0.16435673260E-01  0.10209998221E+01  0.10207423003E+01 0.  0.
     999903    2    3    3    0    0  0.88536932990E-01  0.30764985128E-01 -0.87503191927E-01  0.13033998981E+00  0.23375875014E-01 0.  0.
         14    1    1    2    0    0  0.82058797994E-04 -0.15989214197E-01 -0.16435673260E-01  0.22930177927E-01  0.00000000000E+00 0.  1.
     999901    1    3    3    0    0 -0.88618991788E-01 -0.14775770931E-01  0.10393886519E+00  0.89065983226E+00  0.88000000000E+00 0. -1.
        -11    1    4    4    0    0  0.10216306276E-01  0.11890719907E-01 -0.18587578515E-01  0.24321211522E-01  0.51100000000E-03 0.  1.
         11    1    4    4    0    0  0.78320626714E-01  0.18874265221E-01 -0.68915613412E-01  0.10601877829E+00  0.51100000000E-03 0. -1.
</event>
<event>
 8    1  0.1119901E+005  0.1043930E+01  0.7957747E-01            NaN
         13   -1    0    0    0    0  0.00000000000E+00  0.00000000000E+00  0.74505805969E-08  0.10566000000E+00  0.10566000000E+00 0. -1.
     999900   -1    0    0    0    0 -0.00000000000E+00 -0.00000000000E+00 -0.74505805969E-08  0.93827000000E+00  0.93827000000E+00 0. -1.
     999902    2    1    2    0    0 -0.21708247622E-01  0.11117339148E-01 -0.94557403185E-03  0.10195222685E+01  0.10192300617E+01 0.  0.
     999903    2    3    3    0    0 -0.10159262614E+00  0.47921105221E-01 -0.67610915339E-01  0.13262864535E+00  0.20040650786E-01 0.  0.
         14    1    1    2    0    0  0.21708247622E-01 -0.11117339148E-01  0.94557403185E-03  0.24407731455E-01  0.00000000000E+00 0.  1.
     999901    1    3    3    0    0  0.79884378516E-01 -0.36803766073E-01  0.66665341307E-01  0.88689362319E+00  0.88000000000E+00 0.  1.
        -11    1    4    4    0    0 -0.80147859333E-01  0.33593574196E-01 -0.42940274819E-01  0.96934699182E-01  0.51100000000E-03 0.  1.
         11    1    4    4    0    0 -0.21444766805E-01  0.14327531025E-01 -0.24670640520E-01  0.35693946171E-01  0.51100000000E-03 0. -1.
</event>
<event>
 8    1  0.1119901E+005  0.1043930E+01  0.7957747E-01            NaN
         13   -1    0    0    0    0  0.00000000000E+00  0.00000000000E+00  0.74505805969E-08  0.10566000000E+00  0.10566000000E+00 0.  1.
     999900   -1    0    0    0    0 -0.00000000000E+00 -0.00000000000E+00 -0.74505805969E-08  0.93827000000E+00  0.93827000000E+00 0. -1.
     999902    2    1    2    0    0  0.14240697216E-01 -0.13741159123E-01 -0.12247256997E-01  0.10206574364E+01  0.10203920768E+01 0.  0.
     999903    2    3    3    0    0 -0.10872544161E+00  0.56982148957E-01 -0.34404977681E-01  0.12902218466E+00  0.19870447732E-01 0.  0.
         14    1    1    2    0    0 -0.14240697216E-01  0.13741159123E-01  0.12247256997E-01  0.23272563571E-01  0.00000000000E+00 0. -1.
     999901    1    3    3    0    0  0.12296613883E+00 -0.70723308080E-01  0.22157720684E-01  0.89163525176E+00  0.88000000000E+00 0. -1.
        -11    1    4    4    0    0 -0.61714227765E-01  0.42268007281E-01 -0.16458497252E-01  0.76592255489E-01  0.51100000000E-03 0.  1.
         11    1    4    4    0    0 -0.47011213846E-01  0.14714141676E-01 -0.17946480428E-01  0.52429929175E-01  0.51100000000E-03 0. -1.
</event>
<event>
 8    1  0.1119901E+005  0.1043930E+01  0.7957747E-01            NaN
         13   -1    0    0    0    0  0.00000000000E+00  0.00000000000E+00  0.74505805969E-08  0.10566000000E+00  0.10566000000E+00 0.  1.
     999900   -1    0    0    0    0 -0.00000000000E+00 -0.00000000000E+00 -0.74505805969E-08  0.93827000000E+00  0.93827000000E+00 0. -1.
     999902    2    1    2    0    0  0.10337323241E-02  0.17562204528E-01 -0.15112566458E-01  0.10207375595E+01  0.10204740448E+01 0.  0.
     999903    2    3    3    0    0 -0.20015225861E-01  0.58018660966E-01 -0.11706764462E+00  0.13367802292E+00  0.19955102308E-01 0.  0.
         14    1    1    2    0    0 -0.10337323241E-02 -0.17562204528E-01  0.15112566458E-01  0.23192440478E-01  0.00000000000E+00 0.  1.
     999901    1    3    3    0    0  0.21048958185E-01 -0.40456456437E-01  0.10195507817E+00  0.88705953660E+00  0.88000000000E+00 0.  1.
        -11    1    4    4    0    0 -0.13212087899E-01  0.55576031567E-01 -0.10064761266E+00  0.11573010674E+00  0.51100000000E-03 0.  1.
         11    1    4    4    0    0 -0.68031379620E-02  0.24426293985E-02 -0.16420031967E-01  0.17947916183E-01  0.51100000000E-03 0. -1.
</event>
<event>
 8    1  0.1119901E+005  0.1043930E+01  0.7957747E-01            NaN
         13   -1    0    0    0    0  0.00000000000E+00  0.00000000000E+00  0.74505805969E-08  0.10566000000E+00  0.10566000000E+00 0.  1.
     999900   -1    0    0    0    0 -0.00000000000E+00 -0.00000000000E+00 -0.74505805969E-08  0.93827000000E+00  0.93827000000E+00 0.  1.
     999902    2    1    2    0    0  0.18314123676E-01  0.10827241952E-01 -0.10574722110E-01  0.10201716111E+01  0.10198949236E+01 0.  0.
     999903    2    3    3    0    0 -0.12621544422E+00 -0.39167633768E-02  0.60793481870E-02  0.12810460705E+00  0.20691845694E-01 0.  0.
         14    1    1    2    0    0 -0.18314123676E-01 -0.10827241952E-01  0.10574722110E-01  0.23758388876E-01  0.00000000000E+00 0. -1.
     999901    1    3    3    0    0  0.14452956790E+00  0.14744005329E-01 -0.16654070297E-01  0.89206700407E+00  0.88000000000E+00 0. -1.
        -11    1    4    4    0    0 -0.50698156436E-01 -0.19361358574E-02  0.12599788849E-01  0.52278747958E-01  0.51100000000E-03 0. -1.
         11    1    4    4    0    0 -0.75517287789E-01 -0.19806275194E-02 -0.65204406621E-02  0.75825859097E-01  0.51100000000E-03 0.  1.
</event>
<event>
 8    1  0.1119901E+005  0.1043930E+01  0.7957747E-01            NaN
         13   -1    0    0    0    0  0.00000000000E+00  0.00000000000E+00  0.74505805969E-08  0.10566000000E+00  0.10566000000E+00 0.  1.
     999900   -1    0    0    0    0 -0.00000000000E+00 -0.00000000000E+00 -0.74505805969E-08  0.93827000000E+00  0.93827000000E+00 0. -1.
     999902    2    1    2    0    0 -0.13566158387E-01  0.17755576303E-01 -0.84511719187E-02  0.10200401810E+01  0.10197603873E+01 0.  0.
     999903    2    3    3    0    0  0.84734432909E-01  0.96155218658E-01  0.16685982093E-01  0.13074754828E+00  0.19767376827E-01 0.  0.
         14    1    1    2    0    0  0.13566158387E-01 -0.17755576303E-01  0.84511719187E-02  0.23889818962E-01  0.00000000000E+00 0.  1.
     999901    1    3    3    0    0 -0.98300591296E-01 -0.78399642355E-01 -0.25137154011E-01  0.88929263276E+00  0.88000000000E+00 0.  1.
        -11    1    4    4    0    0  0.11130933414E-01  0.12179577958E-01 -0.44509800624E-02  0.17097138428E-01  0.51100000000E-03 0.  1.
         11    1    4    4    0    0  0.73603499495E-01  0.83975640700E-01  0.21136962155E-01  0.11365040985E+00  0.51100000000E-03 0. -1.
</event>
<event>
 8    1  0.1237464E+005  0.1043930E+01  0.7957747E-01            NaN
         13   -1    0    0    0    0  0.00000000000E+00  0.00000000000E+00  0.74505805969E-08  0.10566000000E+00  0.10566000000E+00 0.  1.
     999900   -1    0    0    0    0 -0.00000000000E+00 -0.00000000000E+00 -0.74505805969E-08  0.93827000000E+00  0.93827000000E+00 0.  1.
     999902    2    1    2    0    0 -0.19221920449E-01  0.12284323239E-01 -0.69105525649E-02  0.10200942588E+01  0.10198157452E+01 0.  0.
     999903    2    3    3    0    0 -0.15682936295E-01 -0.11605128569E+00 -0.51943341466E-01  0.12963903530E+00  0.19857324854E-01 0.  0.
         14    1    1    2    0    0  0.19221920449E-01 -0.12284323239E-01  0.69105525649E-02  0.23835741229E-01  0.00000000000E+00 0.  1.
     999901    1    3    3    0    0 -0.35389841547E-02  0.12833560893E+00  0.45032788901E-01  0.89045522347E+00  0.88000000000E+00 0. -1.
        -11    1    4    4    0    0 -0.19349152513E-01 -0.73216158311E-01 -0.34962476709E-01  0.83412417777E-01  0.51100000000E-03 0. -1.
         11    1    4    4    0    0  0.36662162186E-02 -0.42835127378E-01 -0.16980864757E-01  0.46226617524E-01  0.51100000000E-03 0.  1.
</event>
<event>
 7    1  0.1119901E+005  0.1043930E+01  0.7957747E-01            NaN
         13   -1    0    0    0    0  0.00000000000E+00  0.00000000000E+00  0.74505805969E-08  0.10566000000E+00  0.10566000000E+00 0.  1.
     999900   -1    0    0    0    0 -0.00000000000E+00 -0.00000000000E+00 -0.74505805969E-08  0.93827000000E+00  0.93827000000E+00 0.  1.
     999903    2    1    2    0    0  0.80719914085E-01 -0.83442839517E-02  0.18219877848E-01  0.85559026318E-01  0.20076140844E-01 0.  0.
         14    1    1    2    0    0 -0.51307645499E-01  0.45201511180E-01 -0.35279399382E-01  0.76943402059E-01  0.00000000000E+00 0. -1.
     999901    1    1    2    0    0 -0.29412268586E-01 -0.36857227228E-01  0.17059521534E-01  0.88142757162E+00  0.88000000000E+00 0. -1.
        -11    1    3    3    0    0  0.53735442627E-01  0.27931674014E-02  0.16618368986E-01  0.56318122191E-01  0.51100000000E-03 0. -1.
         11    1    3    3    0    0  0.26984471458E-01 -0.11137451353E-01  0.16015088620E-02  0.29240904127E-01  0.51100000000E-03 0.  1.
</event>
<event>
 8    1  0.1119901E+005  0.1043930E+01  0.7957747E-01            NaN
         13   -1    0    0    0    0  0.00000000000E+00  0.00000000000E+00  0.74505805969E-08  0.10566000000E+00  0.10566000000E+00 0.  1.
     999900   -1    0    0    0    0 -0.00000000000E+00 -0.00000000000E+00 -0.74505805969E-08  0.93827000000E+00  0.93827000000E+00 0.  1.
     999902    2    1    2    0    0  0.12254970326E-01  0.23437861204E-02 -0.20274215577E-01  0.10201240880E+01  0.10198462793E+01 0.  0.
     999903    2    3    3    0    0  0.67191143354E-01  0.56834256021E-01  0.92873210702E-01  0.12951220027E+00  0.20079699926E-01 0.  0.
         14    1    1    2    0    0 -0.12254970326E-01 -0.23437861204E-02  0.20274215577E-01  0.23805912046E-01  0.00000000000E+00 0.  1.
     999901    1    3    3    0    0 -0.54936173028E-01 -0.54490469901E-01 -0.11314742628E+00  0.89061188769E+00  0.88000000000E+00 0.  1.
        -11    1    4    4    0    0  0.11649470825E-01  0.10570769941E-01  0.29242369204E-01  0.33208863656E-01  0.51100000000E-03 0.  1.
         11    1    4    4    0    0  0.55541672529E-01  0.46263486080E-01  0.63630841497E-01  0.96303336610E-01  0.51100000000E-03 0. -1.
</event>
<event>
 8    1  0.1119901E+005  0.1043930E+01  0.7957747E-01            NaN
         13   -1    0    0    0    0  0.00000000000E+00  0.00000000000E+00  0.74505805969E-08  0.10566000000E+00  0.10566000000E+00 0. -1.
     999900   -1    0    0    0    0 -0.00000000000E+00 -0.00000000000E+00 -0.74505805969E-08  0.93827000000E+00  0.93827000000E+00 0. -1.
     999902    2    1    2    0    0  0.95383756055E-02 -0.17666688614E-02  0.22067778279E-01  0.10198242213E+01  0.10195392851E+01 0.  0.
     999903    2    3    3    0    0  0.81212105211E-01 -0.94038072446E-01  0.42609277906E-01  0.13186414977E+00  0.11577492379E-01 0.  0.
         14    1    1    2    0    0 -0.95383756055E-02  0.17666688614E-02 -0.22067778279E-01  0.24105778690E-01  0.00000000000E+00 0. -1.
     999901    1    3    3    0    0 -0.71673729606E-01  0.92271403585E-01 -0.20541499627E-01  0.88796007154E+00  0.88000000000E+00 0. -1.
        -11    1    4    4    0    0  0.95808265415E-02 -0.70753983701E-02  0.19185943911E-02  0.12074585904E-01  0.51100000000E-03 0.  1.
         11    1    4    4    0    0  0.71631278670E-01 -0.86962674076E-01  0.40690683515E-01  0.11978956387E+00  0.51100000000E-03 0. -1.
</event>
<event>
 8    1  0.1119901E+005  0.1043930E+01  0.7957747E-01            NaN
         13   -1    0    0    0    0  0.00000000000E+00  0.00000000000E+00  0.74505805969E-08  0.10566000000E+00  0.10566000000E+00 0. -1.
     999900   -1    0    0    0    0 -0.00000000000E+00 -0.00000000000E+00 -0.74505805969E-08  0.93827000000E+00  0.93827000000E+00 0.  1.
     999902    2    1    2    0    0  0.34826067881E-02  0.24173482219E-03  0.23314060357E-01  0.10203560229E+01  0.10200836638E+01 0.  0.
     999903    2    3    3    0    0  0.13288480736E-01  0.12140467989E+00 -0.39446323197E-01  0.12978571116E+00  0.19303843821E-01 0.  0.
         14    1    1    2    0    0 -0.34826067881E-02 -0.24173482219E-03 -0.23314060357E-01  0.23573977095E-01  0.00000000000E+00 0.  1.
     999901    1    3    3    0    0 -0.98058739476E-02 -0.12116294507E+00  0.62760383554E-01  0.89057031175E+00  0.88000000000E+00 0. -1.
        -11    1    4    4    0    0 -0.26163407612E-02  0.24176245489E-02 -0.12232603124E-02  0.38010043712E-02  0.51100000000E-03 0.  1.
         11    1    4    4    0    0  0.15904821497E-01  0.11898705535E+00 -0.38223062884E-01  0.12598470679E+00  0.51100000000E-03 0. -1.
</event>
<event>
 8    1  0.1119901E+005  0.1043930E+01  0.7957747E-01            NaN
         13   -1    0    0    0    0  0.00000000000E+00  0.00000000000E+00  0.74505805969E-08  0.10566000000E+00  0.10566000000E+00 0.  1.
     999900   -1    0    0    0    0 -0.00000000000E+00 -0.00000000000E+00 -0.74505805969E-08  0.93827000000E+00  0.93827000000E+00 0.  1.
     999902    2    1    2    0    0 -0.16014995987E-01 -0.57337205170E-03  0.15932639897E-01  0.10213322597E+01  0.10210822332E+01 0.  0.
     999903    2    3    3    0    0 -0.91405330748E-01  0.91204140325E-01 -0.25166271547E-01  0.13240260284E+00  0.14965905013E-01 0.  0.
         14    1    1    2    0    0  0.16014995987E-01  0.57337205170E-03 -0.15932639897E-01  0.22597740287E-01  0.00000000000E+00 0. -1.
     999901    1    3    3    0    0  0.75390334760E-01 -0.91777512377E-01  0.41098911444E-01  0.88892965688E+00  0.88000000000E+00 0.  1.
        -11    1    4    4    0    0 -0.80455325370E-01  0.72476801946E-01 -0.20722713624E-01  0.11025261077E+00  0.51100000000E-03 0.  1.
         11    1    4    4    0    0 -0.10950005378E-01  0.18727338379E-01 -0.44435579231E-02  0.22149992067E-01  0.51100000000E-03 0. -1.
</event>
<event>
 8    1  0.1119901E+005  0.1043930E+01  0.7957747E-01            NaN
         13   -1    0    0    0    0  0.00000000000E+00  0.00000000000E+00  0.74505805969E-08  0.10566000000E+00  0.10566000000E+00 0. -1.
     999900   -1    0    0    0    0 -0.00000000000E+00 -0.00000000000E+00 -0.74505805969E-08  0.93827000000E+00  0.93827000000E+00 0. -1.
     999902    2    1    2    0    0 -0.10347175570E-01 -0.21159323066E-01 -0.54073285218E-02  0.10197634902E+01  0.10194770992E+01 0.  0.
     999903    2    3    3    0    0 -0.12549862812E+00  0.17394668092E-01 -0.24330612138E-01  0.13122291265E+00  0.23979032095E-01 0.  0.
         14    1    1    2    0    0  0.10347175570E-01  0.21159323066E-01  0.54073285218E-02  0.24166509814E-01  0.00000000000E+00 0.  1.
     999901    1    3    3    0    0  0.11515145255E+00 -0.38553991158E-01  0.18923283616E-01  0.88854057753E+00  0.88000000000E+00 0. -1.
        -11    1    4    4    0    0 -0.30569898777E-01  0.93596542141E-02 -0.15533204050E-01  0.35548043368E-01  0.51100000000E-03 0.  1.
         11    1    4    4    0    0 -0.94928729343E-01  0.80350138781E-02 -0.87974080877E-02  0.95674869285E-01  0.51100000000E-03 0. -1.
</event>
<event>
 8    1  0.1119901E+005  0.1043930E+01  0.7957747E-01            NaN
         13   -1    0    0    0    0  0.00000000000E+00  0.00000000000E+00  0.74505805969E-08  0.10566000000E+00  0.10566000000E+00 0.  1.
     999900   -1    0    0    0    0 -0.00000000000E+00 -0.00000000000E+00 -0.74505805969E-08  0.93827000000E+00  0.93827000000E+00 0. -1.
     999902    2    1    2    0    0 -0.14117439677E-01 -0.18156927633E-01  0.95355709913E-04  0.10209303214E+01  0.10206712183E+01 0.  0.
     999903    2    3    3    0    0 -0.19210793120E-02  0.97658393986E-01  0.82534925469E-01  0.12943818872E+00  0.20034428238E-01 0.  0.
         14    1    1    2    0    0  0.14117439677E-01  0.18156927633E-01 -0.95355709913E-04  0.22999678624E-01  0.00000000000E+00 0. -1.
     999901    1    3    3    0    0 -0.12196360365E-01 -0.11581532162E+00 -0.82439569759E-01  0.89149213266E+00  0.88000000000E+00 0.  1.
        -11    1    4    4    0    0  0.47129374962E-02  0.42521531984E-01  0.25387247607E-01  0.49750034413E-01  0.51100000000E-03 0. -1.
         11    1    4    4    0    0 -0.66340168082E-02  0.55136862002E-01  0.57147677862E-01  0.79688154305E-01  0.51100000000E-03 0.  1.
</event>
<event>
 8    1  0.1119901E+005  0.1043930E+01  0.7957747E-01            NaN
         13   -1    0    0    0    0  0.00000000000E+00  0.00000000000E+00  0.74505805969E-08  0.10566000000E+00  0.10566000000E+00 0.  1.
     999900   -1    0    0    0    0 -0.00000000000E+00 -0.00000000000E+00 -0.74505805969E-08  0.93827000000E+00  0.93827000000E+00 0.  1.
     999902    2    1    2    0    0  0.12609203385E-01 -0.18882587758E-01 -0.87055795442E-02  0.10196126966E+01  0.10193226770E+01 0.  0.
     999903    2    3    3    0    0  0.67942897943E-01 -0.20659856623E-01 -0.10957881388E+00  0.13212163418E+00  0.20138091005E-01 0.  0.
         14    1    1    2    0    0 -0.12609203385E-01  0.18882587758E-01  0.87055795442E-02  0.24317303420E-01  0.00000000000E+00 0.  1.
     999901    1    3    3    0    0 -0.55333694558E-01  0.17772688648E-02  0.10087323434E+00  0.88749106240E+00  0.88000000000E+00 0. -1.
        -11    1    4    4    0    0  0.98838101752E-02 -0.11117780510E-01 -0.24818998461E-01  0.28940258338E-01  0.51100000000E-03 0.  1.
         11    1    4    4    0    0  0.58059087768E-01 -0.95420761131E-02 -0.84759815421E-01  0.10318137584E+00  0.51100000000E-03 0. -1.
</event>
<event>
 8    1  0.1119901E+005  0.1043930E+01  0.7957747E-01            NaN
         13   -1    0    0    0    0  0.00000000000E+00  0.00000000000E+00  0.74505805969E-08  0.10566000000E+00  0.10566000000E+00 0.  1.
     999900   -1    0    0    0    0 -0.00000000000E+00 -0.00000000000E+00 -0.74505805969E-08  0.93827000000E+00  0.93827000000E+00 0. -1.
     999902    2    1    2    0    0  0.13416412090E-01 -0.74288963320E-03 -0.19140174683E-01  0.10205441435E+01  0.10202761638E+01 0.  0.
     999903    2    3    3    0    0  0.31686129815E-01 -0.56597139441E-01 -0.11483819888E+00  0.13340740563E+00  0.20061827922E-01 0.  0.
         14    1    1    2    0    0 -0.13416412090E-01  0.74288963320E-03  0.19140174683E-01  0.23385856522E-01  0.00000000000E+00 0.  1.
     999901    1    3    3    0    0 -0.18269717725E-01  0.55854249808E-01  0.95698024194E-01  0.88713673785E+00  0.88000000000E+00 0.  1.
        -11    1    4    4    0    0  0.24928653343E-01 -0.54900312379E-01 -0.96565470018E-01  0.11384477668E+00  0.51100000000E-03 0. -1.
         11    1    4    4    0    0  0.67574764729E-02 -0.16968270614E-02 -0.18272728859E-01  0.19562628947E-01  0.51100000000E-03 0.  1.
</event>
<event>
 8    1  0.1119901E+005  0.1043930E+01  0.7957747E-01            NaN
         13   -1    0    0    0    0  0.00000000000E+00  0.00000000000E+00  0.74505805969E-08  0.10566000000E+00  0.10566000000E+00 0.  1.
     999900   -1    0    0    0    0 -0.00000000000E+00 -0.00000000000E+00 -0.74505805969E-08  0.93827000000E+00  0.93827000000E+00 0. -1.
     999902    2    1    2    0    0  0.11546229359E-01 -0.20088197034E-02 -0.20445336057E-01  0.10203638689E+01  0.10200916931E+01 0.  0.
     999903    2    3    3    0    0 -0.54778731660E-03 -0.70342272696E-01  0.10585461016E+00  0.12864227419E+00  0.19882173396E-01 0.  0.
         14    1    1    2    0    0 -0.11546229359E-01  0.20088197034E-02  0.20445336057E-01  0.23566131110E-01  0.00000000000E+00 0.  1.
     999901    1    3    3    0    0  0.12094016676E-01  0.68333452992E-01 -0.12629994621E+00  0.89172159470E+00  0.88000000000E+00 0. -1.
        -11    1    4    4    0    0  0.82611089097E-02 -0.51979181456E-01  0.79167757494E-01  0.95067745176E-01  0.51100000000E-03 0. -1.
         11    1    4    4    0    0 -0.88088962263E-02 -0.18363091240E-01  0.26686852663E-01  0.33574529016E-01  0.51100000000E-03 0.  1.
</event>
<event>
 8    1  0.1119901E+005  0.1043930E+01  0.7957747E-01            NaN
         13   -1    0    0    0    0  0.00000000000E+00  0.00000000000E+00  0.74505805969E-08  0.10566000000E+00  0.10566000000E+00 0.  1.
     999900   -1    0    0    0    0 -0.00000000000E+00 -0.00000000000E+00 -0.74505805969E-08  0.93827000000E+00  0.93827000000E+00 0. -1.
     999902    2    1    2    0    0 -0.83808461098E-02  0.21270295866E-01  0.93142641717E-02  0.10192435749E+01  0.10189445742E+01 0.  0.
     999903    2    3    3    0    0  0.10950105912E+00  0.26256052382E-01 -0.58948480833E-01  0.12874887883E+00  0.20530177150E-01 0.  0.
         14    1    1    2    0    0  0.83808461098E-02 -0.21270295866E-01 -0.93142641717E-02  0.24686425112E-01  0.00000000000E+00 0. -1.
     999901    1    3    3    0    0 -0.11788190523E+00 -0.49857565159E-02  0.68262745004E-01  0.89049469606E+00  0.88000000000E+00 0.  1.
        -11    1    4    4    0    0  0.48186701274E-01  0.14871584436E-01 -0.37326021733E-01  0.62742451520E-01  0.51100000000E-03 0. -1.
         11    1    4    4    0    0  0.61314357842E-01  0.11384467946E-01 -0.21622459099E-01  0.66006427312E-01  0.51100000000E-03 0.  1.
</event>
<event>
 8    1  0.1119901E+005  0.1043930E+01  0.7957747E-01            NaN
         13   -1    0    0    0    0  0.00000000000E+00  0.00000000000E+00  0.74505805969E-08  0.10566000000E+00  0.10566000000E+00 0.  1.
     999900   -1    0    0    0    0 -0.00000000000E+00 -0.00000000000E+00 -0.74505805969E-08  0.93827000000E+00  0.93827000000E+00 0. -1.
     999902    2    1    2    0    0  0.10668527194E-01  0.21818904720E-01 -0.33239948812E-02  0.10194161056E+01  0.10191213202E+01 0.  0.
     999903    2    3    3    0    0 -0.72162429498E-01 -0.34327570307E-01  0.97837561645E-01  0.12798632456E+00  0.20555108646E-01 0.  0.
         14    1    1    2    0    0 -0.10668527194E-01 -0.21818904720E-01  0.33239948812E-02  0.24513894379E-01  0.00000000000E+00 0. -1.
     999901    1    3    3    0    0  0.82830956692E-01  0.56146475027E-01 -0.10116155653E+00  0.89142978106E+00  0.88000000000E+00 0.  1.
        -11    1    4    4    0    0 -0.28407836066E-01 -0.18122671503E-01  0.55769321273E-01  0.65160683611E-01  0.51100000000E-03 0.  1.
         11    1    4    4    0    0 -0.43754593432E-01 -0.16204898804E-01  0.42068240371E-01  0.62825640949E-01  0.51100000000E-03 0. -1.
</event>
<event>
 8    1  0.1119901E+005  0.1043930E+01  0.7957747E-01            NaN
         13   -1    0    0    0    0  0.00000000000E+00  0.00000000000E+00  0.74505805969E-08  0.10566000000E+00  0.10566000000E+00 0.  1.
     999900   -1    0    0    0    0 -0.00000000000E+00 -0.00000000000E+00 -0.74505805969E-08  0.93827000000E+00  0.93827000000E+00 0.  1.
     999902    2    1    2    0    0  0.59422377742E-02  0.20114437417E-01 -0.11031831997E-01  0.10202318545E+01  0.10199565848E+01 0.  0.
     999903    2    3    3    0    0 -0.40699069158E-01 -0.11110275885E+00 -0.46217777624E-01  0.12858651309E+00  0.19954225756E-01 0.  0.
         14    1    1    2    0    0 -0.59422377742E-02 -0.20114437417E-01  0.11031831997E-01  0.23698145488E-01  0.00000000000E+00 0.  1.
     999901    1    3    3    0    0  0.46641306933E-01  0.13121719627E+00  0.35185945627E-01  0.89164534142E+00  0.88000000000E+00 0. -1.
        -11    1    4    4    0    0 -0.29504711038E-02 -0.32877425774E-01 -0.10167427945E-01  0.34543713137E-01  0.51100000000E-03 0.  1.
         11    1    4    4    0    0 -0.37748598055E-01 -0.78225333077E-01 -0.36050349679E-01  0.94042799953E-01  0.51100000000E-03 0. -1.
</event>
<event>
 8    1  0.1119901E+005  0.1043930E+01  0.7957747E-01            NaN
         13   -1    0    0    0    0  0.00000000000E+00  0.00000000000E+00  0.74505805969E-08  0.10566000000E+00  0.10566000000E+00 0.  1.
     999900   -1    0    0    0    0 -0.00000000000E+00 -0.00000000000E+00 -0.74505805969E-08  0.93827000000E+00  0.93827000000E+00 0.  1.
     999902    2    1    2    0    0  0.14898273631E-01 -0.92039476022E-02 -0.15905695814E-01  0.10202728157E+01  0.10199985079E+01 0.  0.
     999903    2    3    3    0    0  0.10619942211E+00  0.72819736274E-01 -0.19217890293E-01  0.13174889648E+00  0.20184478418E-01 0.  0.
         14    1    1    2    0    0 -0.14898273631E-01  0.92039476022E-02  0.15905695814E-01  0.23657184279E-01  0.00000000000E+00 0. -1.
     999901    1    3    3    0    0 -0.91301148479E-01 -0.82023683876E-01  0.33121944792E-02  0.88852391924E+00  0.88000000000E+00 0. -1.
        -11    1    4    4    0    0  0.53137329296E-01  0.34959150416E-01 -0.19606842259E-01  0.66561305177E-01  0.51100000000E-03 0. -1.
         11    1    4    4    0    0  0.53062092815E-01  0.37860585858E-01  0.38895196526E-03  0.65187591304E-01  0.51100000000E-03 0.  1.
</event>
<event>
 8    1  0.1119901E+005  0.1043930E+01  0.7957747E-01            NaN
         13   -1    0    0    0    0  0.00000000000E+00  0.00000000000E+00  0.74505805969E-08  0.10566000000E+00  0.10566000000E+00 0. -1.
     999900   -1    0    0    0    0 -0.00000000000E+00 -0.00000000000E+00 -0.74505805969E-08  0.93827000000E+00  0.93827000000E+00 0.  1.
     999902    2    1    2    0    0  0.15101945715E-01 -0.17339384293E-01  0.27059897013E-02  0.10207773459E+01  0.10205147449E+01 0.  0.
     999903    2    3    3    0    0 -0.75383518167E-01  0.71633914238E-01  0.73255301317E-01  0.12887988968E+00  0.20726657057E-01 0.  0.
         14    1    1    2    0    0 -0.15101945715E-01  0.17339384293E-01 -0.27059897013E-02  0.23152654109E-01  0.00000000000E+00 0. -1.
     999901    1    3    3    0    0  0.90485463882E-01 -0.88973298530E-01 -0.70549311616E-01  0.89189745621E+00  0.88000000000E+00 0.  1.
        -11    1    4    4    0    0 -0.39318204756E-02  0.82900720203E-02  0.13173694758E-01  0.16062125044E-01  0.51100000000E-03 0.  1.
         11    1    4    4    0    0 -0.71451697692E-01  0.63343842217E-01  0.60081606559E-01  0.11281776464E+00  0.51100000000E-03 0. -1.
</event>
<event>
 8    1  0.1119901E+005  0.1043930E+01  0.7957747E-01            NaN
         13   -1    0    0    0    0  0.00000000000E+00  0.00000000000E+00  0.74505805969E-08  0.10566000000E+00  0.10566000000E+00 0.  1.
     999900   -1    0    0    0    0 -0.00000000000E+00 -0.00000000000E+00 -0.74505805969E-08  0.93827000000E+00  0.93827000000E+00 0. -1.
     999902    2    1    2    0    0 -0.18735955814E-01 -0.11916448062E-01  0.85519535326E-02  0.10201355955E+01  0.10198580586E+01 0.  0.
     999903    2    3    3    0    0 -0.11693619170E+00  0.16899521414E-01 -0.54974824215E-01  0.13192993359E+00  0.20581771659E-01 0.  0.
         14    1    1    2    0    0  0.18735955814E-01  0.11916448062E-01 -0.85519535326E-02  0.23794404467E-01  0.00000000000E+00 0.  1.
     999901    1    3    3    0    0  0.98200235887E-01 -0.28815969477E-01  0.63526777748E-01  0.88820566195E+00  0.88000000000E+00 0.  1.
        -11    1    4    4    0    0 -0.47241274743E-01  0.16641857978E-01 -0.19815062002E-01  0.53866383575E-01  0.51100000000E-03 0.  1.
         11    1    4    4    0    0 -0.69694916959E-01  0.25766343592E-03 -0.35159762213E-01  0.78063550010E-01  0.51100000000E-03 0. -1.
</event>
<event>
 8    1  0.1119901E+005  0.1043930E+01  0.7957747E-01            NaN
         13   -1    0    0    0    0  0.00000000000E+00  0.00000000000E+00  0.74505805969E-08  0.10566000000E+00  0.10566000000E+00 0. -1.
     999900   -1    0    0    0    0 -0.00000000000E+00 -0.00000000000E+00 -0.74505805969E-08  0.93827000000E+00  0.93827000000E+00 0.  1.
     999902    2    1    2    0    0 -0.23395470916E-01 -0.34242769580E-02  0.59431942798E-03  0.10202777919E+01  0.10200036008E+01 0.  0.
     999903    2    3    3    0    0  0.69683774758E-02  0.32408123014E-01  0.12446437078E+00  0.13036222636E+00  0.20101884143E-01 0.  0.
         14    1    1    2    0    0  0.23395470916E-01  0.34242769580E-02 -0.59431942798E-03  0.23652208092E-01  0.00000000000E+00 0. -1.
     999901    1    3    3    0    0 -0.30363848392E-01 -0.35832399972E-01 -0.12387005135E+00  0.88991556555E+00  0.88000000000E+00 0.  1.
        -11    1    4    4    0    0 -0.35562347064E-02  0.13106556527E-01  0.75122578514E-01  0.76341938362E-01  0.51100000000E-03 0.  1.
         11    1    4    4    0    0  0.10524612182E-01  0.19301566487E-01  0.49341792268E-01  0.54020288001E-01  0.51100000000E-03 0. -1.
</event>
<event>
 8    1  0.1119901E+005  0.1043930E+01  0.7957747E-01            NaN
         13   -1    0    0    0    0  0.00000000000E+00  0.00000000000E+00  0.74505805969E-08  0.10566000000E+00  0.10566000000E+00 0.  1.
     999900   -1    0    0    0    0 -0.00000000000E+00 -0.00000000000E+00 -0.74505805969E-08  0.93827000000E+00  0.93827000000E+00 0.  1.
     999902    2    1    2    0    0  0.12164927797E-01  0.18380361947E-01 -0.53057662739E-02  0.10212589981E+01  0.10210073294E+01 0.  0.
     999903    2    3    3    0    0  0.48332395550E-01  0.79024085272E-01  0.93260599329E-01  0.13294538489E+00  0.19902498916E-01 0.  0.
         14    1    1    2    0    0 -0.12164927797E-01 -0.18380361947E-01  0.53057662739E-02  0.22671001949E-01  0.00000000000E+00 0.  1.
     999901    1    3    3    0    0 -0.36167467753E-01 -0.60643723325E-01 -0.98566365603E-01  0.88831361316E+00  0.88000000000E+00 0.  1.
        -11    1    4    4    0    0  0.33135249319E-01  0.57566908186E-01  0.78336272502E-01  0.10270699283E+00  0.51100000000E-03 0.  1.
         11    1    4    4    0    0  0.15197146230E-01  0.21457177086E-01  0.14924326828E-01  0.30238392059E-01  0.51100000000E-03 0. -1.
</event>
<event>
 8    1  0.1119901E+005  0.1043930E+01  0.7957747E-01            NaN
         13   -1    0    0    0    0  0.00000000000E+00  0.00000000000E+00  0.74505805969E-08  0.10566000000E+00  0.10566000000E+00 0.  1.
     999900   -1    0    0    0    0 -0.00000000000E+00 -0.00000000000E+00 -0.74505805969E-08  0.93827000000E+00  0.93827000000E+00 0.  1.
     999902    2    1    2    0    0 -0.86108696701E-03  0.56259386025E-02  0.24646216333E-01  0.10186351658E+01  0.10183210557E+01 0.  0.
     999903    2    3    3    0    0 -0.19686209225E-01 -0.12490546335E+00 -0.66123356787E-02  0.12825888066E+00  0.20437609354E-01 0.  0.
         14    1    1    2    0    0  0.86108696701E-03 -0.56259386025E-02 -0.24646216333E-01  0.25294834166E-01  0.00000000000E+00 0. -1.
     999901    1    3    3    0    0  0.18825122258E-01  0.13053140196E+00  0.31258552012E-01  0.89037628517E+00  0.88000000000E+00 0.  1.
        -11    1    4    4    0    0 -0.13131134017E-01 -0.66409401623E-01  0.63172249379E-02  0.67991203523E-01  0.51100000000E-03 0. -1.
         11    1    4    4    0    0 -0.65550752085E-02 -0.58496061730E-01 -0.12929560617E-01  0.60267677139E-01  0.51100000000E-03 0.  1.
</event>
<event>
 8    1  0.1119901E+005  0.1043930E+01  0.7957747E-01            NaN
         13   -1    0    0    0    0  0.00000000000E+00  0.00000000000E+00  0.74505805969E-08  0.10566000000E+00  0.10566000000E+00 0.  1.
     999900   -1    0    0    0    0 -0.00000000000E+00 -0.00000000000E+00 -0.74505805969E-08  0.93827000000E+00  0.93827000000E+00 0. -1.
     999902    2    1    2    0    0  0.11752412787E-01 -0.14525923478E-01  0.14416740810E-01  0.10203299137E+01  0.10200569438E+01 0.  0.
     999903    2    3    3    0    0 -0.21397577504E-01  0.72963083274E-01  0.10415146740E+00  0.13083254475E+00  0.22094315093E-01 0.  0.
         14    1    1    2    0    0 -0.11752412787E-01  0.14525923478E-01 -0.14416740810E-01  0.23600086331E-01  0.00000000000E+00 0. -1.
     999901    1    3    3    0    0  0.33149990291E-01 -0.87489006752E-01 -0.89734726593E-01  0.88949736892E+00  0.88000000000E+00 0. -1.
        -11    1    4    4    0    0 -0.25046677058E-02  0.41675229888E-01  0.45784934195E-01  0.61964663049E-01  0.51100000000E-03 0. -1.
         11    1    4    4    0    0 -0.18892909798E-01  0.31287853386E-01  0.58366533209E-01  0.68867881701E-01  0.51100000000E-03 0.  1.
</event>
<event>
 8    1  0.1119901E+005  0.1043930E+01  0.7957747E-01            NaN
         13   -1    0    0    0    0  0.00000000000E+00  0.00000000000E+00  0.74505805969E-08  0.10566000000E+00  0.10566000000E+00 0. -1.
     999900   -1    0    0    0    0 -0.00000000000E+00 -0.00000000000E+00 -0.74505805969E-08  0.93827000000E+00  0.93827000000E+00 0. -1.
     999902    2    1    2    0    0 -0.10292089377E-02 -0.20010508446E-01  0.16065713229E-01  0.10182475768E+01  0.10179236419E+01 0.  0.
     999903    2    3    3    0    0  0.15002188202E-01 -0.57733841777E-01  0.11568322757E+00  0.13167907707E+00  0.19962666616E-01 0.  0.
         14    1    1    2    0    0  0.10292089377E-02  0.20010508446E-01 -0.16065713229E-01  0.25682423189E-01  0.00000000000E+00 0.  1.
     999901    1    3    3    0    0 -0.16031397139E-01  0.37723333332E-01 -0.99617514346E-01  0.88656849974E+00  0.88000000000E+00 0. -1.
        -11    1    4    4    0    0  0.10972328976E-01 -0.13546949081E-01  0.22480864867E-01  0.28452807220E-01  0.51100000000E-03 0.  1.
         11    1    4    4    0    0  0.40298592258E-02 -0.44186892696E-01  0.93202362708E-01  0.10322626985E+00  0.51100000000E-03 0. -1.
</event>
<event>
 8    1  0.1119901E+005  0.1043930E+01  0.7957747E-01            NaN
         13   -1    0    0    0    0  0.00000000000E+00  0.00000000000E+00  0.74505805969E-08  0.10566000000E+00  0.10566000000E+00 0. -1.
     999900   -1    0    0    0    0 -0.00000000000E+00 -0.00000000000E+00 -0.74505805969E-08  0.93827000000E+00  0.93827000000E+00 0. -1.
     999902    2    1    2    0    0 -0.13365459938E-01 -0.25077733912E-02 -0.19059723271E-01  0.10205163822E+01  0.10202477586E+01 0.  0.
     999903    2    3    3    0    0 -0.54031070364E-01 -0.40416437993E-01  0.10879041753E+00  0.12954140095E+00  0.19818541549E-01 0.  0.
         14    1    1    2    0    0  0.13365459938E-01  0.25077733912E-02  0.19059723271E-01  0.23413617788E-01  0.00000000000E+00 0. -1.
     999901    1    3    3    0    0  0.40665610426E-01  0.37908664602E-01 -0.12785014081E+00  0.89097498126E+00  0.88000000000E+00 0. -1.
        -11    1    4    4    0    0 -0.19978074391E-01 -0.41411525285E-02  0.35700944809E-01  0.41122879057E-01  0.51100000000E-03 0.  1.
         11    1    4    4    0    0 -0.34052995973E-01 -0.36275285465E-01  0.73089472725E-01  0.88418521897E-01  0.51100000000E-03 0. -1.
</event>
<event>
 8    1  0.1119901E+005  0.1043930E+01  0.7957747E-01            NaN
         13   -1    0    0    0    0  0.00000000000E+00  0.00000000000E+00  0.74505805969E-08  0.10566000000E+00  0.10566000000E+00 0. -1.
     999900   -1    0    0    0    0 -0.00000000000E+00 -0.00000000000E+00 -0.74505805969E-08  0.93827000000E+00  0.93827000000E+00 0.  1.
     999902    2    1    2    0    0  0.22505698024E-01 -0.64509878412E-02  0.54030426860E-02  0.10199026290E+01  0.10196195654E+01 0.  0.
     999903    2    3    3    0    0 -0.12268910160E+00 -0.27025663129E-01 -0.10059543702E-01  0.12763364562E+00  0.20153187220E-01 0.  0.
         14    1    1    2    0    0 -0.22505698024E-01  0.64509878412E-02 -0.54030426860E-02  0.24027371016E-01  0.00000000000E+00 0.  1.
     999901    1    3    3    0    0  0.14519479962E+00  0.20574675288E-01  0.15462586388E-01  0.89226898337E+00  0.88000000000E+00 0. -1.
        -11    1    4    4    0    0 -0.96877347134E-01 -0.14117878777E-01 -0.12356175491E-01  0.98678625257E-01  0.51100000000E-03 0.  1.
         11    1    4    4    0    0 -0.25811754466E-01 -0.12907784351E-01  0.22966317895E-02  0.28955020360E-01  0.51100000000E-03 0. -1.
</event>
<event>
 8    1  0.1119901E+005  0.1043930E+01  0.7957747E-01            NaN
         13   -1    0    0    0    0  0.00000000000E+00  0.00000000000E+00  0.74505805969E-08  0.10566000000E+00  0.10566000000E+00 0.  1.
     999900   -1    0    0    0    0 -0.00000000000E+00 -0.00000000000E+00 -0.74505805969E-08  0.93827000000E+00  0.93827000000E+00 0.  1.
     999902    2    1    2    0    0  0.18701363835E-01  0.11246278007E-01 -0.12280292218E-02  0.10220730141E+01  0.10218392820E+01 0.  0.
     999903    2    3    3    0    0 -0.19996592176E-01  0.46057092691E-01  0.12057578528E+00  0.13215981951E+00  0.20163789577E-01 0.  0.
         14    1    1    2    0    0 -0.18701363835E-01 -0.11246278007E-01  0.12280292218E-02  0.21856985933E-01  0.00000000000E+00 0. -1.
     999901    1    3    3    0    0  0.38697956011E-01 -0.34810814683E-01 -0.12180381451E+00  0.88991319456E+00  0.88000000000E+00 0.  1.
        -11    1    4    4    0    0  0.40164882526E-02  0.63149850265E-02  0.13403396436E-01  0.15359797225E-01  0.51100000000E-03 0.  1.
         11    1    4    4    0    0 -0.24013080429E-01  0.39742107664E-01  0.10717238885E+00  0.11680002229E+00  0.51100000000E-03 0. -1.
</event>
<event>
 8    1  0.1119901E+005  0.1043930E+01  0.7957747E-01            NaN
         13   -1    0    0    0    0  0.00000000000E+00  0.00000000000E+00  0.74505805969E-08  0.10566000000E+00  0.10566000000E+00 0. -1.
     999900   -1    0    0    0    0 -0.00000000000E+00 -0.00000000000E+00 -0.74505805969E-08  0.93827000000E+00  0.93827000000E+00 0. -1.
     999902    2    1    2    0    0 -0.15243862735E-01 -0.16755927487E-01 -0.11034269312E-01  0.10187329455E+01  0.10184212894E+01 0.  0.
     999903    2    3    3    0    0  0.19563367762E-01  0.57650057578E-02  0.12403400715E+00  0.12746296673E+00  0.21128471451E-01 0.  0.
         14    1    1    2    0    0  0.15243862735E-01  0.16755927487E-01  0.11034269312E-01  0.25197054516E-01  0.00000000000E+00 0. -1.
     999901    1    3    3    0    0 -0.34807230498E-01 -0.22520933245E-01 -0.13506827647E+00  0.89126997876E+00  0.88000000000E+00 0. -1.
        -11    1    4    4    0    0  0.12877060328E-01  0.12750014188E-01  0.59310659601E-01  0.62019327695E-01  0.51100000000E-03 0. -1.
         11    1    4    4    0    0  0.66863074348E-02 -0.69850084300E-02  0.64723347554E-01  0.65443639030E-01  0.51100000000E-03 0.  1.
</event>
<event>
 8    1  0.1119901E+005  0.1043930E+01  0.7957747E-01            NaN
         13   -1    0    0    0    0  0.00000000000E+00  0.00000000000E+00  0.74505805969E-08  0.10566000000E+00  0.10566000000E+00 0.  1.
     999900   -1    0    0    0    0 -0.00000000000E+00 -0.00000000000E+00 -0.74505805969E-08  0.93827000000E+00  0.93827000000E+00 0.  1.
     999902    2    1    2    0    0  0.11275762008E-01 -0.97290455235E-02 -0.17901931974E-01  0.10206431732E+01  0.10203774844E+01 0.  0.
     999903    2    3    3    0    0 -0.32279042574E-01  0.82015416533E-01  0.90290746925E-01  0.12821966211E+00  0.22790296884E-01 0.  0.
         14    1    1    2    0    0 -0.11275762008E-01  0.97290455235E-02  0.17901931974E-01  0.23286826835E-01  0.00000000000E+00 0.  1.
     999901    1    3    3    0    0  0.43554804582E-01 -0.91744462056E-01 -0.10819267890E+00  0.89242351106E+00  0.88000000000E+00 0.  1.
        -11    1    4    4    0    0 -0.33740681733E-01  0.67376114394E-01  0.67959119529E-01  0.10147254527E+00  0.51100000000E-03 0. -1.
         11    1    4    4    0    0  0.14616391590E-02  0.14639302139E-01  0.22331627397E-01  0.26747116842E-01  0.51100000000E-03 0.  1.
</event>
<event>
 8    1  0.1119901E+005  0.1043930E+01  0.7957747E-01            NaN
         13   -1    0    0    0    0  0.00000000000E+00  0.00000000000E+00  0.74505805969E-08  0.10566000000E+00  0.10566000000E+00 0.  1.
     999900   -1    0    0    0    0 -0.00000000000E+00 -0.00000000000E+00 -0.74505805969E-08  0.93827000000E+00  0.93827000000E+00 0.  1.
     999902    2    1    2    0    0 -0.21160087809E-01 -0.11407617234E-01  0.42581800761E-02  0.10195165786E+01  0.10192242339E+01 0.  0.
     999903    2    3    3    0    0  0.43441115290E-01  0.98246901785E-01 -0.65763864246E-01  0.12760822250E+00  0.20478974617E-01 0.  0.
         14    1    1    2    0    0  0.21160087809E-01  0.11407617234E-01 -0.42581800761E-02  0.24413421403E-01  0.00000000000E+00 0.  1.
     999901    1    3    3    0    0 -0.64601203099E-01 -0.10965451902E+00  0.70022044322E-01  0.89190835610E+00  0.88000000000E+00 0. -1.
        -11    1    4    4    0    0  0.24528996795E-01  0.35493793370E-01 -0.33072095514E-01  0.54364562669E-01  0.51100000000E-03 0. -1.
         11    1    4    4    0    0  0.18912118495E-01  0.62753108415E-01 -0.32691768732E-01  0.73243659832E-01  0.51100000000E-03 0.  1.
</event>
<event>
 8    1  0.1119901E+005  0.1043930E+01  0.7957747E-01            NaN
         13   -1    0    0    0    0  0.00000000000E+00  0.00000000000E+00  0.74505805969E-08  0.10566000000E+00  0.10566000000E+00 0. -1.
     999900   -1    0    0    0    0 -0.00000000000E+00 -0.00000000000E+00 -0.74505805969E-08  0.93827000000E+00  0.93827000000E+00 0. -1.
     999902    2    1    2    0    0 -0.23706957253E-01  0.32587422904E-02 -0.74749596116E-03  0.10199884467E+01  0.10197074254E+01 0.  0.
     999903    2    3    3    0    0  0.38818558867E-01  0.10397534260E+00 -0.64923321410E-01  0.12972342420E+00  0.17186527887E-01 0.  0.
         14    1    1    2    0    0  0.23706957253E-01 -0.32587422904E-02  0.74749596116E-03  0.23941553285E-01  0.00000000000E+00 0.  1.
     999901    1    3    3    0    0 -0.62525516120E-01 -0.10071660031E+00  0.64175825449E-01  0.89026502252E+00  0.88000000000E+00 0.  1.
        -11    1    4    4    0    0  0.83927270706E-02  0.29985913621E-01 -0.10102225338E-01  0.32740020787E-01  0.51100000000E-03 0.  1.
         11    1    4    4    0    0  0.30425831797E-01  0.73989428983E-01 -0.54821096072E-01  0.96983403411E-01  0.51100000000E-03 0. -1.
</event>
<event>
 8    1  0.1119901E+005  0.1043930E+01  0.7957747E-01            NaN
         13   -1    0    0    0    0  0.00000000000E+00  0.00000000000E+00  0.74505805969E-08  0.10566000000E+00  0.10566000000E+00 0. -1.
     999900   -1    0    0    0    0 -0.00000000000E+00 -0.00000000000E+00 -0.74505805969E-08  0.93827000000E+00  0.93827000000E+00 0.  1.
     999902    2    1    2    0    0  0.13376677909E-01  0.15301302575E-01 -0.10310596651E-01  0.10211402265E+01  0.10208858841E+01 0.  0.
     999903    2    3    3    0    0  0.59597077111E-01  0.11440844767E+00  0.28376486915E-01  0.13352812545E+00  0.19581388586E-01 0.  0.
         14    1    1    2    0    0 -0.13376677909E-01 -0.15301302575E-01  0.10310596651E-01  0.22789773489E-01  0.00000000000E+00 0. -1.
     999901    1    3    3    0    0 -0.46220399203E-01 -0.99107145094E-01 -0.38687083566E-01  0.88761210106E+00  0.88000000000E+00 0.  1.
        -11    1    4    4    0    0  0.16024852526E-01  0.51602961914E-01  0.11661356127E-01  0.55280285134E-01  0.51100000000E-03 0. -1.
         11    1    4    4    0    0  0.43572224585E-01  0.62805485755E-01  0.16715130788E-01  0.78247840318E-01  0.51100000000E-03 0.  1.
</event>
<event>
 8    1  0.1119901E+005  0.1043930E+01  0.7957747E-01            NaN
         13   -1    0    0    0    0  0.00000000000E+00  0.00000000000E+00  0.74505805969E-08  0.10566000000E+00  0.10566000000E+00 0.  1.
     999900   -1    0    0    0    0 -0.00000000000E+00 -0.00000000000E+00 -0.74505805969E-08  0.93827000000E+00  0.93827000000E+00 0.  1.
     999902    2    1    2    0    0 -0.19816191772E-01  0.19612566698E-02 -0.12513364364E-01  0.10204116609E+01  0.10201406009E+01 0.  0.
     999903    2    3    3    0    0 -0.11020500790E+00 -0.70878334961E-01 -0.85114755050E-02  0.13277898957E+00  0.19721377248E-01 0.  0.
         14    1    1    2    0    0  0.19816191772E-01 -0.19612566698E-02  0.12513364364E-01  0.23518339053E-01  0.00000000000E+00 0. -1.
     999901    1    3    3    0    0  0.90388816132E-01  0.72839591631E-01 -0.40018888593E-02  0.88763267138E+00  0.88000000000E+00 0.  1.
        -11    1    4    4    0    0 -0.43087320925E-01 -0.16774813446E-01 -0.47978756362E-02  0.46488625730E-01  0.51100000000E-03 0.  1.
         11    1    4    4    0    0 -0.67117686980E-01 -0.54103521515E-01 -0.37135998688E-02  0.86290363835E-01  0.51100000000E-03 0. -1.
</event>
<event>
 8    1  0.1119901E+005  0.1043930E+01  0.7957747E-01            NaN
         13   -1    0    0    0    0  0.00000000000E+00  0.00000000000E+00  0.74505805969E-08  0.10566000000E+00  0.10566000000E+00 0. -1.
     999900   -1    0    0    0    0 -0.00000000000E+00 -0.00000000000E+00 -0.74505805969E-08  0.93827000000E+00  0.93827000000E+00 0.  1.
     999902    2    1    2    0    0  0.35896327904E-02 -0.20142173745E-01  0.84315794257E-02  0.10218011917E+01  0.10215615454E+01 0.  0.
     999903    2    3    3    0    0 -0.12087578377E+00  0.13367725873E-02 -0.46998419616E-01  0.13105685694E+00  0.18823024181E-01 0.  0.
         14    1    1    2    0    0 -0.35896327904E-02  0.20142173745E-01 -0.84315794257E-02  0.22128808336E-01  0.00000000000E+00 0.  1.
     999901    1    3    3    0    0  0.12446541657E+00 -0.21478946333E-01  0.55429999042E-01  0.89074433473E+00  0.88000000000E+00 0. -1.
        -11    1    4    4    0    0 -0.88932943610E-01  0.21147763099E-02 -0.25500542699E-01  0.92542312144E-01  0.51100000000E-03 0. -1.
         11    1    4    4    0    0 -0.31942840165E-01 -0.77800372258E-03 -0.21497876917E-01  0.38514544792E-01  0.51100000000E-03 0.  1.
</event>
<event>
 7    1  0.1119901E+005  0.1043930E+01  0.7957747E-01            NaN
         13   -1    0    0    0    0  0.00000000000E+00  0.00000000000E+00  0.74505805969E-08  0.10566000000E+00  0.10566000000E+00 0. -1.
     999900   -1    0    0    0    0 -0.00000000000E+00 -0.00000000000E+00 -0.74505805969E-08  0.93827000000E+00  0.93827000000E+00 0. -1.
     999903    2    1    2    0    0 -0.10169508120E+00 -0.23974242398E-01  0.40327679582E-01  0.11431936777E+00  0.22933431214E-01 0.  0.
         14    1    1    2    0    0  0.12967103734E-01 -0.45507060908E-02  0.38796613095E-01  0.41158618694E-01  0.00000000000E+00 0. -1.
     999901    1    1    2    0    0  0.88727977466E-01  0.28524948489E-01 -0.79124292676E-01  0.88845201354E+00  0.88000000000E+00 0. -1.
        -11    1    3    3    0    0 -0.27397088661E-01  0.17271388330E-03  0.24945282111E-02  0.27515706227E-01  0.51100000000E-03 0.  1.
         11    1    3    3    0    0 -0.74297992538E-01 -0.24146956282E-01  0.37833151370E-01  0.86803661539E-01  0.51100000000E-03 0. -1.
</event>
<event>
 8    1  0.1119901E+005  0.1043930E+01  0.7957747E-01            NaN
         13   -1    0    0    0    0  0.00000000000E+00  0.00000000000E+00  0.74505805969E-08  0.10566000000E+00  0.10566000000E+00 0.  1.
     999900   -1    0    0    0    0 -0.00000000000E+00 -0.00000000000E+00 -0.74505805969E-08  0.93827000000E+00  0.93827000000E+00 0.  1.
     999902    2    1    2    0    0  0.22055283022E-01  0.88683527153E-02 -0.21087559067E-02  0.10200651715E+01  0.10197859697E+01 0.  0.
     999903    2    3    3    0    0 -0.17049975020E-01 -0.12621016176E+00 -0.69060734088E-02  0.12888705205E+00  0.18559950389E-01 0.  0.
         14    1    1    2    0    0 -0.22055283022E-01 -0.88683527153E-02  0.21087559067E-02  0.23864828526E-01  0.00000000000E+00 0.  1.
     999901    1    3    3    0    0  0.39105258043E-01  0.13507851447E+00  0.47973175020E-02  0.89117811942E+00  0.88000000000E+00 0.  1.
        -11    1    4    4    0    0 -0.14578230180E-01 -0.51717708688E-01 -0.80981651755E-02  0.54342318568E-01  0.51100000000E-03 0. -1.
         11    1    4    4    0    0 -0.24717448399E-02 -0.74492453068E-01  0.11920917667E-02  0.74544733486E-01  0.51100000000E-03 0.  1.
</event>
<event>
 8    1  0.1119901E+005  0.1043930E+01  0.7957747E-01            NaN
         13   -1    0    0    0    0  0.00000000000E+00  0.00000000000E+00  0.74505805969E-08  0.10566000000E+00  0.10566000000E+00 0.  1.
     999900   -1    0    0    0    0 -0.00000000000E+00 -0.00000000000E+00 -0.74505805969E-08  0.93827000000E+00  0.93827000000E+00 0. -1.
     999902    2    1    2    0    0 -0.68772653584E-02 -0.18113809798E-02  0.22395344558E-01  0.10204325674E+01  0.10201619946E+01 0.  0.
     999903    2    3    3    0    0  0.28760102952E-01  0.12515521603E+00 -0.71173584145E-02  0.13011715230E+00  0.19719150838E-01 0.  0.
         14    1    1    2    0    0  0.68772653584E-02  0.18113809798E-02 -0.22395344558E-01  0.23497432578E-01  0.00000000000E+00 0. -1.
     999901    1    3    3    0    0 -0.35637368311E-01 -0.12696659701E+00  0.29512702973E-01  0.89031541513E+00  0.88000000000E+00 0.  1.
        -11    1    4    4    0    0  0.10675626903E-01  0.50095079480E-01 -0.12481736336E-01  0.52721351091E-01  0.51100000000E-03 0.  1.
         11    1    4    4    0    0  0.18084476049E-01  0.75060136548E-01  0.53643779215E-02  0.77395801204E-01  0.51100000000E-03 0. -1.
</event>
<event>
 8    1  0.1119901E+005  0.1043930E+01  0.7957747E-01            NaN
         13   -1    0    0    0    0  0.00000000000E+00  0.00000000000E+00  0.74505805969E-08  0.10566000000E+00  0.10566000000E+00 0. -1.
     999900   -1    0    0    0    0 -0.00000000000E+00 -0.00000000000E+00 -0.74505805969E-08  0.93827000000E+00  0.93827000000E+00 0. -1.
     999902    2    1    2    0    0  0.71642056459E-02  0.13890359130E-01  0.17542854930E-01  0.10204349010E+01  0.10201643826E+01 0.  0.
     999903    2    3    3    0    0  0.14289443315E-02  0.72152938742E-01 -0.10608278839E+00  0.12986726115E+00  0.20096245324E-01 0.  0.
         14    1    1    2    0    0 -0.71642056459E-02 -0.13890359130E-01 -0.17542854930E-01  0.23495099029E-01  0.00000000000E+00 0.  1.
     999901    1    3    3    0    0  0.57352613145E-02 -0.58262579612E-01  0.12362564332E+00  0.89056763982E+00  0.88000000000E+00 0.  1.
        -11    1    4    4    0    0  0.29283061977E-03  0.23725113572E-01 -0.52601058184E-01  0.57707011765E-01  0.51100000000E-03 0. -1.
         11    1    4    4    0    0  0.11361137117E-02  0.48427825170E-01 -0.53481730204E-01  0.72160249388E-01  0.51100000000E-03 0.  1.
</event>
<event>
 8    1  0.1119901E+005  0.1043930E+01  0.7957747E-01            NaN
         13   -1    0    0    0    0  0.00000000000E+00  0.00000000000E+00  0.74505805969E-08  0.10566000000E+00  0.10566000000E+00 0. -1.
     999900   -1    0    0    0    0 -0.00000000000E+00 -0.00000000000E+00 -0.74505805969E-08  0.93827000000E+00  0.93827000000E+00 0.  1.
     999902    2    1    2    0    0  0.17077931261E-01  0.37915599109E-02 -0.16242145386E-01  0.10200587003E+01  0.10197793453E+01 0.  0.
     999903    2    3    3    0    0 -0.19845964013E-01 -0.77162740134E-01 -0.10265014785E+00  0.13136116141E+00  0.19254898606E-01 0.  0.
         14    1    1    2    0    0 -0.17077931261E-01 -0.37915599109E-02  0.16242145386E-01  0.23871299702E-01  0.00000000000E+00 0. -1.
     999901    1    3    3    0    0  0.36923895274E-01  0.80954300045E-01  0.86408002465E-01  0.88869753889E+00  0.88000000000E+00 0. -1.
        -11    1    4    4    0    0 -0.73110476120E-02 -0.98868424008E-02 -0.24949397017E-01  0.27819680126E-01  0.51100000000E-03 0.  1.
         11    1    4    4    0    0 -0.12534916400E-01 -0.67275897733E-01 -0.77700750834E-01  0.10354148128E+00  0.51100000000E-03 0. -1.
</event>
<event>
 8    1  0.1119901E+005  0.1043930E+01  0.7957747E-01            NaN
         13   -1    0    0    0    0  0.00000000000E+00  0.00000000000E+00  0.74505805969E-08  0.10566000000E+00  0.10566000000E+00 0. -1.
     999900   -1    0    0    0    0 -0.00000000000E+00 -0.00000000000E+00 -0.74505805969E-08  0.93827000000E+00  0.93827000000E+00 0. -1.
     999902    2    1    2    0    0 -0.10691696300E-01 -0.21113453270E-01  0.33273177411E-02  0.10200310184E+01  0.10197510074E+01 0.  0.
     999903    2    3    3    0    0  0.10658416439E-01 -0.72212173929E-01 -0.10737394097E+00  0.13136816035E+00  0.20005760455E-01 0.  0.
         14    1    1    2    0    0  0.10691696300E-01  0.21113453270E-01 -0.33273177411E-02  0.23898981613E-01  0.00000000000E+00 0.  1.
     999901    1    3    3    0    0 -0.21350112740E-01  0.51098720658E-01  0.11070125871E+00  0.88866285803E+00  0.88000000000E+00 0.  1.
        -11    1    4    4    0    0 -0.89461155553E-03 -0.43575381460E-01 -0.50996942790E-01  0.67086239231E-01  0.51100000000E-03 0. -1.
         11    1    4    4    0    0  0.11553027995E-01 -0.28636792469E-01 -0.56376998179E-01  0.64281921124E-01  0.51100000000E-03 0.  1.
</event>
<event>
 8    1  0.1119901E+005  0.1043930E+01  0.7957747E-01            NaN
         13   -1    0    0    0    0  0.00000000000E+00  0.00000000000E+00  0.74505805969E-08  0.10566000000E+00  0.10566000000E+00 0.  1.
     999900   -1    0    0    0    0 -0.00000000000E+00 -0.00000000000E+00 -0.74505805969E-08  0.93827000000E+00  0.93827000000E+00 0. -1.
     999902    2    1    2    0    0  0.38511008269E-02 -0.11885059335E-01  0.19573692658E-01  0.10207089953E+01  0.10204448237E+01 0.  0.
     999903    2    3    3    0    0  0.86340438397E-01  0.10799002196E-01  0.98584417252E-01  0.13303689819E+00  0.20214826361E-01 0.  0.
         14    1    1    2    0    0 -0.38511008269E-02  0.11885059335E-01 -0.19573692658E-01  0.23221004656E-01  0.00000000000E+00 0.  1.
     999901    1    3    3    0    0 -0.82489337570E-01 -0.22684061531E-01 -0.79010724594E-01  0.88767209715E+00  0.88000000000E+00 0. -1.
        -11    1    4    4    0    0  0.39877895168E-01 -0.46425245343E-02  0.39840208756E-01  0.56562380712E-01  0.51100000000E-03 0.  1.
         11    1    4    4    0    0  0.46462543228E-01  0.15441526731E-01  0.58744208496E-01  0.76474517480E-01  0.51100000000E-03 0. -1.
</event>
<event>
 8    1  0.1119901E+005  0.1043930E+01  0.7957747E-01            NaN
         13   -1    0    0    0    0  0.00000000000E+00  0.00000000000E+00  0.74505805969E-08  0.10566000000E+00  0.10566000000E+00 0.  1.
     999900   -1    0    0    0    0 -0.00000000000E+00 -0.00000000000E+00 -0.74505805969E-08  0.93827000000E+00  0.93827000000E+00 0.  1.
     999902    2    1    2    0    0  0.77774009527E-02 -0.16967146801E-01  0.15480784768E-01  0.10196807375E+01  0.10193923580E+01 0.  0.
     999903    2    3    3    0    0  0.61714084755E-01  0.54526680400E-01 -0.96146988822E-01  0.12811958252E+00  0.19712859562E-01 0.  0.
         14    1    1    2    0    0 -0.77774009527E-02  0.16967146801E-01 -0.15480784768E-01  0.24249262529E-01  0.00000000000E+00 0. -1.
     999901    1    3    3    0    0 -0.53936683803E-01 -0.71493827201E-01  0.11162777359E+00  0.89156115495E+00  0.88000000000E+00 0. -1.
        -11    1    4    4    0    0  0.58724649990E-01  0.48449097120E-01 -0.79180631788E-01  0.10984413093E+00  0.51100000000E-03 0.  1.
         11    1    4    4    0    0  0.29894347657E-02  0.60775832794E-02 -0.16966357034E-01  0.18275451588E-01  0.51100000000E-03 0. -1.
</event>
<event>
 8    1  0.1119901E+005  0.1043930E+01  0.7957747E-01            NaN
         13   -1    0    0    0    0  0.00000000000E+00  0.00000000000E+00  0.74505805969E-08  0.10566000000E+00  0.10566000000E+00 0. -1.
     999900   -1    0    0    0    0 -0.00000000000E+00 -0.00000000000E+00 -0.74505805969E-08  0.93827000000E+00  0.93827000000E+00 0. -1.
     999902    2    1    2    0    0 -0.27260204923E-02 -0.14020232374E-01 -0.19155175876E-01  0.10200360914E+01  0.10197562008E+01 0.  0.
     999903    2    3    3    0    0  0.36894291142E-01  0.59502762415E-01  0.10271177474E+00  0.12772059034E+00  0.29344046616E-01 0.  0.
         14    1    1    2    0    0  0.27260204923E-02  0.14020232374E-01  0.19155175876E-01  0.23893908562E-01  0.00000000000E+00 0.  1.
     999901    1    3    3    0    0 -0.39620311634E-01 -0.73522994790E-01 -0.12186695061E+00  0.89231550110E+00  0.88000000000E+00 0. -1.
        -11    1    4    4    0    0  0.22454909561E-01  0.38081912877E-01  0.38948548222E-01  0.58921181093E-01  0.51100000000E-03 0. -1.
         11    1    4    4    0    0  0.14439381581E-01  0.21420849538E-01  0.63763226515E-01  0.68799409242E-01  0.51100000000E-03 0.  1.
</event>
<event>
 8    1  0.1119901E+005  0.1043930E+01  0.7957747E-01            NaN
         13   -1    0    0    0    0  0.00000000000E+00  0.00000000000E+00  0.74505805969E-08  0.10566000000E+00  0.10566000000E+00 0.  1.
     999900   -1    0    0    0    0 -0.00000000000E+00 -0.00000000000E+00 -0.74505805969E-08  0.93827000000E+00  0.93827000000E+00 0.  1.
     999902    2    1    2    0    0  0.20595680707E-01  0.82344399772E-02  0.10408629347E-01  0.10194284158E+01  0.10191339300E+01 0.  0.
     999903    2    3    3    0    0  0.10751740512E+00 -0.56009217859E-01  0.48372681769E-01  0.13200298057E+00  0.19693797175E-01 0.  0.
         14    1    1    2    0    0 -0.20595680707E-01 -0.82344399772E-02 -0.10408629347E-01  0.24501584242E-01  0.00000000000E+00 0. -1.
     999901    1    3    3    0    0 -0.86921724417E-01  0.64243657836E-01 -0.37964052422E-01  0.88742543519E+00  0.88000000000E+00 0.  1.
        -11    1    4    4    0    0  0.31971841026E-01 -0.12984040032E-01  0.22863625472E-01  0.41397951699E-01  0.51100000000E-03 0. -1.
         11    1    4    4    0    0  0.75545564098E-01 -0.43025177827E-01  0.25509056296E-01  0.90605028867E-01  0.51100000000E-03 0.  1.
</event>
<event>
 8    1  0.1119901E+005  0.1043930E+01  0.7957747E-01            NaN
         13   -1    0    0    0    0  0.00000000000E+00  0.00000000000E+00  0.74505805969E-08  0.10566000000E+00  0.10566000000E+00 0. -1.
     999900   -1    0    0    0    0 -0.00000000000E+00 -0.00000000000E+00 -0.74505805969E-08  0.93827000000E+00  0.93827000000E+00 0. -1.
     999902    2    1    2    0    0  0.84933877336E-02 -0.50983978144E-02 -0.18533481828E-01  0.10229152137E+01  0.10226993268E+01 0.  0.
     999903    2    3    3    0    0  0.11250797009E+00  0.30842090466E-01 -0.64881941950E-01  0.13485050219E+00  0.19123641662E-01 0.  0.
         14    1    1    2    0    0 -0.84933877336E-02  0.50983978144E-02  0.18533481828E-01  0.21014786321E-01  0.00000000000E+00 0. -1.
     999901    1    3    3    0    0 -0.10401458236E+00 -0.35940488280E-01  0.46348460123E-01  0.88806471149E+00  0.88000000000E+00 0. -1.
        -11    1    4    4    0    0  0.43005510686E-01  0.25631488991E-02 -0.21091191852E-01  0.47970232190E-01  0.51100000000E-03 0.  1.
         11    1    4    4    0    0  0.69502459406E-01  0.28278941567E-01 -0.43790750099E-01  0.86880269997E-01  0.51100000000E-03 0. -1.
</event>
<event>
 8    1  0.1119901E+005  0.1043930E+01  0.7957747E-01            NaN
         13   -1    0    0    0    0  0.00000000000E+00  0.00000000000E+00  0.74505805969E-08  0.10566000000E+00  0.10566000000E+00 0.  1.
     999900   -1    0    0    0    0 -0.00000000000E+00 -0.00000000000E+00 -0.74505805969E-08  0.93827000000E+00  0.93827000000E+00 0.  1.
     999902    2    1    2    0    0 -0.18864948362E-01 -0.50225574745E-03  0.14433826079E-01  0.10201713411E+01  0.10198946472E+01 0.  0.
     999903    2    3    3    0    0 -0.91339069328E-01  0.74407854612E-01 -0.54417849952E-01  0.13134932509E+00  0.20297497269E-01 0.  0.
         14    1    1    2    0    0  0.18864948362E-01  0.50225574745E-03 -0.14433826079E-01  0.23758658902E-01  0.00000000000E+00 0. -1.
     999901    1    3    3    0    0  0.72474120966E-01 -0.74910110360E-01  0.68851676030E-01  0.88882201601E+00  0.88000000000E+00 0. -1.
        -11    1    4    4    0    0 -0.33581325481E-01  0.33857655525E-01 -0.31478021793E-01  0.57141694373E-01  0.51100000000E-03 0.  1.
         11    1    4    4    0    0 -0.57757743846E-01  0.40550199087E-01 -0.22939828158E-01  0.74207630720E-01  0.51100000000E-03 0. -1.
</event>
<event>
 8    1  0.1119901E+005  0.1043930E+01  0.7957747E-01            NaN
         13   -1    0    0    0    0  0.00000000000E+00  0.00000000000E+00  0.74505805969E-08  0.10566000000E+00  0.10566000000E+00 0. -1.
     999900   -1    0    0    0    0 -0.00000000000E+00 -0.00000000000E+00 -0.74505805969E-08  0.93827000000E+00  0.93827000000E+00 0.  1.
     999902    2    1    2    0    0 -0.14392914995E-01  0.15316867237E-01 -0.11273615180E-01  0.10200792804E+01  0.10198004126E+01 0.  0.
     999903    2    3    3    0    0 -0.91180620902E-02  0.12989938100E+00  0.13771520136E-01  0.13228187375E+00  0.18757694867E-01 0.  0.
         14    1    1    2    0    0  0.14392914995E-01 -0.15316867237E-01  0.11273615180E-01  0.23850719554E-01  0.00000000000E+00 0. -1.
     999901    1    3    3    0    0 -0.52748529051E-02 -0.11458251376E+00 -0.25045135316E-01  0.88779740670E+00  0.88000000000E+00 0. -1.
        -11    1    4    4    0    0  0.33931940786E-02  0.66523117708E-01  0.21693973689E-02  0.66646878108E-01  0.51100000000E-03 0.  1.
         11    1    4    4    0    0 -0.12511256169E-01  0.63376263288E-01  0.11602122767E-01  0.65634995642E-01  0.51100000000E-03 0. -1.
</event>
<event>
 8    1  0.1119901E+005  0.1043930E+01  0.7957747E-01            NaN
         13   -1    0    0    0    0  0.00000000000E+00  0.00000000000E+00  0.74505805969E-08  0.10566000000E+00  0.10566000000E+00 0. -1.
     999900   -1    0    0    0    0 -0.00000000000E+00 -0.00000000000E+00 -0.74505805969E-08  0.93827000000E+00  0.93827000000E+00 0.  1.
     999902    2    1    2    0    0 -0.10738703530E-01  0.19337599660E-01 -0.61381194944E-02  0.10209748475E+01  0.10207167581E+01 0.  0.
     999903    2    3    3    0    0  0.60073660045E-01 -0.10869458944E+00  0.25493951525E-01  0.12833425905E+00  0.19909346495E-01 0.  0.
         14    1    1    2    0    0  0.10738703530E-01 -0.19337599660E-01  0.61381194944E-02  0.22955152472E-01  0.00000000000E+00 0.  1.
     999901    1    3    3    0    0 -0.70812363575E-01  0.12803218910E+00 -0.31632071019E-01  0.89264058848E+00  0.88000000000E+00 0.  1.
        -11    1    4    4    0    0  0.37628456625E-01 -0.48753422663E-01  0.15942592073E-01  0.63617798865E-01  0.51100000000E-03 0.  1.
         11    1    4    4    0    0  0.22445203420E-01 -0.59941166773E-01  0.95513594520E-02  0.64716460186E-01  0.51100000000E-03 0. -1.
</event>
<event>
 8    1  0.1119901E+005  0.1043930E+01  0.7957747E-01            NaN
         13   -1    0    0    0    0  0.00000000000E+00  0.00000000000E+00  0.74505805969E-08  0.10566000000E+00  0.10566000000E+00 0. -1.
     999900   -1    0    0    0    0 -0.00000000000E+00 -0.00000000000E+00 -0.74505805969E-08  0.93827000000E+00  0.93827000000E+00 0.  1.
     999902    2    1    2    0    0 -0.12597202964E-01 -0.13043270575E-01  0.15922628554E-01  0.10197981428E+01  0.10195125824E+01 0.  0.
     999903    2    3    3    0    0  0.60238815332E-01 -0.91083177524E-01 -0.66567067911E-01  0.12951736541E+00  0.20462485495E-01 0.  0.
         14    1    1    2    0    0  0.12597202964E-01  0.13043270575E-01 -0.15922628554E-01  0.24131857158E-01  0.00000000000E+00 0.  1.
     999901    1    3    3    0    0 -0.72836018296E-01  0.78039906949E-01  0.82489696465E-01  0.89028077743E+00  0.88000000000E+00 0. -1.
        -11    1    4    4    0    0  0.27879982007E-01 -0.51145489579E-01 -0.45697808815E-01  0.74038539643E-01  0.51100000000E-03 0. -1.
         11    1    4    4    0    0  0.32358833325E-01 -0.39937687945E-01 -0.20869259097E-01  0.55478825770E-01  0.51100000000E-03 0.  1.
</event>
<event>
 8    1  0.1119901E+005  0.1043930E+01  0.7957747E-01            NaN
         13   -1    0    0    0    0  0.00000000000E+00  0.00000000000E+00  0.74505805969E-08  0.10566000000E+00  0.10566000000E+00 0. -1.
     999900   -1    0    0    0    0 -0.00000000000E+00 -0.00000000000E+00 -0.74505805969E-08  0.93827000000E+00  0.93827000000E+00 0. -1.
     999902    2    1    2    0    0 -0.25657211542E-02 -0.21562194831E-01 -0.99563737306E-02  0.10200419162E+01  0.10197621635E+01 0.  0.
     999903    2    3    3    0    0  0.56301831217E-01  0.38937990919E-01 -0.10953638110E+00  0.13041174635E+00  0.17970572227E-01 0.  0.
         14    1    1    2    0    0  0.25657211542E-02  0.21562194831E-01  0.99563737306E-02  0.23888083825E-01  0.00000000000E+00 0. -1.
     999901    1    3    3    0    0 -0.58867552372E-01 -0.60500185750E-01  0.99580007368E-01  0.88963016983E+00  0.88000000000E+00 0.  1.
        -11    1    4    4    0    0  0.45464743067E-01  0.26690926604E-01 -0.94386540358E-01  0.10811349845E+00  0.51100000000E-03 0.  1.
         11    1    4    4    0    0  0.10837088150E-01  0.12247064315E-01 -0.15149840741E-01  0.22298247899E-01  0.51100000000E-03 0. -1.
</event>
<event>
 8    1  0.1119901E+005  0.1043930E+01  0.7957747E-01            NaN
         13   -1    0    0    0    0  0.00000000000E+00  0.00000000000E+00  0.74505805969E-08  0.10566000000E+00  0.10566000000E+00 0. -1.
     999900   -1    0    0    0    0 -0.00000000000E+00 -0.00000000000E+00 -0.74505805969E-08  0.93827000000E+00  0.93827000000E+00 0. -1.
     999902    2    1    2    0    0 -0.18200922644E-01  0.15831474312E-01 -0.75299831588E-02  0.10186592697E+01  0.10183457654E+01 0.  0.
     999903    2    3    3    0    0 -0.18181308758E-02 -0.10521071352E+00 -0.70066129155E-01  0.12802445303E+00  0.20208866354E-01 0.  0.
         14    1    1    2    0    0  0.18200922644E-01 -0.15831474312E-01  0.75299831588E-02  0.25270730309E-01  0.00000000000E+00 0. -1.
     999901    1    3    3    0    0 -0.16382791769E-01  0.12104218783E+00  0.62536145996E-01  0.89063481667E+00  0.88000000000E+00 0.  1.
        -11    1    4    4    0    0  0.90159475008E-02 -0.39853161795E-01 -0.28314251634E-01  0.49714382033E-01  0.51100000000E-03 0. -1.
         11    1    4    4    0    0 -0.10834078377E-01 -0.65357551721E-01 -0.41751877521E-01  0.78310070992E-01  0.51100000000E-03 0.  1.
</event>
<event>
 8    1  0.1119901E+005  0.1043930E+01  0.7957747E-01            NaN
         13   -1    0    0    0    0  0.00000000000E+00  0.00000000000E+00  0.74505805969E-08  0.10566000000E+00  0.10566000000E+00 0.  1.
     999900   -1    0    0    0    0 -0.00000000000E+00 -0.00000000000E+00 -0.74505805969E-08  0.93827000000E+00  0.93827000000E+00 0. -1.
     999902    2    1    2    0    0  0.65750413441E-02  0.22880533355E-01 -0.34537494562E-02  0.10198742655E+01  0.10195905252E+01 0.  0.
     999903    2    3    3    0    0 -0.84111976843E-01  0.96095727005E-01  0.25537387007E-01  0.13171601058E+00  0.19691010932E-01 0.  0.
         14    1    1    2    0    0 -0.65750413441E-02 -0.22880533355E-01  0.34537494562E-02  0.24055734463E-01  0.00000000000E+00 0.  1.
     999901    1    3    3    0    0  0.90687018188E-01 -0.73215193651E-01 -0.28991136463E-01  0.88815825495E+00  0.88000000000E+00 0. -1.
        -11    1    4    4    0    0 -0.47409520417E-01  0.44469825848E-01  0.53110275038E-02  0.65220366231E-01  0.51100000000E-03 0. -1.
         11    1    4    4    0    0 -0.36702456426E-01  0.51625901158E-01  0.20226359503E-01  0.66495644352E-01  0.51100000000E-03 0.  1.
</event>
<event>
 8    1  0.1119901E+005  0.1043930E+01  0.7957747E-01            NaN
         13   -1    0    0    0    0  0.00000000000E+00  0.00000000000E+00  0.74505805969E-08  0.10566000000E+00  0.10566000000E+00 0.  1.
     999900   -1    0    0    0    0 -0.00000000000E+00 -0.00000000000E+00 -0.74505805969E-08  0.93827000000E+00  0.93827000000E+00 0.  1.
     999902    2    1    2    0    0  0.14594498924E-01 -0.13467373143E-01 -0.12573494387E-01  0.10204254834E+01  0.10201547456E+01 0.  0.
     999903    2    3    3    0    0 -0.30785809786E-01 -0.70090483347E-02 -0.12654414275E+00  0.13189276537E+00  0.19631318055E-01 0.  0.
         14    1    1    2    0    0 -0.14594498924E-01  0.13467373143E-01  0.12573494387E-01  0.23504516573E-01  0.00000000000E+00 0.  1.
     999901    1    3    3    0    0  0.45380308710E-01 -0.64583248087E-02  0.11397064836E+00  0.88853271806E+00  0.88000000000E+00 0. -1.
        -11    1    4    4    0    0 -0.14727595091E-01 -0.12764381707E-01 -0.55399890443E-01  0.58730234800E-01  0.51100000000E-03 0. -1.
         11    1    4    4    0    0 -0.16058214695E-01  0.57553333721E-02 -0.71144252307E-01  0.73162530565E-01  0.51100000000E-03 0.  1.
</event>
<event>
 8    1  0.1119901E+005  0.1043930E+01  0.7957747E-01            NaN
         13   -1    0    0    0    0  0.00000000000E+00  0.00000000000E+00  0.74505805969E-08  0.10566000000E+00  0.10566000000E+00 0.  1.
     999900   -1    0    0    0    0 -0.00000000000E+00 -0.00000000000E+00 -0.74505805969E-08  0.93827000000E+00  0.93827000000E+00 0.  1.
     999902    2    1    2    0    0  0.14733502362E-01 -0.23950148271E-02 -0.19419023965E-01  0.10194369259E+01  0.10191426471E+01 0.  0.
     999903    2    3    3    0    0  0.62957940578E-01 -0.98870433313E-01 -0.57379810366E-01  0.13203953795E+00  0.20073168120E-01 0.  0.
         14    1    1    2    0    0 -0.14733502362E-01  0.23950148271E-02  0.19419023965E-01  0.24493074115E-01  0.00000000000E+00 0.  1.
     999901    1    3    3    0    0 -0.48224438216E-01  0.96475418486E-01  0.37960786401E-01  0.88739738794E+00  0.88000000000E+00 0. -1.
        -11    1    4    4    0    0  0.47845913933E-01 -0.57108130328E-01 -0.35705100899E-01  0.82617706219E-01  0.51100000000E-03 0.  1.
         11    1    4    4    0    0  0.15112026645E-01 -0.41762302985E-01 -0.21674709467E-01  0.49421831728E-01  0.51100000000E-03 0. -1.
</event>
<event>
 7    1  0.1119901E+005  0.1043930E+01  0.7957747E-01            NaN
         13   -1    0    0    0    0  0.00000000000E+00  0.00000000000E+00  0.74505805969E-08  0.10566000000E+00  0.10566000000E+00 0. -1.
     999900   -1    0    0    0    0 -0.00000000000E+00 -0.00000000000E+00 -0.74505805969E-08  0.93827000000E+00  0.93827000000E+00 0.  1.
     999903    2    1    2    0    0  0.44435706830E-01 -0.93241079218E-01  0.52124881386E-01  0.11736431255E+00  0.19721757166E-01 0.  0.
         14    1    1    2    0    0 -0.37327247507E-01  0.19110985037E-01 -0.35612615876E-02  0.42086051604E-01  0.00000000000E+00 0.  1.
     999901    1    1    2    0    0 -0.71084593224E-02  0.74130094181E-01 -0.48563619798E-01  0.88447963585E+00  0.88000000000E+00 0.  1.
        -11    1    3    3    0    0  0.31112146917E-01 -0.57226155343E-01  0.22689330717E-01  0.68977281698E-01  0.51100000000E-03 0. -1.
         11    1    3    3    0    0  0.13323559913E-01 -0.36014923875E-01  0.29435550669E-01  0.48387030852E-01  0.51100000000E-03 0.  1.
</event>
<event>
 8    1  0.1119901E+005  0.1043930E+01  0.7957747E-01            NaN
         13   -1    0    0    0    0  0.00000000000E+00  0.00000000000E+00  0.74505805969E-08  0.10566000000E+00  0.10566000000E+00 0. -1.
     999900   -1    0    0    0    0 -0.00000000000E+00 -0.00000000000E+00 -0.74505805969E-08  0.93827000000E+00  0.93827000000E+00 0. -1.
     999902    2    1    2    0    0  0.12149206055E-01 -0.25028717859E-02  0.19914371097E-01  0.10204683344E+01  0.10201985943E+01 0.  0.
     999903    2    3    3    0    0  0.28328142431E-01  0.12062453733E-01  0.12828565163E+00  0.13355332096E+00  0.20767635412E-01 0.  0.
         14    1    1    2    0    0 -0.12149206055E-01  0.25028717859E-02 -0.19914371097E-01  0.23461665566E-01  0.00000000000E+00 0.  1.
     999901    1    3    3    0    0 -0.16178936376E-01 -0.14565325519E-01 -0.10837128053E+00  0.88691501348E+00  0.88000000000E+00 0. -1.
        -11    1    4    4    0    0  0.17861575548E-01  0.17711451233E-01  0.90942404923E-01  0.94358431102E-01  0.51100000000E-03 0. -1.
         11    1    4    4    0    0  0.10466566882E-01 -0.56489974998E-02  0.37343246707E-01  0.39194889854E-01  0.51100000000E-03 0.  1.
</event>
<event>
 8    1  0.1119901E+005  0.1043930E+01  0.7957747E-01            NaN
         13   -1    0    0    0    0  0.00000000000E+00  0.00000000000E+00  0.74505805969E-08  0.10566000000E+00  0.10566000000E+00 0.  1.
     999900   -1    0    0    0    0 -0.00000000000E+00 -0.00000000000E+00 -0.74505805969E-08  0.93827000000E+00  0.93827000000E+00 0.  1.
     999902    2    1    2    0    0  0.14476305960E-02 -0.22759474794E-01  0.10477312653E-01  0.10188329203E+01  0.10185237632E+01 0.  0.
     999903    2    3    3    0    0 -0.92761414176E-01 -0.90514896649E-01  0.40562583871E-02  0.13119145485E+00  0.19927822737E-01 0.  0.
         14    1    1    2    0    0 -0.14476305960E-02  0.22759474794E-01 -0.10477312653E-01  0.25097079664E-01  0.00000000000E+00 0. -1.
     999901    1    3    3    0    0  0.94209044772E-01  0.67755421856E-01  0.64210542657E-02  0.88764146548E+00  0.88000000000E+00 0. -1.
        -11    1    4    4    0    0 -0.19015070077E-01 -0.96249223765E-02  0.42051342432E-02  0.21729157733E-01  0.51100000000E-03 0.  1.
         11    1    4    4    0    0 -0.73746344099E-01 -0.80889974273E-01 -0.14887585616E-03  0.10946229712E+00  0.51100000000E-03 0. -1.
</event>
<event>
 8    1  0.1119901E+005  0.1043930E+01  0.7957747E-01            NaN
         13   -1    0    0    0    0  0.00000000000E+00  0.00000000000E+00  0.74505805969E-08  0.10566000000E+00  0.10566000000E+00 0. -1.
     999900   -1    0    0    0    0 -0.00000000000E+00 -0.00000000000E+00 -0.74505805969E-08  0.93827000000E+00  0.93827000000E+00 0. -1.
     999902    2    1    2    0    0  0.22664483048E-01 -0.91816823826E-02 -0.23179907886E-02  0.10193667110E+01  0.10190707220E+01 0.  0.
     999903    2    3    3    0    0  0.56729994423E-01 -0.93614678622E-01 -0.71004251542E-01  0.13200703631E+00  0.20056260317E-01 0.  0.
         14    1    1    2    0    0 -0.22664483048E-01  0.91816823826E-02  0.23179907886E-02  0.24563288959E-01  0.00000000000E+00 0. -1.
     999901    1    3    3    0    0 -0.34065511375E-01  0.84432996240E-01  0.68686260754E-01  0.88735967473E+00  0.88000000000E+00 0.  1.
        -11    1    4    4    0    0  0.34292490001E-01 -0.43670424509E-01 -0.26911437989E-01  0.61705489730E-01  0.51100000000E-03 0. -1.
         11    1    4    4    0    0  0.22437504422E-01 -0.49944254113E-01 -0.44092813554E-01  0.70301546581E-01  0.51100000000E-03 0.  1.
</event>
<event>
 7    1  0.2777284E+005  0.1043930E+01  0.7957747E-01            NaN
         13   -1    0    0    0    0  0.00000000000E+00  0.00000000000E+00  0.74505805969E-08  0.10566000000E+00  0.10566000000E+00 0.  1.
     999900   -1    0    0    0    0 -0.00000000000E+00 -0.00000000000E+00 -0.74505805969E-08  0.93827000000E+00  0.93827000000E+00 0. -1.
     999903    2    1    2    0    0 -0.11557402603E-01 -0.42030994272E-01 -0.86477186373E-01  0.98795561056E-01  0.19546894559E-01 0.  0.
         14    1    1    2    0    0 -0.32434770393E-01  0.44357729570E-01  0.29064200063E-01  0.62163898111E-01  0.00000000000E+00 0.  1.
     999901    1    1    2    0    0  0.43992172996E-01 -0.23267352980E-02  0.57412986310E-01  0.88297054083E+00  0.88000000000E+00 0.  1.
        -11    1    3    3    0    0 -0.17040716087E-01 -0.29292852507E-01 -0.61824215681E-01  0.70504978394E-01  0.51100000000E-03 0. -1.
         11    1    3    3    0    0  0.54833134845E-02 -0.12738141765E-01 -0.24652970692E-01  0.28290582662E-01  0.51100000000E-03 0.  1.
</event>
<event>
 8    1  0.1119901E+005  0.1043930E+01  0.7957747E-01            NaN
         13   -1    0    0    0    0  0.00000000000E+00  0.00000000000E+00  0.74505805969E-08  0.10566000000E+00  0.10566000000E+00 0. -1.
     999900   -1    0    0    0    0 -0.00000000000E+00 -0.00000000000E+00 -0.74505805969E-08  0.93827000000E+00  0.93827000000E+00 0. -1.
     999902    2    1    2    0    0 -0.20460228392E-01  0.10073789173E-01 -0.57220742693E-02  0.10204173585E+01  0.10201464313E+01 0.  0.
     999903    2    3    3    0    0 -0.65031791534E-01  0.11113637793E+00  0.26947643634E-01  0.13291097460E+00  0.18939991053E-01 0.  0.
         14    1    1    2    0    0  0.20460228392E-01 -0.10073789173E-01  0.57220742693E-02  0.23512641453E-01  0.00000000000E+00 0. -1.
     999901    1    3    3    0    0  0.44571563142E-01 -0.10106258876E+00 -0.32669717903E-01  0.88750638395E+00  0.88000000000E+00 0. -1.
        -11    1    4    4    0    0 -0.43621793023E-01  0.56516495423E-01  0.12370291663E-01  0.72458680076E-01  0.51100000000E-03 0.  1.
         11    1    4    4    0    0 -0.21409998511E-01  0.54619882506E-01  0.14577351971E-01  0.60452294520E-01  0.51100000000E-03 0. -1.
</event>
<event>
 8    1  0.1119901E+005  0.1043930E+01  0.7957747E-01            NaN
         13   -1    0    0    0    0  0.00000000000E+00  0.00000000000E+00  0.74505805969E-08  0.10566000000E+00  0.10566000000E+00 0.  1.
     999900   -1    0    0    0    0 -0.00000000000E+00 -0.00000000000E+00 -0.74505805969E-08  0.93827000000E+00  0.93827000000E+00 0. -1.
     999902    2    1    2    0    0 -0.61564808211E-03 -0.46380781046E-02 -0.23194632334E-01  0.10202681793E+01  0.10199937627E+01 0.  0.
     999903    2    3    3    0    0  0.53919211389E-01 -0.11774230225E+00 -0.50038665907E-02  0.13116890451E+00  0.20241337261E-01 0.  0.
         14    1    1    2    0    0  0.61564808211E-03  0.46380781046E-02  0.23194632334E-01  0.23661820728E-01  0.00000000000E+00 0.  1.
     999901    1    3    3    0    0 -0.54534859471E-01  0.11310422415E+00 -0.18190765743E-01  0.88909927476E+00  0.88000000000E+00 0.  1.
        -11    1    4    4    0    0  0.37611158588E-01 -0.57989247341E-01 -0.17339430675E-02  0.69142025838E-01  0.51100000000E-03 0.  1.
         11    1    4    4    0    0  0.16308052801E-01 -0.59753054911E-01 -0.32699235232E-02  0.62026878675E-01  0.51100000000E-03 0. -1.
</event>
<event>
 8    1  0.1119901E+005  0.1043930E+01  0.7957747E-01            NaN
         13   -1    0    0    0    0  0.00000000000E+00  0.00000000000E+00  0.74505805969E-08  0.10566000000E+00  0.10566000000E+00 0.  1.
     999900   -1    0    0    0    0 -0.00000000000E+00 -0.00000000000E+00 -0.74505805969E-08  0.93827000000E+00  0.93827000000E+00 0.  1.
     999902    2    1    2    0    0 -0.20271417269E-01 -0.10479297496E-01  0.73434552389E-02  0.10199576749E+01  0.10196759222E+01 0.  0.
     999903    2    3    3    0    0  0.28779289449E-01  0.89898820839E-01 -0.84568478316E-01  0.12814517110E+00  0.18955523258E-01 0.  0.
         14    1    1    2    0    0  0.20271417269E-01  0.10479297496E-01 -0.73434552389E-02  0.23972325064E-01  0.00000000000E+00 0. -1.
     999901    1    3    3    0    0 -0.49050706718E-01 -0.10037811834E+00  0.91911933555E-01  0.89181250384E+00  0.88000000000E+00 0. -1.
        -11    1    4    4    0    0  0.31355539533E-01  0.85667234540E-01 -0.81224049551E-01  0.12214602850E+00  0.51100000000E-03 0. -1.
         11    1    4    4    0    0 -0.25762500840E-02  0.42315862996E-02 -0.33444287652E-02  0.59991425947E-02  0.51100000000E-03 0.  1.
</event>
<event>
 8    1  0.1119901E+005  0.1043930E+01  0.7957747E-01            NaN
         13   -1    0    0    0    0  0.00000000000E+00  0.00000000000E+00  0.74505805969E-08  0.10566000000E+00  0.10566000000E+00 0.  1.
     999900   -1    0    0    0    0 -0.00000000000E+00 -0.00000000000E+00 -0.74505805969E-08  0.93827000000E+00  0.93827000000E+00 0.  1.
     999902    2    1    2    0    0 -0.21746181127E-01  0.58356628463E-02  0.63600268162E-02  0.10205333914E+01  0.10202651624E+01 0.  0.
     999903    2    3    3    0    0  0.64497085865E-01  0.10552613365E+00 -0.33257636121E-01  0.12983386274E+00  0.21333602270E-01 0.  0.
         14    1    1    2    0    0  0.21746181127E-01 -0.58356628463E-02 -0.63600268162E-02  0.23396608634E-01  0.00000000000E+00 0. -1.
     999901    1    3    3    0    0 -0.86243266992E-01 -0.99690470807E-01  0.39617662937E-01  0.89069952862E+00  0.88000000000E+00 0. -1.
        -11    1    4    4    0    0  0.16761096195E-01  0.22103181667E-01  0.10870609129E-02  0.27765586755E-01  0.51100000000E-03 0.  1.
         11    1    4    4    0    0  0.47735989670E-01  0.83422951987E-01 -0.34344697034E-01  0.10206827599E+00  0.51100000000E-03 0. -1.
</event>
<event>
 8    1  0.1119901E+005  0.1043930E+01  0.7957747E-01            NaN
         13   -1    0    0    0    0  0.00000000000E+00  0.00000000000E+00  0.74505805969E-08  0.10566000000E+00  0.10566000000E+00 0. -1.
     999900   -1    0    0    0    0 -0.00000000000E+00 -0.00000000000E+00 -0.74505805969E-08  0.93827000000E+00  0.93827000000E+00 0.  1.
     999902    2    1    2    0    0  0.16971316215E-01 -0.14659479959E-02  0.10767876729E-01  0.10237775374E+01  0.10235791735E+01 0.  0.
     999903    2    3    3    0    0  0.13230342328E+00  0.19949964425E-01  0.13801089912E-01  0.13598852163E+00  0.20005275317E-01 0.  0.
         14    1    1    2    0    0 -0.16971316215E-01  0.14659479959E-02 -0.10767876729E-01  0.20152462551E-01  0.00000000000E+00 0.  1.
     999901    1    3    3    0    0 -0.11533210706E+00 -0.21415912421E-01 -0.30332131830E-02  0.88778901582E+00  0.88000000000E+00 0. -1.
        -11    1    4    4    0    0  0.55565089179E-01 -0.14405800529E-02  0.41550312208E-02  0.55741185956E-01  0.51100000000E-03 0. -1.
         11    1    4    4    0    0  0.76738334101E-01  0.21390544478E-01  0.96460586907E-02  0.80247335675E-01  0.51100000000E-03 0.  1.
</event>
<event>
 8    1  0.1119901E+005  0.1043930E+01  0.7957747E-01            NaN
         13   -1    0    0    0    0  0.00000000000E+00  0.00000000000E+00  0.74505805969E-08  0.10566000000E+00  0.10566000000E+00 0.  1.
     999900   -1    0    0    0    0 -0.00000000000E+00 -0.00000000000E+00 -0.74505805969E-08  0.93827000000E+00  0.93827000000E+00 0. -1.
     999902    2    1    2    0    0  0.40983808460E-02 -0.23506264152E-01 -0.83789932388E-03  0.10200544214E+01  0.10197749650E+01 0.  0.
     999903    2    3    3    0    0 -0.68673041095E-01 -0.82908757579E-02 -0.10862980432E+00  0.13036555289E+00  0.20248896273E-01 0.  0.
         14    1    1    2    0    0 -0.40983808460E-02  0.23506264152E-01  0.83789932388E-03  0.23875578637E-01  0.00000000000E+00 0. -1.
     999901    1    3    3    0    0  0.72771421941E-01 -0.15215388395E-01  0.10779190500E+00  0.88968886847E+00  0.88000000000E+00 0. -1.
        -11    1    4    4    0    0 -0.28172357714E-01  0.39110421532E-02 -0.31854621698E-01  0.42707798286E-01  0.51100000000E-03 0. -1.
         11    1    4    4    0    0 -0.40500683381E-01 -0.12201917911E-01 -0.76775182624E-01  0.87657754608E-01  0.51100000000E-03 0.  1.
</event>
<event>
 8    1  0.1119901E+005  0.1043930E+01  0.7957747E-01            NaN
         13   -1    0    0    0    0  0.00000000000E+00  0.00000000000E+00  0.74505805969E-08  0.10566000000E+00  0.10566000000E+00 0. -1.
     999900   -1    0    0    0    0 -0.00000000000E+00 -0.00000000000E+00 -0.74505805969E-08  0.93827000000E+00  0.93827000000E+00 0.  1.
     999902    2    1    2    0    0  0.19278661616E-01 -0.56691361287E-02  0.13919865179E-01  0.10194847848E+01  0.10191916689E+01 0.  0.
     999903    2    3    3    0    0 -0.28117764804E-01  0.62453764506E-01 -0.10579747233E+00  0.12750978982E+00  0.19353551314E-01 0.  0.
         14    1    1    2    0    0 -0.19278661616E-01  0.56691361287E-02 -0.13919865179E-01  0.24445215171E-01  0.00000000000E+00 0.  1.
     999901    1    3    3    0    0  0.47396426420E-01 -0.68122900635E-01  0.11971733751E+00  0.89197499501E+00  0.88000000000E+00 0. -1.
        -11    1    4    4    0    0 -0.15937711299E-01  0.16755546044E-01 -0.26463639270E-01  0.35147464902E-01  0.51100000000E-03 0.  1.
         11    1    4    4    0    0 -0.12180053505E-01  0.45698218462E-01 -0.79333833063E-01  0.92362324914E-01  0.51100000000E-03 0. -1.
</event>
<event>
 8    1  0.1119901E+005  0.1043930E+01  0.7957747E-01            NaN
         13   -1    0    0    0    0  0.00000000000E+00  0.00000000000E+00  0.74505805969E-08  0.10566000000E+00  0.10566000000E+00 0.  1.
     999900   -1    0    0    0    0 -0.00000000000E+00 -0.00000000000E+00 -0.74505805969E-08  0.93827000000E+00  0.93827000000E+00 0. -1.
     999902    2    1    2    0    0 -0.20708480686E-01  0.50430189296E-02 -0.10442549116E-01  0.10201956358E+01  0.10199195141E+01 0.  0.
     999903    2    3    3    0    0  0.53254708834E-01  0.11573100327E+00  0.15089479483E-01  0.12981691426E+00  0.19874851039E-01 0.  0.
         14    1    1    2    0    0  0.20708480686E-01 -0.50430189296E-02  0.10442549116E-01  0.23734364207E-01  0.00000000000E+00 0.  1.
     999901    1    3    3    0    0 -0.73963189521E-01 -0.11068798435E+00 -0.25532028599E-01  0.89037872154E+00  0.88000000000E+00 0. -1.
        -11    1    4    4    0    0  0.42974879423E-01  0.75185415031E-01  0.15526434988E-01  0.87983056319E-01  0.51100000000E-03 0. -1.
         11    1    4    4    0    0  0.10279829411E-01  0.40545588244E-01 -0.43695550504E-03  0.41833857937E-01  0.51100000000E-03 0.  1.
</event>
<event>
 8    1  0.1119901E+005  0.1043930E+01  0.7957747E-01            NaN
         13   -1    0    0    0    0  0.00000000000E+00  0.00000000000E+00  0.74505805969E-08  0.10566000000E+00  0.10566000000E+00 0. -1.
     999900   -1    0    0    0    0 -0.00000000000E+00 -0.00000000000E+00 -0.74505805969E-08  0.93827000000E+00  0.93827000000E+00 0.  1.
     999902    2    1    2    0    0 -0.10660998754E-01  0.20617176560E-01  0.90565185400E-05  0.10207195509E+01  0.10204556221E+01 0.  0.
     999903    2    3    3    0    0  0.93062722964E-01 -0.20742615166E-01 -0.85140792195E-01  0.12958558819E+00  0.21273074118E-01 0.  0.
         14    1    1    2    0    0  0.10660998754E-01 -0.20617176560E-01 -0.90565185400E-05  0.23210449064E-01  0.00000000000E+00 0. -1.
     999901    1    3    3    0    0 -0.10372372172E+00  0.41359791725E-01  0.85149848714E-01  0.89113396274E+00  0.88000000000E+00 0. -1.
        -11    1    4    4    0    0  0.42618110523E-01 -0.19840433418E-01 -0.45442280479E-01  0.65385075658E-01  0.51100000000E-03 0. -1.
         11    1    4    4    0    0  0.50444612441E-01 -0.90218174757E-03 -0.39698511716E-01  0.64200512535E-01  0.51100000000E-03 0.  1.
</event>
<event>
 8    1  0.1119901E+005  0.1043930E+01  0.7957747E-01            NaN
         13   -1    0    0    0    0  0.00000000000E+00  0.00000000000E+00  0.74505805969E-08  0.10566000000E+00  0.10566000000E+00 0.  1.
     999900   -1    0    0    0    0 -0.00000000000E+00 -0.00000000000E+00 -0.74505805969E-08  0.93827000000E+00  0.93827000000E+00 0.  1.
     999902    2    1    2    0    0 -0.14753236285E-01  0.63721007740E-02  0.19814533555E-01  0.10184177012E+01  0.10180980978E+01 0.  0.
     999903    2    3    3    0    0 -0.14266637225E-01  0.11174619025E+00  0.63723905717E-01  0.13104406600E+00  0.20519822165E-01 0.  0.
         14    1    1    2    0    0  0.14753236285E-01 -0.63721007740E-02 -0.19814533555E-01  0.25512298782E-01  0.00000000000E+00 0. -1.
     999901    1    3    3    0    0 -0.48659906057E-03 -0.10537408948E+00 -0.43909372162E-01  0.88737363522E+00  0.88000000000E+00 0.  1.
        -11    1    4    4    0    0 -0.15145903590E-01  0.41372085452E-01  0.26691706753E-01  0.51514621038E-01  0.51100000000E-03 0.  1.
         11    1    4    4    0    0  0.87926636577E-03  0.70374104797E-01  0.37032198964E-01  0.79529444965E-01  0.51100000000E-03 0. -1.
</event>
<event>
 8    1  0.1119901E+005  0.1043930E+01  0.7957747E-01            NaN
         13   -1    0    0    0    0  0.00000000000E+00  0.00000000000E+00  0.74505805969E-08  0.10566000000E+00  0.10566000000E+00 0.  1.
     999900   -1    0    0    0    0 -0.00000000000E+00 -0.00000000000E+00 -0.74505805969E-08  0.93827000000E+00  0.93827000000E+00 0. -1.
     999902    2    1    2    0    0  0.10069842221E-01  0.19045155006E-01  0.10705042107E-01  0.10198734504E+01  0.10195896906E+01 0.  0.
     999903    2    3    3    0    0  0.39245151088E-01  0.80962283342E-01  0.95999231475E-01  0.13310401692E+00  0.20143328167E-01 0.  0.
         14    1    1    2    0    0 -0.10069842221E-01 -0.19045155006E-01 -0.10705042107E-01  0.24056549588E-01  0.00000000000E+00 0. -1.
     999901    1    3    3    0    0 -0.29175308867E-01 -0.61917128336E-01 -0.85294189368E-01  0.88676943349E+00  0.88000000000E+00 0. -1.
        -11    1    4    4    0    0  0.41324856358E-01  0.72468618049E-01  0.86146097444E-01  0.11992020506E+00  0.51100000000E-03 0.  1.
         11    1    4    4    0    0 -0.20797052704E-02  0.84936652930E-02  0.98531340313E-02  0.13183811868E-01  0.51100000000E-03 0. -1.
</event>
<event>
 8    1  0.1119901E+005  0.1043930E+01  0.7957747E-01            NaN
         13   -1    0    0    0    0  0.00000000000E+00  0.00000000000E+00  0.74505805969E-08  0.10566000000E+00  0.10566000000E+00 0. -1.
     999900   -1    0    0    0    0 -0.00000000000E+00 -0.00000000000E+00 -0.74505805969E-08  0.93827000000E+00  0.93827000000E+00 0.  1.
     999902    2    1    2    0    0 -0.20861480993E-01  0.20940139635E-02 -0.11722098553E-01  0.10199093031E+01  0.10196263986E+01 0.  0.
     999903    2    3    3    0    0 -0.11421362293E+00  0.15095670296E-01 -0.63806871725E-01  0.13334487283E+00  0.20902327750E-01 0.  0.
         14    1    1    2    0    0  0.20861480993E-01 -0.20940139635E-02  0.11722098553E-01  0.24020696872E-01  0.00000000000E+00 0. -1.
     999901    1    3    3    0    0  0.93352141941E-01 -0.13001656333E-01  0.52084773171E-01  0.88656443030E+00  0.88000000000E+00 0. -1.
        -11    1    4    4    0    0 -0.88607049214E-01  0.43317324391E-02 -0.54138794323E-01  0.10392902986E+00  0.51100000000E-03 0. -1.
         11    1    4    4    0    0 -0.25606573720E-01  0.10763937857E-01 -0.96680774013E-02  0.29415842968E-01  0.51100000000E-03 0.  1.
</event>
<event>
 8    1  0.1119901E+005  0.1043930E+01  0.7957747E-01            NaN
         13   -1    0    0    0    0  0.00000000000E+00  0.00000000000E+00  0.74505805969E-08  0.10566000000E+00  0.10566000000E+00 0. -1.
     999900   -1    0    0    0    0 -0.00000000000E+00 -0.00000000000E+00 -0.74505805969E-08  0.93827000000E+00  0.93827000000E+00 0. -1.
     999902    2    1    2    0    0  0.70571866827E-02  0.19002835358E-02  0.22771399722E-01  0.10200144902E+01  0.10197340873E+01 0.  0.
     999903    2    3    3    0    0  0.19146500974E-01 -0.10202951848E+00  0.78844606432E-01  0.13204390527E+00  0.21035917272E-01 0.  0.
         14    1    1    2    0    0 -0.70571866827E-02 -0.19002835358E-02 -0.22771399722E-01  0.23915509751E-01  0.00000000000E+00 0.  1.
     999901    1    3    3    0    0 -0.12089314291E-01  0.10392980202E+00 -0.56073206711E-01  0.88797058497E+00  0.88000000000E+00 0. -1.
        -11    1    4    4    0    0  0.64102680066E-02 -0.63031716553E-01  0.36671404278E-01  0.73206159852E-01  0.51100000000E-03 0. -1.
         11    1    4    4    0    0  0.12736232967E-01 -0.38997801930E-01  0.42173202154E-01  0.58837745423E-01  0.51100000000E-03 0.  1.
</event>
<event>
 8    1  0.1119901E+005  0.1043930E+01  0.7957747E-01            NaN
         13   -1    0    0    0    0  0.00000000000E+00  0.00000000000E+00  0.74505805969E-08  0.10566000000E+00  0.10566000000E+00 0.  1.
     999900   -1    0    0    0    0 -0.00000000000E+00 -0.00000000000E+00 -0.74505805969E-08  0.93827000000E+00  0.93827000000E+00 0. -1.
     999902    2    1    2    0    0  0.80287059662E-02  0.20437600773E-01 -0.67765405650E-02  0.10209500708E+01  0.10206914176E+01 0.  0.
     999903    2    3    3    0    0 -0.10226526135E-01 -0.10967839384E+00 -0.64463217641E-01  0.12932729277E+00  0.20883254408E-01 0.  0.
         14    1    1    2    0    0 -0.80287059662E-02 -0.20437600773E-01  0.67765405650E-02  0.22979929218E-01  0.00000000000E+00 0. -1.
     999901    1    3    3    0    0  0.18255232101E-01  0.13011599461E+00  0.57686677076E-01  0.89162277801E+00  0.88000000000E+00 0.  1.
        -11    1    4    4    0    0 -0.35087011846E-02 -0.37269123554E-01 -0.10847712552E-01  0.38977333709E-01  0.51100000000E-03 0.  1.
         11    1    4    4    0    0 -0.67178249501E-02 -0.72409270287E-01 -0.53615505089E-01  0.90349959063E-01  0.51100000000E-03 0. -1.
</event>
<event>
 8    1  0.1119901E+005  0.1043930E+01  0.7957747E-01            NaN
         13   -1    0    0    0    0  0.00000000000E+00  0.00000000000E+00  0.74505805969E-08  0.10566000000E+00  0.10566000000E+00 0.  1.
     999900   -1    0    0    0    0 -0.00000000000E+00 -0.00000000000E+00 -0.74505805969E-08  0.93827000000E+00  0.93827000000E+00 0.  1.
     999902    2    1    2    0    0  0.68271072245E-02 -0.19591963407E-01 -0.11074892062E-01  0.10204117590E+01  0.10201407013E+01 0.  0.
     999903    2    3    3    0    0  0.46834261445E-01 -0.54073409001E-01 -0.11069105848E+00  0.13321791152E+00  0.19419575619E-01 0.  0.
         14    1    1    2    0    0 -0.68271072245E-02  0.19591963407E-01  0.11074892062E-01  0.23518240950E-01  0.00000000000E+00 0. -1.
     999901    1    3    3    0    0 -0.40007154220E-01  0.34481445594E-01  0.99616166416E-01  0.88719384753E+00  0.88000000000E+00 0. -1.
        -11    1    4    4    0    0  0.13919056261E-01 -0.18781440104E-01 -0.21294713230E-01  0.31626073928E-01  0.51100000000E-03 0.  1.
         11    1    4    4    0    0  0.32915205184E-01 -0.35291968897E-01 -0.89396345248E-01  0.10159183759E+00  0.51100000000E-03 0. -1.
</event>
<event>
 8    1  0.1119901E+005  0.1043930E+01  0.7957747E-01            NaN
         13   -1    0    0    0    0  0.00000000000E+00  0.00000000000E+00  0.74505805969E-08  0.10566000000E+00  0.10566000000E+00 0.  1.
     999900   -1    0    0    0    0 -0.00000000000E+00 -0.00000000000E+00 -0.74505805969E-08  0.93827000000E+00  0.93827000000E+00 0. -1.
     999902    2    1    2    0    0  0.50047125639E-03  0.20125103235E-01 -0.13725119659E-01  0.10195650834E+01  0.10192739132E+01 0.  0.
     999903    2    3    3    0    0 -0.16400731710E-01 -0.12412155315E+00 -0.76078736947E-02  0.12764010379E+00  0.23642597087E-01 0.  0.
         14    1    1    2    0    0 -0.50047125639E-03 -0.20125103235E-01  0.13725119659E-01  0.24364916609E-01  0.00000000000E+00 0. -1.
     999901    1    3    3    0    0  0.16901202966E-01  0.14424665638E+00 -0.61172459640E-02  0.89192497960E+00  0.88000000000E+00 0. -1.
        -11    1    4    4    0    0 -0.14728830503E-01 -0.36682396650E-01 -0.71997992074E-02  0.40182519851E-01  0.51100000000E-03 0.  1.
         11    1    4    4    0    0 -0.16719012071E-02 -0.87439156497E-01 -0.40807448738E-03  0.87457583938E-01  0.51100000000E-03 0. -1.
</event>
<event>
 7    1  0.1119901E+005  0.1043930E+01  0.7957747E-01            NaN
         13   -1    0    0    0    0  0.00000000000E+00  0.00000000000E+00  0.74505805969E-08  0.10566000000E+00  0.10566000000E+00 0. -1.
     999900   -1    0    0    0    0 -0.00000000000E+00 -0.00000000000E+00 -0.74505805969E-08  0.93827000000E+00  0.93827000000E+00 0. -1.
     999903    2    1    2    0    0  0.10251079280E+00 -0.45560156502E-01 -0.24965230218E-01  0.11661592889E+00  0.19794485343E-01 0.  0.
         14    1    1    2    0    0 -0.19637182994E-01  0.16534332365E-01 -0.32102687202E-01  0.41104569433E-01  0.00000000000E+00 0.  1.
     999901    1    1    2    0    0 -0.82873609804E-01  0.29025824136E-01  0.57067917420E-01  0.88620950168E+00  0.88000000000E+00 0.  1.
        -11    1    3    3    0    0  0.38051247684E-01 -0.78724908590E-02 -0.13098274895E-01  0.41008529465E-01  0.51100000000E-03 0.  1.
         11    1    3    3    0    0  0.64459545113E-01 -0.37687665643E-01 -0.11866955323E-01  0.75607399423E-01  0.51100000000E-03 0. -1.
</event>
<event>
 8    1  0.1119901E+005  0.1043930E+01  0.7957747E-01            NaN
         13   -1    0    0    0    0  0.00000000000E+00  0.00000000000E+00  0.74505805969E-08  0.10566000000E+00  0.10566000000E+00 0.  1.
     999900   -1    0    0    0    0 -0.00000000000E+00 -0.00000000000E+00 -0.74505805969E-08  0.93827000000E+00  0.93827000000E+00 0. -1.
     999902    2    1    2    0    0 -0.29574980884E-02 -0.23529761185E-01  0.38434540866E-03  0.10202119862E+01  0.10199362493E+01 0.  0.
     999903    2    3    3    0    0  0.98627413415E-01 -0.39937013440E-01 -0.74208173201E-01  0.13108166056E+00  0.18794069433E-01 0.  0.
         14    1    1    2    0    0  0.29574980884E-02  0.23529761185E-01 -0.38434540866E-03  0.23718013782E-01  0.00000000000E+00 0. -1.
     999901    1    3    3    0    0 -0.10158491150E+00  0.16407252255E-01  0.74592518610E-01  0.88913032566E+00  0.88000000000E+00 0. -1.
        -11    1    4    4    0    0  0.85014553063E-01 -0.38305369186E-01 -0.70414309301E-01  0.11684695810E+00  0.51100000000E-03 0. -1.
         11    1    4    4    0    0  0.13612860352E-01 -0.16316442540E-02 -0.37938639000E-02  0.14234702464E-01  0.51100000000E-03 0.  1.
</event>
<event>
 8    1  0.1119901E+005  0.1043930E+01  0.7957747E-01            NaN
         13   -1    0    0    0    0  0.00000000000E+00  0.00000000000E+00  0.74505805969E-08  0.10566000000E+00  0.10566000000E+00 0. -1.
     999900   -1    0    0    0    0 -0.00000000000E+00 -0.00000000000E+00 -0.74505805969E-08  0.93827000000E+00  0.93827000000E+00 0.  1.
     999902    2    1    2    0    0 -0.77681451267E-02 -0.14005260441E-01  0.17702537876E-01  0.10200580238E+01  0.10197786528E+01 0.  0.
     999903    2    3    3    0    0  0.10252161467E+00 -0.82896717377E-02  0.78828485039E-01  0.13105134192E+00  0.19522398276E-01 0.  0.
         14    1    1    2    0    0  0.77681451267E-02  0.14005260441E-01 -0.17702537876E-01  0.23871976164E-01  0.00000000000E+00 0.  1.
     999901    1    3    3    0    0 -0.11028975979E+00 -0.57155887036E-02 -0.61125947164E-01  0.88900668191E+00  0.88000000000E+00 0.  1.
        -11    1    4    4    0    0  0.84998856033E-01 -0.13023825685E-01  0.69891847821E-01  0.11081316291E+00  0.51100000000E-03 0. -1.
         11    1    4    4    0    0  0.17522758635E-01  0.47341539470E-02  0.89366372187E-02  0.20238179008E-01  0.51100000000E-03 0.  1.
</event>
<event>
 8    1  0.1119901E+005  0.1043930E+01  0.7957747E-01            NaN
         13   -1    0    0    0    0  0.00000000000E+00  0.00000000000E+00  0.74505805969E-08  0.10566000000E+00  0.10566000000E+00 0. -1.
     999900   -1    0    0    0    0 -0.00000000000E+00 -0.00000000000E+00 -0.74505805969E-08  0.93827000000E+00  0.93827000000E+00 0.  1.
     999902    2    1    2    0    0 -0.23433993883E-01  0.67002546732E-02 -0.50881337066E-02  0.10190315144E+01  0.10187272906E+01 0.  0.
     999903    2    3    3    0    0 -0.11281173454E+00 -0.62767719963E-01  0.16184161336E-01  0.13152563238E+00  0.19255928317E-01 0.  0.
         14    1    1    2    0    0  0.23433993883E-01 -0.67002546732E-02  0.50881337066E-02  0.24898485629E-01  0.00000000000E+00 0.  1.
     999901    1    3    3    0    0  0.89377740661E-01  0.69467974636E-01 -0.21272295043E-01  0.88750588199E+00  0.88000000000E+00 0.  1.
        -11    1    4    4    0    0 -0.71714856755E-01 -0.42599933173E-01  0.19366715066E-01  0.85633555101E-01  0.51100000000E-03 0.  1.
         11    1    4    4    0    0 -0.41096877789E-01 -0.20167786790E-01 -0.31825537301E-02  0.45892077283E-01  0.51100000000E-03 0. -1.
</event>
<event>
 8    1  0.1119901E+005  0.1043930E+01  0.7957747E-01            NaN
         13   -1    0    0    0    0  0.00000000000E+00  0.00000000000E+00  0.74505805969E-08  0.10566000000E+00  0.10566000000E+00 0.  1.
     999900   -1    0    0    0    0 -0.00000000000E+00 -0.00000000000E+00 -0.74505805969E-08  0.93827000000E+00  0.93827000000E+00 0. -1.
     999902    2    1    2    0    0  0.11174689280E-01 -0.17576326313E-01 -0.10884111265E-01  0.10204296850E+01  0.10201590451E+01 0.  0.
     999903    2    3    3    0    0  0.11996085071E+00 -0.49048655680E-01 -0.24439125001E-01  0.13306917493E+00  0.17713219865E-01 0.  0.
         14    1    1    2    0    0 -0.11174689280E-01  0.17576326313E-01  0.10884111265E-01  0.23500315002E-01  0.00000000000E+00 0.  1.
     999901    1    3    3    0    0 -0.10878616143E+00  0.31472329367E-01  0.13555013736E-01  0.88736051007E+00  0.88000000000E+00 0. -1.
        -11    1    4    4    0    0  0.30556671590E-01 -0.66477377045E-02 -0.11279526975E-01  0.33247427645E-01  0.51100000000E-03 0. -1.
         11    1    4    4    0    0  0.89404179121E-01 -0.42400917975E-01 -0.13159598026E-01  0.99821747283E-01  0.51100000000E-03 0.  1.
</event>
<event>
 8    1  0.1119901E+005  0.1043930E+01  0.7957747E-01            NaN
         13   -1    0    0    0    0  0.00000000000E+00  0.00000000000E+00  0.74505805969E-08  0.10566000000E+00  0.10566000000E+00 0.  1.
     999900   -1    0    0    0    0 -0.00000000000E+00 -0.00000000000E+00 -0.74505805969E-08  0.93827000000E+00  0.93827000000E+00 0. -1.
     999902    2    1    2    0    0  0.55175126947E-02 -0.67665411122E-02 -0.22073181406E-01  0.10201928064E+01  0.10199166180E+01 0.  0.
     999903    2    3    3    0    0 -0.67755866096E-03 -0.12401343582E+00 -0.40568306843E-01  0.13220221919E+00  0.21256713920E-01 0.  0.
         14    1    1    2    0    0 -0.55175126947E-02  0.67665411122E-02  0.22073181406E-01  0.23737193649E-01  0.00000000000E+00 0.  1.
     999901    1    3    3    0    0  0.61950713556E-02  0.11724689471E+00  0.18495125436E-01  0.88799058717E+00  0.88000000000E+00 0.  1.
        -11    1    4    4    0    0  0.40946246305E-02 -0.78018501036E-01 -0.35049814234E-01  0.85629452022E-01  0.51100000000E-03 0.  1.
         11    1    4    4    0    0 -0.47721832915E-02 -0.45994934788E-01 -0.55184926088E-02  0.46572767163E-01  0.51100000000E-03 0. -1.
</event>
<event>
 8    1  0.1119901E+005  0.1043930E+01  0.7957747E-01            NaN
         13   -1    0    0    0    0  0.00000000000E+00  0.00000000000E+00  0.74505805969E-08  0.10566000000E+00  0.10566000000E+00 0.  1.
     999900   -1    0    0    0    0 -0.00000000000E+00 -0.00000000000E+00 -0.74505805969E-08  0.93827000000E+00  0.93827000000E+00 0. -1.
     999902    2    1    2    0    0  0.78190038938E-02 -0.18540606711E-01  0.76946313099E-02  0.10223870599E+01  0.10221600667E+01 0.  0.
     999903    2    3    3    0    0 -0.74653737011E-02  0.12285629856E+00  0.37389902020E-01  0.13047422436E+00  0.21820095066E-01 0.  0.
         14    1    1    2    0    0 -0.78190038938E-02  0.18540606711E-01 -0.76946313099E-02  0.21542940145E-01  0.00000000000E+00 0. -1.
     999901    1    3    3    0    0  0.15284377595E-01 -0.14139690527E+00 -0.29695270710E-01  0.89191283550E+00  0.88000000000E+00 0. -1.
        -11    1    4    4    0    0 -0.32573786115E-02  0.98291139068E-01  0.38270849725E-01  0.10553045814E+00  0.51100000000E-03 0.  1.
         11    1    4    4    0    0 -0.42079950896E-02  0.24565159492E-01 -0.88094770481E-03  0.24943766224E-01  0.51100000000E-03 0. -1.
</event>
<event>
 8    1  0.1119901E+005  0.1043930E+01  0.7957747E-01            NaN
         13   -1    0    0    0    0  0.00000000000E+00  0.00000000000E+00  0.74505805969E-08  0.10566000000E+00  0.10566000000E+00 0. -1.
     999900   -1    0    0    0    0 -0.00000000000E+00 -0.00000000000E+00 -0.74505805969E-08  0.93827000000E+00  0.93827000000E+00 0. -1.
     999902    2    1    2    0    0  0.22342696308E-01 -0.63422256001E-04 -0.87787390644E-02  0.10199244515E+01  0.10196419079E+01 0.  0.
     999903    2    3    3    0    0  0.47886168414E-01 -0.10171384516E+00  0.63242242445E-01  0.13078312456E+00  0.21583628467E-01 0.  0.
         14    1    1    2    0    0 -0.22342696308E-01  0.63422256001E-04  0.87787390644E-02  0.24005548531E-01  0.00000000000E+00 0. -1.
     999901    1    3    3    0    0 -0.25543472106E-01  0.10165042290E+00 -0.72020981509E-01  0.88914132691E+00  0.88000000000E+00 0. -1.
        -11    1    4    4    0    0  0.42849982188E-01 -0.83526173998E-01  0.43497412347E-01  0.10346510870E+00  0.51100000000E-03 0. -1.
         11    1    4    4    0    0  0.50361862264E-02 -0.18187671159E-01  0.19744830098E-01  0.27318015859E-01  0.51100000000E-03 0.  1.
</event>
<event>
 8    1  0.1119901E+005  0.1043930E+01  0.7957747E-01            NaN
         13   -1    0    0    0    0  0.00000000000E+00  0.00000000000E+00  0.74505805969E-08  0.10566000000E+00  0.10566000000E+00 0.  1.
     999900   -1    0    0    0    0 -0.00000000000E+00 -0.00000000000E+00 -0.74505805969E-08  0.93827000000E+00  0.93827000000E+00 0. -1.
     999902    2    1    2    0    0  0.22433232200E-01 -0.95187923307E-03  0.84504387394E-02  0.10199390455E+01  0.10196568495E+01 0.  0.
     999903    2    3    3    0    0 -0.11252438727E+00  0.42157056216E-01 -0.36558574919E-01  0.12747181887E+00  0.21761895319E-01 0.  0.
         14    1    1    2    0    0 -0.22433232200E-01  0.95187923307E-03 -0.84504387394E-02  0.23990954460E-01  0.00000000000E+00 0. -1.
     999901    1    3    3    0    0  0.13495761947E+00 -0.43108935449E-01  0.45009013658E-01  0.89246722667E+00  0.88000000000E+00 0. -1.
        -11    1    4    4    0    0 -0.44714289598E-01  0.63151875601E-02 -0.95946168921E-02  0.46168897350E-01  0.51100000000E-03 0. -1.
         11    1    4    4    0    0 -0.67810097667E-01  0.35841868656E-01 -0.26963958027E-01  0.81302921521E-01  0.51100000000E-03 0.  1.
</event>
<event>
 8    1  0.1119901E+005  0.1043930E+01  0.7957747E-01            NaN
         13   -1    0    0    0    0  0.00000000000E+00  0.00000000000E+00  0.74505805969E-08  0.10566000000E+00  0.10566000000E+00 0.  1.
     999900   -1    0    0    0    0 -0.00000000000E+00 -0.00000000000E+00 -0.74505805969E-08  0.93827000000E+00  0.93827000000E+00 0.  1.
     999902    2    1    2    0    0  0.18502217865E-01  0.96231106224E-02  0.11297943845E-01  0.10202112340E+01  0.10199354794E+01 0.  0.
     999903    2    3    3    0    0  0.98186581251E-01 -0.19871751276E-02 -0.85000665034E-01  0.13130301685E+00  0.19256572235E-01 0.  0.
         14    1    1    2    0    0 -0.18502217865E-01 -0.96231106224E-02 -0.11297943845E-01  0.23718765969E-01  0.00000000000E+00 0. -1.
     999901    1    3    3    0    0 -0.79684363386E-01  0.11610285750E-01  0.96298608879E-01  0.88890821718E+00  0.88000000000E+00 0. -1.
        -11    1    4    4    0    0  0.64411455345E-01  0.77139184196E-02 -0.52972493722E-01  0.83753724270E-01  0.51100000000E-03 0. -1.
         11    1    4    4    0    0  0.33775125906E-01 -0.97010935473E-02 -0.32028171312E-01  0.47549292577E-01  0.51100000000E-03 0.  1.
</event>
<event>
 8    1  0.1119901E+005  0.1043930E+01  0.7957747E-01            NaN
         13   -1    0    0    0    0  0.00000000000E+00  0.00000000000E+00  0.74505805969E-08  0.10566000000E+00  0.10566000000E+00 0. -1.
     999900   -1    0    0    0    0 -0.00000000000E+00 -0.00000000000E+00 -0.74505805969E-08  0.93827000000E+00  0.93827000000E+00 0.  1.
     999902    2    1    2    0    0 -0.13914563588E-01  0.15851249324E-01 -0.78235625936E-02  0.10214336599E+01  0.10211858970E+01 0.  0.
     999903    2    3    3    0    0 -0.43353101226E-01  0.64891597444E-01 -0.10708917414E+00  0.13400746870E+00  0.19987487208E-01 0.  0.
         14    1    1    2    0    0  0.13914563588E-01 -0.15851249324E-01  0.78235625936E-02  0.22496340072E-01  0.00000000000E+00 0. -1.
     999901    1    3    3    0    0  0.29438537638E-01 -0.49040348119E-01  0.99265611546E-01  0.88742619123E+00  0.88000000000E+00 0.  1.
        -11    1    4    4    0    0 -0.59670019418E-02  0.22972247897E-02 -0.34282038560E-02  0.72729675228E-02  0.51100000000E-03 0. -1.
         11    1    4    4    0    0 -0.37386099284E-01  0.62594372654E-01 -0.10366097028E+00  0.12673450118E+00  0.51100000000E-03 0.  1.
</event>
<event>
 8    1  0.1119901E+005  0.1043930E+01  0.7957747E-01            NaN
         13   -1    0    0    0    0  0.00000000000E+00  0.00000000000E+00  0.74505805969E-08  0.10566000000E+00  0.10566000000E+00 0.  1.
     999900   -1    0    0    0    0 -0.00000000000E+00 -0.00000000000E+00 -0.74505805969E-08  0.93827000000E+00  0.93827000000E+00 0.  1.
     999902    2    1    2    0    0  0.21888985351E-01 -0.39843379471E-03 -0.63937013987E-02  0.10211228554E+01  0.10208681207E+01 0.  0.
     999903    2    3    3    0    0 -0.31600536880E-01 -0.12037840266E+00 -0.35424878713E-01  0.13089865260E+00  0.19747948296E-01 0.  0.
         14    1    1    2    0    0 -0.21888985351E-01  0.39843379471E-03  0.63937013987E-02  0.22807144643E-01  0.00000000000E+00 0.  1.
     999901    1    3    3    0    0  0.53489522231E-01  0.11997996887E+00  0.29031177315E-01  0.89022420276E+00  0.88000000000E+00 0.  1.
        -11    1    4    4    0    0 -0.69961635929E-02 -0.63252217638E-01 -0.14491822499E-01  0.65269161030E-01  0.51100000000E-03 0.  1.
         11    1    4    4    0    0 -0.24604373287E-01 -0.57126185024E-01 -0.20933056214E-01  0.65629491570E-01  0.51100000000E-03 0. -1.
</event>
<event>
 8    1  0.1119901E+005  0.1043930E+01  0.7957747E-01            NaN
         13   -1    0    0    0    0  0.00000000000E+00  0.00000000000E+00  0.74505805969E-08  0.10566000000E+00  0.10566000000E+00 0. -1.
     999900   -1    0    0    0    0 -0.00000000000E+00 -0.00000000000E+00 -0.74505805969E-08  0.93827000000E+00  0.93827000000E+00 0. -1.
     999902    2    1    2    0    0 -0.27389729680E-02 -0.30137211317E-02  0.22719188219E-01  0.10208487088E+01  0.10205877426E+01 0.  0.
     999903    2    3    3    0    0  0.78742331325E-02 -0.12607638600E+00 -0.27728277821E-01  0.13079140369E+00  0.19500647067E-01 0.  0.
         14    1    1    2    0    0  0.27389729680E-02  0.30137211317E-02 -0.22719188219E-01  0.23081291154E-01  0.00000000000E+00 0.  1.
     999901    1    3    3    0    0 -0.10613206101E-01  0.12306266486E+00  0.50447466040E-01  0.89005730515E+00  0.88000000000E+00 0.  1.
        -11    1    4    4    0    0  0.85134646957E-02 -0.31313958244E-01 -0.12652634600E-01  0.34833796023E-01  0.51100000000E-03 0. -1.
         11    1    4    4    0    0 -0.63923156314E-03 -0.94762427751E-01 -0.15075643221E-01  0.95957607670E-01  0.51100000000E-03 0.  1.
</event>
<event>
 8    1  0.1119901E+005  0.1043930E+01  0.7957747E-01            NaN
         13   -1    0    0    0    0  0.00000000000E+00  0.00000000000E+00  0.74505805969E-08  0.10566000000E+00  0.10566000000E+00 0. -1.
     999900   -1    0    0    0    0 -0.00000000000E+00 -0.00000000000E+00 -0.74505805969E-08  0.93827000000E+00  0.93827000000E+00 0. -1.
     999902    2    1    2    0    0  0.14071614362E-01  0.13347165885E-01 -0.14162539860E-01  0.10199146986E+01  0.10196319226E+01 0.  0.
     999903    2    3    3    0    0  0.18278009164E-01  0.12940331728E+00 -0.39876534653E-02  0.13222654817E+00  0.19714322665E-01 0.  0.
         14    1    1    2    0    0 -0.14071614362E-01 -0.13347165885E-01  0.14162539860E-01  0.24015301439E-01  0.00000000000E+00 0. -1.
     999901    1    3    3    0    0 -0.42063948018E-02 -0.11605615140E+00 -0.10174886395E-01  0.88768815039E+00  0.88000000000E+00 0.  1.
        -11    1    4    4    0    0  0.19164876607E-01  0.66976707654E-01 -0.41701282229E-02  0.69791281361E-01  0.51100000000E-03 0.  1.
         11    1    4    4    0    0 -0.88686744364E-03  0.62426609627E-01  0.18247475767E-03  0.62435266808E-01  0.51100000000E-03 0. -1.
</event>
<event>
 8    1  0.1119901E+005  0.1043930E+01  0.7957747E-01            NaN
         13   -1    0    0    0    0  0.00000000000E+00  0.00000000000E+00  0.74505805969E-08  0.10566000000E+00  0.10566000000E+00 0. -1.
     999900   -1    0    0    0    0 -0.00000000000E+00 -0.00000000000E+00 -0.74505805969E-08  0.93827000000E+00  0.93827000000E+00 0.  1.
     999902    2    1    2    0    0 -0.11246262879E-02  0.20767482808E-01 -0.11162112920E-01  0.10203260620E+01  0.10200530020E+01 0.  0.
     999903    2    3    3    0    0  0.11762997286E+00  0.10784336525E-01  0.50307254131E-01  0.13016832250E+00  0.21444345041E-01 0.  0.
         14    1    1    2    0    0  0.11246262879E-02 -0.20767482808E-01  0.11162112920E-01  0.23603938046E-01  0.00000000000E+00 0.  1.
     999901    1    3    3    0    0 -0.11875459915E+00  0.99831462827E-02 -0.61469367051E-01  0.89015773946E+00  0.88000000000E+00 0. -1.
        -11    1    4    4    0    0  0.94541134013E-01  0.87200609300E-02  0.30643891434E-01  0.99766601056E-01  0.51100000000E-03 0. -1.
         11    1    4    4    0    0  0.23088838847E-01  0.20642755949E-02  0.19663362697E-01  0.30401721442E-01  0.51100000000E-03 0.  1.
</event>
<event>
 8    1  0.1152189E+005  0.1043930E+01  0.7957747E-01            NaN
         13   -1    0    0    0    0  0.00000000000E+00  0.00000000000E+00  0.74505805969E-08  0.10566000000E+00  0.10566000000E+00 0.  1.
     999900   -1    0    0    0    0 -0.00000000000E+00 -0.00000000000E+00 -0.74505805969E-08  0.93827000000E+00  0.93827000000E+00 0. -1.
     999902    2    1    2    0    0  0.20303946131E-03 -0.23038025429E-01  0.55088473172E-02  0.10202416223E+01  0.10199665821E+01 0.  0.
     999903    2    3    3    0    0 -0.48943077977E-01  0.11448203458E+00  0.27920835569E-01  0.12792474751E+00  0.91436777317E-02 0.  0.
         14    1    1    2    0    0 -0.20303946131E-03  0.23038025429E-01 -0.55088473172E-02  0.23688377730E-01  0.00000000000E+00 0.  1.
     999901    1    3    3    0    0  0.49146117438E-01 -0.13752006001E+00 -0.22411988252E-01  0.89231687476E+00  0.88000000000E+00 0. -1.
        -11    1    4    4    0    0 -0.35820525031E-01  0.79031000367E-01  0.23248411827E-01  0.89831836261E-01  0.51100000000E-03 0. -1.
         11    1    4    4    0    0 -0.13122552946E-01  0.35451034216E-01  0.46724237423E-02  0.38092911249E-01  0.51100000000E-03 0.  1.
</event>
<event>
 8    1  0.1119901E+005  0.1043930E+01  0.7957747E-01            NaN
         13   -1    0    0    0    0  0.00000000000E+00  0.00000000000E+00  0.74505805969E-08  0.10566000000E+00  0.10566000000E+00 0. -1.
     999900   -1    0    0    0    0 -0.00000000000E+00 -0.00000000000E+00 -0.74505805969E-08  0.93827000000E+00  0.93827000000E+00 0. -1.
     999902    2    1    2    0    0 -0.93674865301E-02  0.18057012935E-01  0.12569585318E-02  0.10235489925E+01  0.10233460581E+01 0.  0.
     999903    2    3    3    0    0  0.10577531395E+00 -0.73122010836E-01 -0.16371423487E-01  0.13120251347E+00  0.20268954678E-01 0.  0.
         14    1    1    2    0    0  0.93674865301E-02 -0.18057012935E-01 -0.12569585318E-02  0.20381007453E-01  0.00000000000E+00 0.  1.
     999901    1    3    3    0    0 -0.11514280048E+00  0.91179023771E-01  0.17628382019E-01  0.89234647908E+00  0.88000000000E+00 0.  1.
        -11    1    4    4    0    0  0.97310297840E-01 -0.70494645415E-01 -0.19609901244E-01  0.12175220099E+00  0.51100000000E-03 0.  1.
         11    1    4    4    0    0  0.84650161050E-02 -0.26273654209E-02  0.32384777571E-02  0.94503124761E-02  0.51100000000E-03 0. -1.
</event>
<event>
 8    1  0.1119901E+005  0.1043930E+01  0.7957747E-01            NaN
         13   -1    0    0    0    0  0.00000000000E+00  0.00000000000E+00  0.74505805969E-08  0.10566000000E+00  0.10566000000E+00 0. -1.
     999900   -1    0    0    0    0 -0.00000000000E+00 -0.00000000000E+00 -0.74505805969E-08  0.93827000000E+00  0.93827000000E+00 0.  1.
     999902    2    1    2    0    0  0.19803701581E-01 -0.19380757901E-02 -0.12473377487E-01  0.10204453693E+01  0.10201750947E+01 0.  0.
     999903    2    3    3    0    0 -0.70518185243E-01 -0.10598916124E+00 -0.15295108582E-01  0.12971946655E+00  0.19664254548E-01 0.  0.
         14    1    1    2    0    0 -0.19803701581E-01  0.19380757901E-02  0.12473377487E-01  0.23484630719E-01  0.00000000000E+00 0. -1.
     999901    1    3    3    0    0  0.90321886824E-01  0.10405108545E+00  0.28217310946E-02  0.89072590273E+00  0.88000000000E+00 0.  1.
        -11    1    4    4    0    0 -0.32708409045E-01 -0.52318259387E-01  0.23092642800E-02  0.61746531158E-01  0.51100000000E-03 0. -1.
         11    1    4    4    0    0 -0.37809776198E-01 -0.53670901850E-01 -0.17604372862E-01  0.67972935397E-01  0.51100000000E-03 0.  1.
</event>
<event>
 8    1  0.1119901E+005  0.1043930E+01  0.7957747E-01            NaN
         13   -1    0    0    0    0  0.00000000000E+00  0.00000000000E+00  0.74505805969E-08  0.10566000000E+00  0.10566000000E+00 0. -1.
     999900   -1    0    0    0    0 -0.00000000000E+00 -0.00000000000E+00 -0.74505805969E-08  0.93827000000E+00  0.93827000000E+00 0. -1.
     999902    2    1    2    0    0 -0.76940238081E-02 -0.16279671488E-01  0.17201952507E-01  0.10190275327E+01  0.10187232105E+01 0.  0.
     999903    2    3    3    0    0  0.26426236427E-01  0.12273112464E+00  0.71602977984E-02  0.12740596030E+00  0.20487408974E-01 0.  0.
         14    1    1    2    0    0  0.76940238081E-02  0.16279671488E-01 -0.17201952507E-01  0.24902467271E-01  0.00000000000E+00 0.  1.
     999901    1    3    3    0    0 -0.34120260235E-01 -0.13901079613E+00  0.10041654709E-01  0.89162157243E+00  0.88000000000E+00 0. -1.
        -11    1    4    4    0    0  0.16898910920E-01  0.35600014430E-01  0.50089023238E-02  0.39727628185E-01  0.51100000000E-03 0. -1.
         11    1    4    4    0    0  0.95273255071E-02  0.87131110212E-01  0.21513954747E-02  0.87678332110E-01  0.51100000000E-03 0.  1.
</event>
<event>
 8    1  0.1119901E+005  0.1043930E+01  0.7957747E-01            NaN
         13   -1    0    0    0    0  0.00000000000E+00  0.00000000000E+00  0.74505805969E-08  0.10566000000E+00  0.10566000000E+00 0.  1.
     999900   -1    0    0    0    0 -0.00000000000E+00 -0.00000000000E+00 -0.74505805969E-08  0.93827000000E+00  0.93827000000E+00 0.  1.
     999902    2    1    2    0    0  0.22398806647E-01 -0.11672331316E-02  0.10319289410E-02  0.10214770748E+01  0.10212302779E+01 0.  0.
     999903    2    3    3    0    0  0.12518697975E+00 -0.37369279880E-01 -0.24044973547E-01  0.13440050102E+00  0.20422804489E-01 0.  0.
         14    1    1    2    0    0 -0.22398806647E-01  0.11672331316E-02 -0.10319289410E-02  0.22452925193E-01  0.00000000000E+00 0.  1.
     999901    1    3    3    0    0 -0.10278817311E+00  0.36202046749E-01  0.25076902488E-01  0.88707657378E+00  0.88000000000E+00 0.  1.
        -11    1    4    4    0    0  0.11376824368E+00 -0.29427481957E-01 -0.25971709957E-01  0.12034941132E+00  0.51100000000E-03 0. -1.
         11    1    4    4    0    0  0.11418736072E-01 -0.79417979234E-02  0.19267364095E-02  0.14051089706E-01  0.51100000000E-03 0.  1.
</event>
<event>
 8    1  0.1119901E+005  0.1043930E+01  0.7957747E-01            NaN
         13   -1    0    0    0    0  0.00000000000E+00  0.00000000000E+00  0.74505805969E-08  0.10566000000E+00  0.10566000000E+00 0. -1.
     999900   -1    0    0    0    0 -0.00000000000E+00 -0.00000000000E+00 -0.74505805969E-08  0.93827000000E+00  0.93827000000E+00 0. -1.
     999902    2    1    2    0    0 -0.42925226191E-02 -0.11269752949E-01 -0.92358597339E-02  0.10287400630E+01  0.10286279128E+01 0.  0.
     999903    2    3    3    0    0 -0.51811220812E-01  0.38184272755E-01  0.11889978145E+00  0.13681939953E+00  0.20974955765E-01 0.  0.
         14    1    1    2    0    0  0.42925226191E-02  0.11269752949E-01  0.92358597339E-02  0.15189937030E-01  0.00000000000E+00 0.  1.
     999901    1    3    3    0    0  0.47518698193E-01 -0.49454025703E-01 -0.12813564119E+00  0.89192066344E+00  0.88000000000E+00 0. -1.
        -11    1    4    4    0    0 -0.87977720799E-02 -0.17013200732E-02  0.17732385492E-01  0.19874453447E-01  0.51100000000E-03 0.  1.
         11    1    4    4    0    0 -0.43013448732E-01  0.39885592828E-01  0.10116739596E+00  0.11694494608E+00  0.51100000000E-03 0. -1.
</event>
<event>
 8    1  0.1119901E+005  0.1043930E+01  0.7957747E-01            NaN
         13   -1    0    0    0    0  0.00000000000E+00  0.00000000000E+00  0.74505805969E-08  0.10566000000E+00  0.10566000000E+00 0.  1.
     999900   -1    0    0    0    0 -0.00000000000E+00 -0.00000000000E+00 -0.74505805969E-08  0.93827000000E+00  0.93827000000E+00 0. -1.
     999902    2    1    2    0    0  0.46935623349E-02 -0.20477483573E-01 -0.93809615307E-03  0.10229005710E+01  0.10226843801E+01 0.  0.
     999903    2    3    3    0    0  0.22305766722E-01 -0.41808486220E-01 -0.12375819781E+00  0.13394051631E+00  0.19454398838E-01 0.  0.
         14    1    1    2    0    0 -0.46935623349E-02  0.20477483573E-01  0.93809615307E-03  0.21029429028E-01  0.00000000000E+00 0.  1.
     999901    1    3    3    0    0 -0.17612204388E-01  0.21331002647E-01  0.12282010166E+00  0.88896005466E+00  0.88000000000E+00 0.  1.
        -11    1    4    4    0    0  0.47440009470E-02 -0.17453048799E-01 -0.26018808396E-01  0.31691544120E-01  0.51100000000E-03 0. -1.
         11    1    4    4    0    0  0.17561765776E-01 -0.24355437421E-01 -0.97739389415E-01  0.10224897219E+00  0.51100000000E-03 0.  1.
</event>
<event>
 8    1  0.1119901E+005  0.1043930E+01  0.7957747E-01            NaN
         13   -1    0    0    0    0  0.00000000000E+00  0.00000000000E+00  0.74505805969E-08  0.10566000000E+00  0.10566000000E+00 0.  1.
     999900   -1    0    0    0    0 -0.00000000000E+00 -0.00000000000E+00 -0.74505805969E-08  0.93827000000E+00  0.93827000000E+00 0. -1.
     999902    2    1    2    0    0 -0.16373993771E-01  0.16545974079E-01 -0.44725358001E-03  0.10206474536E+01  0.10203818636E+01 0.  0.
     999903    2    3    3    0    0 -0.96943192862E-01  0.89885178876E-01  0.73397318448E-02  0.13389457263E+00  0.19913736260E-01 0.  0.
         14    1    1    2    0    0  0.16373993771E-01 -0.16545974079E-01  0.44725358001E-03  0.23282546382E-01  0.00000000000E+00 0. -1.
     999901    1    3    3    0    0  0.80569199092E-01 -0.73339204796E-01 -0.77869854248E-02  0.88675288099E+00  0.88000000000E+00 0.  1.
        -11    1    4    4    0    0 -0.48215608718E-01  0.38768382603E-01 -0.54978430951E-02  0.62114570057E-01  0.51100000000E-03 0.  1.
         11    1    4    4    0    0 -0.48727584145E-01  0.51116796273E-01  0.12837574940E-01  0.71780002571E-01  0.51100000000E-03 0. -1.
</event>
<event>
 8    1  0.1119901E+005  0.1043930E+01  0.7957747E-01            NaN
         13   -1    0    0    0    0  0.00000000000E+00  0.00000000000E+00  0.74505805969E-08  0.10566000000E+00  0.10566000000E+00 0.  1.
     999900   -1    0    0    0    0 -0.00000000000E+00 -0.00000000000E+00 -0.74505805969E-08  0.93827000000E+00  0.93827000000E+00 0.  1.
     999902    2    1    2    0    0 -0.10817242974E-01 -0.54539695466E-03 -0.21995307424E-01  0.10194125827E+01  0.10191177115E+01 0.  0.
     999903    2    3    3    0    0 -0.13310054862E-01  0.12766460041E+00 -0.61471399872E-02  0.12997726634E+00  0.19516523203E-01 0.  0.
         14    1    1    2    0    0  0.10817242974E-01  0.54539695466E-03  0.21995307424E-01  0.24517417320E-01  0.00000000000E+00 0.  1.
     999901    1    3    3    0    0  0.24928118881E-02 -0.12820999736E+00 -0.15848167436E-01  0.88943531634E+00  0.88000000000E+00 0.  1.
        -11    1    4    4    0    0 -0.13742269035E-01  0.11790979411E+00 -0.10702405143E-01  0.11919048663E+00  0.51100000000E-03 0. -1.
         11    1    4    4    0    0  0.43221417299E-03  0.97548062972E-02  0.45552651553E-02  0.10786779715E-01  0.51100000000E-03 0.  1.
</event>
<event>
 8    1  0.1119901E+005  0.1043930E+01  0.7957747E-01            NaN
         13   -1    0    0    0    0  0.00000000000E+00  0.00000000000E+00  0.74505805969E-08  0.10566000000E+00  0.10566000000E+00 0.  1.
     999900   -1    0    0    0    0 -0.00000000000E+00 -0.00000000000E+00 -0.74505805969E-08  0.93827000000E+00  0.93827000000E+00 0.  1.
     999902    2    1    2    0    0  0.97161028606E-02 -0.21442575705E-01  0.14001428908E-01  0.10165397331E+01  0.10161706561E+01 0.  0.
     999903    2    3    3    0    0 -0.52040481209E-01  0.65144886108E-01 -0.89668400435E-01  0.12409438593E+00  0.20172424572E-01 0.  0.
         14    1    1    2    0    0 -0.97161028606E-02  0.21442575705E-01 -0.14001428908E-01  0.27390266869E-01  0.00000000000E+00 0. -1.
     999901    1    3    3    0    0  0.61756584070E-01 -0.86587461813E-01  0.10366982934E+00  0.89244534720E+00  0.88000000000E+00 0.  1.
        -11    1    4    4    0    0 -0.32228290263E-01  0.54234610231E-01 -0.63733597102E-01  0.89678805527E-01  0.51100000000E-03 0. -1.
         11    1    4    4    0    0 -0.19812190946E-01  0.10910275877E-01 -0.25934803332E-01  0.34415580406E-01  0.51100000000E-03 0.  1.
</event>
<event>
 8    1  0.1119901E+005  0.1043930E+01  0.7957747E-01            NaN
         13   -1    0    0    0    0  0.00000000000E+00  0.00000000000E+00  0.74505805969E-08  0.10566000000E+00  0.10566000000E+00 0.  1.
     999900   -1    0    0    0    0 -0.00000000000E+00 -0.00000000000E+00 -0.74505805969E-08  0.93827000000E+00  0.93827000000E+00 0.  1.
     999902    2    1    2    0    0 -0.89279226403E-02 -0.12179129481E-01 -0.17849368952E-01  0.10205496884E+01  0.10202818373E+01 0.  0.
     999903    2    3    3    0    0 -0.59532354027E-01 -0.10955423272E+00  0.38287451964E-01  0.13195863407E+00  0.20023012863E-01 0.  0.
         14    1    1    2    0    0  0.89279226403E-02  0.12179129481E-01  0.17849368952E-01  0.23380311580E-01  0.00000000000E+00 0.  1.
     999901    1    3    3    0    0  0.50604431387E-01  0.97375103243E-01 -0.56136820916E-01  0.88859105435E+00  0.88000000000E+00 0. -1.
        -11    1    4    4    0    0 -0.34419890204E-01 -0.80052850949E-01  0.31279249842E-01  0.92584233962E-01  0.51100000000E-03 0.  1.
         11    1    4    4    0    0 -0.25112463823E-01 -0.29501381775E-01  0.70082021219E-02  0.39374400108E-01  0.51100000000E-03 0. -1.
</event>
<event>
 8    1  0.1119901E+005  0.1043930E+01  0.7957747E-01            NaN
         13   -1    0    0    0    0  0.00000000000E+00  0.00000000000E+00  0.74505805969E-08  0.10566000000E+00  0.10566000000E+00 0. -1.
     999900   -1    0    0    0    0 -0.00000000000E+00 -0.00000000000E+00 -0.74505805969E-08  0.93827000000E+00  0.93827000000E+00 0. -1.
     999902    2    1    2    0    0  0.15240831247E-01 -0.14490968561E-01  0.11997535411E-01  0.10197181855E+01  0.10194307067E+01 0.  0.
     999903    2    3    3    0    0 -0.16651959215E-01 -0.12632846516E+00 -0.24623036426E-01  0.13131183587E+00  0.20008384785E-01 0.  0.
         14    1    1    2    0    0 -0.15240831247E-01  0.14490968561E-01 -0.11997535411E-01  0.24211814530E-01  0.00000000000E+00 0.  1.
     999901    1    3    3    0    0  0.31892790462E-01  0.11183749660E+00  0.36620571837E-01  0.88840634960E+00  0.88000000000E+00 0. -1.
        -11    1    4    4    0    0 -0.34738279299E-02 -0.67523584428E-01 -0.21558013579E-01  0.70968380318E-01  0.51100000000E-03 0. -1.
         11    1    4    4    0    0 -0.13178131285E-01 -0.58804880729E-01 -0.30650228473E-02  0.60343455551E-01  0.51100000000E-03 0.  1.
</event>
<event>
 7    1  0.1367379E+005  0.1043930E+01  0.7957747E-01            NaN
         13   -1    0    0    0    0  0.00000000000E+00  0.00000000000E+00  0.74505805969E-08  0.10566000000E+00  0.10566000000E+00 0. -1.
     999900   -1    0    0    0    0 -0.00000000000E+00 -0.00000000000E+00 -0.74505805969E-08  0.93827000000E+00  0.93827000000E+00 0.  1.
     999903    2    1    2    0    0 -0.61336658978E-02 -0.11076759285E+00 -0.75957260288E-02  0.11277112956E+00  0.18776344802E-01 0.  0.
         14    1    1    2    0    0 -0.17728767231E-01 -0.10478775636E-02  0.39373815272E-01  0.43193802380E-01  0.00000000000E+00 0. -1.
     999901    1    1    2    0    0  0.23862433129E-01  0.11181547042E+00 -0.31778089243E-01  0.88796506806E+00  0.88000000000E+00 0. -1.
        -11    1    3    3    0    0 -0.53767095860E-02 -0.24507585204E-01  0.50078526143E-02  0.25590436638E-01  0.51100000000E-03 0. -1.
         11    1    3    3    0    0 -0.75695631176E-03 -0.86260007650E-01 -0.12603578643E-01  0.87180692922E-01  0.51100000000E-03 0.  1.
</event>
<event>
 8    1  0.1119901E+005  0.1043930E+01  0.7957747E-01            NaN
         13   -1    0    0    0    0  0.00000000000E+00  0.00000000000E+00  0.74505805969E-08  0.10566000000E+00  0.10566000000E+00 0.  1.
     999900   -1    0    0    0    0 -0.00000000000E+00 -0.00000000000E+00 -0.74505805969E-08  0.93827000000E+00  0.93827000000E+00 0.  1.
     999902    2    1    2    0    0 -0.15638270839E-01  0.12667827269E-01  0.12685799793E-01  0.10201401097E+01  0.10198626793E+01 0.  0.
     999903    2    3    3    0    0  0.92922812610E-01  0.73305164753E-01 -0.48388497412E-01  0.12930204066E+00  0.19216522924E-01 0.  0.
         14    1    1    2    0    0  0.15638270839E-01 -0.12667827269E-01 -0.12685799793E-01  0.23789890267E-01  0.00000000000E+00 0. -1.
     999901    1    3    3    0    0 -0.10856108345E+00 -0.60637337484E-01  0.61074297205E-01  0.89083806908E+00  0.88000000000E+00 0.  1.
        -11    1    4    4    0    0  0.36380070271E-01  0.20391327965E-01 -0.10107887586E-01  0.42915571551E-01  0.51100000000E-03 0. -1.
         11    1    4    4    0    0  0.56542742339E-01  0.52913836788E-01 -0.38280609826E-01  0.86386469105E-01  0.51100000000E-03 0.  1.
</event>
<event>
 8    1  0.1119901E+005  0.1043930E+01  0.7957747E-01            NaN
         13   -1    0    0    0    0  0.00000000000E+00  0.00000000000E+00  0.74505805969E-08  0.10566000000E+00  0.10566000000E+00 0.  1.
     999900   -1    0    0    0    0 -0.00000000000E+00 -0.00000000000E+00 -0.74505805969E-08  0.93827000000E+00  0.93827000000E+00 0. -1.
     999902    2    1    2    0    0 -0.18678077865E-01 -0.16680758502E-01  0.53894518041E-02  0.10183142922E+01  0.10179920595E+01 0.  0.
     999903    2    3    3    0    0 -0.11231846189E+00 -0.64311770070E-01  0.19701877269E-02  0.13205872736E+00  0.26156933751E-01 0.  0.
         14    1    1    2    0    0  0.18678077865E-01  0.16680758502E-01 -0.53894518041E-02  0.25615707831E-01  0.00000000000E+00 0. -1.
     999901    1    3    3    0    0  0.93640384020E-01  0.47631011567E-01  0.34192640772E-02  0.88625556481E+00  0.88000000000E+00 0. -1.
        -11    1    4    4    0    0 -0.40846118689E-01 -0.21160159662E-01 -0.11669899848E-01  0.47461620835E-01  0.51100000000E-03 0. -1.
         11    1    4    4    0    0 -0.71472343196E-01 -0.43151610408E-01  0.13640087575E-01  0.84597106528E-01  0.51100000000E-03 0.  1.
</event>
<event>
 8    1  0.1119901E+005  0.1043930E+01  0.7957747E-01            NaN
         13   -1    0    0    0    0  0.00000000000E+00  0.00000000000E+00  0.74505805969E-08  0.10566000000E+00  0.10566000000E+00 0.  1.
     999900   -1    0    0    0    0 -0.00000000000E+00 -0.00000000000E+00 -0.74505805969E-08  0.93827000000E+00  0.93827000000E+00 0. -1.
     999902    2    1    2    0    0  0.14098346363E-02  0.15250037063E-01 -0.15708585017E-01  0.10219912009E+01  0.10217556967E+01 0.  0.
     999903    2    3    3    0    0 -0.69990694603E-02 -0.56760026882E-01 -0.11835458191E+00  0.13306355496E+00  0.20674016930E-01 0.  0.
         14    1    1    2    0    0 -0.14098346363E-02 -0.15250037063E-01  0.15708585017E-01  0.21938799132E-01  0.00000000000E+00 0.  1.
     999901    1    3    3    0    0  0.84089040966E-02  0.72010063946E-01  0.10264599689E+00  0.88892764591E+00  0.88000000000E+00 0.  1.
        -11    1    4    4    0    0 -0.13644399750E-01 -0.43045010328E-01 -0.94761177871E-01  0.10497135091E+00  0.51100000000E-03 0.  1.
         11    1    4    4    0    0  0.66453302893E-02 -0.13715016555E-01 -0.23593404035E-01  0.28092204056E-01  0.51100000000E-03 0. -1.
</event>
<event>
 8    1  0.1297361E+005  0.1043930E+01  0.7957747E-01            NaN
         13   -1    0    0    0    0  0.00000000000E+00  0.00000000000E+00  0.74505805969E-08  0.10566000000E+00  0.10566000000E+00 0.  1.
     999900   -1    0    0    0    0 -0.00000000000E+00 -0.00000000000E+00 -0.74505805969E-08  0.93827000000E+00  0.93827000000E+00 0. -1.
     999902    2    1    2    0    0 -0.14070774731E-01  0.13490501475E-01 -0.12986276196E-01  0.10205072824E+01  0.10202384475E+01 0.  0.
     999903    2    3    3    0    0 -0.17576873376E-01  0.12175154362E+00 -0.48590874667E-01  0.13315141610E+00  0.15357137062E-01 0.  0.
         14    1    1    2    0    0  0.14070774731E-01 -0.13490501475E-01  0.12986276196E-01  0.23422717626E-01  0.00000000000E+00 0.  1.
     999901    1    3    3    0    0  0.35060986449E-02 -0.10826104214E+00  0.35604598471E-01  0.88735586627E+00  0.88000000000E+00 0.  1.
        -11    1    4    4    0    0 -0.15713496084E-01  0.59312776167E-01 -0.20927734690E-01  0.64831709650E-01  0.51100000000E-03 0.  1.
         11    1    4    4    0    0 -0.18633772915E-02  0.62438767449E-01 -0.27663139976E-01  0.68319706453E-01  0.51100000000E-03 0. -1.
</event>
<event>
 8    1  0.1119901E+005  0.1043930E+01  0.7957747E-01            NaN
         13   -1    0    0    0    0  0.00000000000E+00  0.00000000000E+00  0.74505805969E-08  0.10566000000E+00  0.10566000000E+00 0. -1.
     999900   -1    0    0    0    0 -0.00000000000E+00 -0.00000000000E+00 -0.74505805969E-08  0.93827000000E+00  0.93827000000E+00 0. -1.
     999902    2    1    2    0    0 -0.14032019504E-02 -0.22120703077E-01 -0.67582985102E-02  0.10207574067E+01  0.10204943480E+01 0.  0.
     999903    2    3    3    0    0  0.59323741592E-01 -0.11631890498E+00 -0.19810239877E-01  0.13355313707E+00  0.19864562575E-01 0.  0.
         14    1    1    2    0    0  0.14032019504E-02  0.22120703077E-01  0.67582985102E-02  0.23172593275E-01  0.00000000000E+00 0. -1.
     999901    1    3    3    0    0 -0.60726943543E-01  0.94198201901E-01  0.13051941367E-01  0.88720426965E+00  0.88000000000E+00 0.  1.
        -11    1    4    4    0    0  0.41468241336E-01 -0.95862293922E-01 -0.11119564556E-01  0.10503856564E+00  0.51100000000E-03 0. -1.
         11    1    4    4    0    0  0.17855500256E-01 -0.20456611056E-01 -0.86906753210E-02  0.28514571430E-01  0.51100000000E-03 0.  1.
</event>
<event>
 8    1  0.1119901E+005  0.1043930E+01  0.7957747E-01            NaN
         13   -1    0    0    0    0  0.00000000000E+00  0.00000000000E+00  0.74505805969E-08  0.10566000000E+00  0.10566000000E+00 0. -1.
     999900   -1    0    0    0    0 -0.00000000000E+00 -0.00000000000E+00 -0.74505805969E-08  0.93827000000E+00  0.93827000000E+00 0.  1.
     999902    2    1    2    0    0  0.32414192047E-02 -0.22130085682E-01  0.78621752488E-02  0.10202221682E+01  0.10199466707E+01 0.  0.
     999903    2    3    3    0    0 -0.12378811094E+00 -0.36619271130E-01 -0.77772922266E-02  0.13084540269E+00  0.19888833576E-01 0.  0.
         14    1    1    2    0    0 -0.32414192047E-02  0.22130085682E-01 -0.78621752488E-02  0.23707831837E-01  0.00000000000E+00 0. -1.
     999901    1    3    3    0    0  0.12702953015E+00  0.14489185448E-01  0.15639467475E-01  0.88937676548E+00  0.88000000000E+00 0.  1.
        -11    1    4    4    0    0 -0.10708193100E+00 -0.26800365703E-01 -0.11904939254E-01  0.11102607013E+00  0.51100000000E-03 0.  1.
         11    1    4    4    0    0 -0.16706179940E-01 -0.98189054270E-02  0.41276470274E-02  0.19819332556E-01  0.51100000000E-03 0. -1.
</event>
<event>
 8    1  0.1119901E+005  0.1043930E+01  0.7957747E-01            NaN
         13   -1    0    0    0    0  0.00000000000E+00  0.00000000000E+00  0.74505805969E-08  0.10566000000E+00  0.10566000000E+00 0. -1.
     999900   -1    0    0    0    0 -0.00000000000E+00 -0.00000000000E+00 -0.74505805969E-08  0.93827000000E+00  0.93827000000E+00 0. -1.
     999902    2    1    2    0    0  0.21907618901E-01 -0.75847628002E-02 -0.48985926188E-02  0.10202346713E+01  0.10199594678E+01 0.  0.
     999903    2    3    3    0    0  0.31272269251E-01  0.19778738007E-01 -0.12481921036E+00  0.13163047796E+00  0.19431782008E-01 0.  0.
         14    1    1    2    0    0 -0.21907618901E-01  0.75847628002E-02  0.48985926188E-02  0.23695328702E-01  0.00000000000E+00 0. -1.
     999901    1    3    3    0    0 -0.93646503501E-02 -0.27363500808E-01  0.11992061774E+00  0.88860419334E+00  0.88000000000E+00 0.  1.
        -11    1    4    4    0    0  0.23675087868E-01  0.22295318264E-01 -0.84966049935E-01  0.90978468687E-01  0.51100000000E-03 0. -1.
         11    1    4    4    0    0  0.75971813832E-02 -0.25165802561E-02 -0.39853160427E-01  0.40652009276E-01  0.51100000000E-03 0.  1.
</event>
<event>
 8    1  0.1119901E+005  0.1043930E+01  0.7957747E-01            NaN
         13   -1    0    0    0    0  0.00000000000E+00  0.00000000000E+00  0.74505805969E-08  0.10566000000E+00  0.10566000000E+00 0.  1.
     999900   -1    0    0    0    0 -0.00000000000E+00 -0.00000000000E+00 -0.74505805969E-08  0.93827000000E+00  0.93827000000E+00 0. -1.
     999902    2    1    2    0    0 -0.73392178730E-02  0.11859089168E-01  0.19549283485E-01  0.10199159083E+01  0.10196331612E+01 0.  0.
     999903    2    3    3    0    0  0.56618608066E-01 -0.39420022345E-01  0.11027157497E+00  0.13146180992E+00  0.19046844349E-01 0.  0.
         14    1    1    2    0    0  0.73392178730E-02 -0.11859089168E-01 -0.19549283485E-01  0.24014091689E-01  0.00000000000E+00 0.  1.
     999901    1    3    3    0    0 -0.63957825939E-01  0.51279111513E-01 -0.90722291487E-01  0.88845409839E+00  0.88000000000E+00 0. -1.
        -11    1    4    4    0    0  0.44666761819E-01 -0.34695518427E-01  0.10044710858E+00  0.11527697668E+00  0.51100000000E-03 0. -1.
         11    1    4    4    0    0  0.11951846247E-01 -0.47245039181E-02  0.98244663913E-02  0.16184833236E-01  0.51100000000E-03 0.  1.
</event>
<event>
 8    1  0.1119901E+005  0.1043930E+01  0.7957747E-01            NaN
         13   -1    0    0    0    0  0.00000000000E+00  0.00000000000E+00  0.74505805969E-08  0.10566000000E+00  0.10566000000E+00 0.  1.
     999900   -1    0    0    0    0 -0.00000000000E+00 -0.00000000000E+00 -0.74505805969E-08  0.93827000000E+00  0.93827000000E+00 0. -1.
     999902    2    1    2    0    0 -0.23636275025E-01 -0.12263089624E-02  0.75098740612E-02  0.10190990608E+01  0.10187965058E+01 0.  0.
     999903    2    3    3    0    0  0.55088352287E-01 -0.25846883020E-01 -0.11016830879E+00  0.12744223542E+00  0.20041935730E-01 0.  0.
         14    1    1    2    0    0  0.23636275025E-01  0.12263089624E-02 -0.75098740612E-02  0.24830939152E-01  0.00000000000E+00 0. -1.
     999901    1    3    3    0    0 -0.78724627313E-01  0.24620574057E-01  0.11767818285E+00  0.89165682543E+00  0.88000000000E+00 0. -1.
        -11    1    4    4    0    0  0.26265691002E-01 -0.14802650071E-01 -0.35097715119E-01  0.46272191438E-01  0.51100000000E-03 0. -1.
         11    1    4    4    0    0  0.28822661286E-01 -0.11044232949E-01 -0.75070593671E-01  0.81170043982E-01  0.51100000000E-03 0.  1.
</event>
<event>
 8    1  0.1119901E+005  0.1043930E+01  0.7957747E-01            NaN
         13   -1    0    0    0    0  0.00000000000E+00  0.00000000000E+00  0.74505805969E-08  0.10566000000E+00  0.10566000000E+00 0.  1.
     999900   -1    0    0    0    0 -0.00000000000E+00 -0.00000000000E+00 -0.74505805969E-08  0.93827000000E+00  0.93827000000E+00 0.  1.
     999902    2    1    2    0    0 -0.13776366284E-01 -0.13697006326E-01 -0.12447668604E-01  0.10208574903E+01  0.10205967249E+01 0.  0.
     999903    2    3    3    0    0  0.72936561898E-02  0.11872475152E+00  0.45187303942E-01  0.12883660609E+00  0.20204321008E-01 0.  0.
         14    1    1    2    0    0  0.13776366284E-01  0.13697006326E-01  0.12447668604E-01  0.23072509703E-01  0.00000000000E+00 0.  1.
     999901    1    3    3    0    0 -0.21070022474E-01 -0.13242175785E+00 -0.57634972547E-01  0.89202088421E+00  0.88000000000E+00 0.  1.
        -11    1    4    4    0    0  0.15153522005E-02  0.99863951991E-01  0.43789324766E-01  0.10905444183E+00  0.51100000000E-03 0. -1.
         11    1    4    4    0    0  0.57783039893E-02  0.18860799530E-01  0.13979791765E-02  0.19782164257E-01  0.51100000000E-03 0.  1.
</event>
<event>
 8    1  0.1119901E+005  0.1043930E+01  0.7957747E-01            NaN
         13   -1    0    0    0    0  0.00000000000E+00  0.00000000000E+00  0.74505805969E-08  0.10566000000E+00  0.10566000000E+00 0. -1.
     999900   -1    0    0    0    0 -0.00000000000E+00 -0.00000000000E+00 -0.74505805969E-08  0.93827000000E+00  0.93827000000E+00 0. -1.
     999902    2    1    2    0    0  0.14700462336E-01 -0.19385380188E-01 -0.38248668049E-02  0.10193022481E+01  0.10190046844E+01 0.  0.
     999903    2    3    3    0    0 -0.30317422057E-01 -0.77587112448E-01  0.98166102166E-01  0.13036118745E+00  0.20458481850E-01 0.  0.
         14    1    1    2    0    0 -0.14700462336E-01  0.19385380188E-01  0.38248668049E-02  0.24627751907E-01  0.00000000000E+00 0. -1.
     999901    1    3    3    0    0  0.45017884393E-01  0.58201732260E-01 -0.10199096897E+00  0.88894106065E+00  0.88000000000E+00 0. -1.
        -11    1    4    4    0    0 -0.24929796884E-01 -0.47568173308E-01  0.74052304992E-01  0.91478034960E-01  0.51100000000E-03 0. -1.
         11    1    4    4    0    0 -0.53876251731E-02 -0.30018939139E-01  0.24113797175E-01  0.38883152486E-01  0.51100000000E-03 0.  1.
</event>
<event>
 8    1  0.1119901E+005  0.1043930E+01  0.7957747E-01            NaN
         13   -1    0    0    0    0  0.00000000000E+00  0.00000000000E+00  0.74505805969E-08  0.10566000000E+00  0.10566000000E+00 0.  1.
     999900   -1    0    0    0    0 -0.00000000000E+00 -0.00000000000E+00 -0.74505805969E-08  0.93827000000E+00  0.93827000000E+00 0. -1.
     999902    2    1    2    0    0  0.60260257265E-02  0.17020418006E-01 -0.14724772468E-01  0.10206313619E+01  0.10203654004E+01 0.  0.
     999903    2    3    3    0    0  0.47095991693E-01 -0.11655203482E+00  0.23693060726E-01  0.12877696109E+00  0.14823472152E-01 0.  0.
         14    1    1    2    0    0 -0.60260257265E-02 -0.17020418006E-01  0.14724772468E-01  0.23298638144E-01  0.00000000000E+00 0.  1.
     999901    1    3    3    0    0 -0.41069965966E-01  0.13357245283E+00 -0.38417833194E-01  0.89185440077E+00  0.88000000000E+00 0.  1.
        -11    1    4    4    0    0  0.17740114543E-01 -0.46794691124E-01  0.16746050599E-01  0.52774483541E-01  0.51100000000E-03 0.  1.
         11    1    4    4    0    0  0.29355877150E-01 -0.69757343696E-01  0.69470101277E-02  0.76002477549E-01  0.51100000000E-03 0. -1.
</event>
<event>
 8    1  0.1119901E+005  0.1043930E+01  0.7957747E-01            NaN
         13   -1    0    0    0    0  0.00000000000E+00  0.00000000000E+00  0.74505805969E-08  0.10566000000E+00  0.10566000000E+00 0. -1.
     999900   -1    0    0    0    0 -0.00000000000E+00 -0.00000000000E+00 -0.74505805969E-08  0.93827000000E+00  0.93827000000E+00 0.  1.
     999902    2    1    2    0    0 -0.95273256643E-02  0.92187703226E-02 -0.19520305750E-01  0.10203334325E+01  0.10200605450E+01 0.  0.
     999903    2    3    3    0    0  0.48257285200E-01  0.53853999196E-01 -0.10967109956E+00  0.13271947897E+00  0.18912726255E-01 0.  0.
         14    1    1    2    0    0  0.95273256643E-02 -0.92187703226E-02  0.19520305750E-01  0.23596567486E-01  0.00000000000E+00 0. -1.
     999901    1    3    3    0    0 -0.57784610864E-01 -0.44635228874E-01  0.90150793808E-01  0.88761395355E+00  0.88000000000E+00 0. -1.
        -11    1    4    4    0    0  0.20058676542E-01  0.96446682074E-02 -0.30670632668E-01  0.37898798908E-01  0.51100000000E-03 0. -1.
         11    1    4    4    0    0  0.28198608658E-01  0.44209330989E-01 -0.79000466890E-01  0.94820680058E-01  0.51100000000E-03 0.  1.
</event>
<event>
 8    1  0.1119901E+005  0.1043930E+01  0.7957747E-01            NaN
         13   -1    0    0    0    0  0.00000000000E+00  0.00000000000E+00  0.74505805969E-08  0.10566000000E+00  0.10566000000E+00 0.  1.
     999900   -1    0    0    0    0 -0.00000000000E+00 -0.00000000000E+00 -0.74505805969E-08  0.93827000000E+00  0.93827000000E+00 0. -1.
     999902    2    1    2    0    0 -0.14566437889E-01  0.82744347375E-02 -0.17102463142E-01  0.10199896235E+01  0.10197086301E+01 0.  0.
     999903    2    3    3    0    0 -0.26529113874E-01  0.41421305212E-01  0.11748976601E+00  0.12905927333E+00  0.20807030244E-01 0.  0.
         14    1    1    2    0    0  0.14566437889E-01 -0.82744347375E-02  0.17102463142E-01  0.23940376533E-01  0.00000000000E+00 0.  1.
     999901    1    3    3    0    0  0.11962675985E-01 -0.33146870474E-01 -0.13459222915E+00  0.89093035013E+00  0.88000000000E+00 0. -1.
        -11    1    4    4    0    0 -0.11361068866E-01  0.16002045564E-01  0.24069896013E-01  0.31060591802E-01  0.51100000000E-03 0. -1.
         11    1    4    4    0    0 -0.15168045007E-01  0.25419259648E-01  0.93419869999E-01  0.97998681532E-01  0.51100000000E-03 0.  1.
</event>
<event>
 8    1  0.1119901E+005  0.1043930E+01  0.7957747E-01            NaN
         13   -1    0    0    0    0  0.00000000000E+00  0.00000000000E+00  0.74505805969E-08  0.10566000000E+00  0.10566000000E+00 0.  1.
     999900   -1    0    0    0    0 -0.00000000000E+00 -0.00000000000E+00 -0.74505805969E-08  0.93827000000E+00  0.93827000000E+00 0. -1.
     999902    2    1    2    0    0  0.17515040272E-01 -0.50790706643E-02  0.10523111260E-01  0.10228750845E+01  0.10226583638E+01 0.  0.
     999903    2    3    3    0    0  0.11518925219E+00  0.38909915610E-01 -0.52500020753E-01  0.13414160494E+00  0.21334775442E-01 0.  0.
         14    1    1    2    0    0 -0.17515040272E-01  0.50790706643E-02 -0.10523111260E-01  0.21054915463E-01  0.00000000000E+00 0. -1.
     999901    1    3    3    0    0 -0.97674211922E-01 -0.43988986274E-01  0.63023132013E-01  0.88873347960E+00  0.88000000000E+00 0. -1.
        -11    1    4    4    0    0  0.31292838330E-01  0.20243742868E-01 -0.19581280817E-01  0.42103901666E-01  0.51100000000E-03 0. -1.
         11    1    4    4    0    0  0.83896413863E-01  0.18666172742E-01 -0.32918739936E-01  0.92037703274E-01  0.51100000000E-03 0.  1.
</event>
<event>
 8    1  0.1119901E+005  0.1043930E+01  0.7957747E-01            NaN
         13   -1    0    0    0    0  0.00000000000E+00  0.00000000000E+00  0.74505805969E-08  0.10566000000E+00  0.10566000000E+00 0. -1.
     999900   -1    0    0    0    0 -0.00000000000E+00 -0.00000000000E+00 -0.74505805969E-08  0.93827000000E+00  0.93827000000E+00 0. -1.
     999902    2    1    2    0    0 -0.62173047178E-02  0.25211147388E-02 -0.26323347764E-01  0.10167651415E+01  0.10164021957E+01 0.  0.
     999903    2    3    3    0    0  0.11422791475E+00 -0.94467847178E-02 -0.53421725344E-01  0.12806687803E+00  0.20248117399E-01 0.  0.
         14    1    1    2    0    0  0.62173047178E-02 -0.25211147388E-02  0.26323347764E-01  0.27164858457E-01  0.00000000000E+00 0. -1.
     999901    1    3    3    0    0 -0.12044521947E+00  0.11967899457E-01  0.27098377579E-01  0.88869826352E+00  0.88000000000E+00 0.  1.
        -11    1    4    4    0    0  0.98823914553E-01 -0.13522717475E-01 -0.40945918146E-01  0.10782327814E+00  0.51100000000E-03 0. -1.
         11    1    4    4    0    0  0.15404000200E-01  0.40759327576E-02 -0.12475807198E-01  0.20243599884E-01  0.51100000000E-03 0.  1.
</event>
<event>
 8    1  0.1119901E+005  0.1043930E+01  0.7957747E-01            NaN
         13   -1    0    0    0    0  0.00000000000E+00  0.00000000000E+00  0.74505805969E-08  0.10566000000E+00  0.10566000000E+00 0.  1.
     999900   -1    0    0    0    0 -0.00000000000E+00 -0.00000000000E+00 -0.74505805969E-08  0.93827000000E+00  0.93827000000E+00 0. -1.
     999902    2    1    2    0    0 -0.12327935500E-01  0.20374429620E-01  0.53832744565E-03  0.10201101517E+01  0.10198320138E+01 0.  0.
     999903    2    3    3    0    0 -0.12136265200E-01 -0.13143357644E-01 -0.12740467588E+00  0.13022651274E+00  0.20173160458E-01 0.  0.
         14    1    1    2    0    0  0.12327935500E-01 -0.20374429620E-01 -0.53832744565E-03  0.23819848289E-01  0.00000000000E+00 0.  1.
     999901    1    3    3    0    0 -0.19167030060E-03  0.33517787265E-01  0.12794300332E+00  0.88988363897E+00  0.88000000000E+00 0.  1.
        -11    1    4    4    0    0  0.51544650890E-02 -0.67775847652E-02 -0.40106011369E-01  0.41003139326E-01  0.51100000000E-03 0. -1.
         11    1    4    4    0    0 -0.17290730289E-01 -0.63657728792E-02 -0.87298664509E-01  0.89223373419E-01  0.51100000000E-03 0.  1.
</event>
<event>
 8    1  0.1119901E+005  0.1043930E+01  0.7957747E-01            NaN
         13   -1    0    0    0    0  0.00000000000E+00  0.00000000000E+00  0.74505805969E-08  0.10566000000E+00  0.10566000000E+00 0. -1.
     999900   -1    0    0    0    0 -0.00000000000E+00 -0.00000000000E+00 -0.74505805969E-08  0.93827000000E+00  0.93827000000E+00 0. -1.
     999902    2    1    2    0    0  0.62588890165E-02 -0.20163126339E-01  0.10982357548E-01  0.10201321528E+01  0.10198545345E+01 0.  0.
     999903    2    3    3    0    0  0.10967818096E+00  0.22397540335E-01  0.65797631068E-01  0.13136239940E+00  0.19894685944E-01 0.  0.
         14    1    1    2    0    0 -0.62588890165E-02  0.20163126339E-01 -0.10982357548E-01  0.23797847231E-01  0.00000000000E+00 0.  1.
     999901    1    3    3    0    0 -0.10341929195E+00 -0.42560666675E-01 -0.54815273520E-01  0.88876975337E+00  0.88000000000E+00 0. -1.
        -11    1    4    4    0    0  0.71120600817E-01  0.18862525334E-01  0.33109044674E-01  0.80687078784E-01  0.51100000000E-03 0.  1.
         11    1    4    4    0    0  0.38557580148E-01  0.35350150011E-02  0.32688586394E-01  0.50675320615E-01  0.51100000000E-03 0. -1.
</event>
<event>
 8    1  0.1119901E+005  0.1043930E+01  0.7957747E-01            NaN
         13   -1    0    0    0    0  0.00000000000E+00  0.00000000000E+00  0.74505805969E-08  0.10566000000E+00  0.10566000000E+00 0. -1.
     999900   -1    0    0    0    0 -0.00000000000E+00 -0.00000000000E+00 -0.74505805969E-08  0.93827000000E+00  0.93827000000E+00 0.  1.
     999902    2    1    2    0    0  0.12256586522E-01 -0.73172598814E-02 -0.18360079876E-01  0.10206736302E+01  0.10204086439E+01 0.  0.
     999903    2    3    3    0    0 -0.54601483883E-01  0.53352474813E-02 -0.11867706137E+00  0.13236423344E+00  0.20646028448E-01 0.  0.
         14    1    1    2    0    0 -0.12256586522E-01  0.73172598814E-02  0.18360079876E-01  0.23256369846E-01  0.00000000000E+00 0.  1.
     999901    1    3    3    0    0  0.66858070405E-01 -0.12652507363E-01  0.10031698149E+00  0.88830939672E+00  0.88000000000E+00 0. -1.
        -11    1    4    4    0    0 -0.37800155180E-01  0.11220708129E-01 -0.93957813168E-01  0.10189743765E+00  0.51100000000E-03 0. -1.
         11    1    4    4    0    0 -0.16801328703E-01 -0.58854606473E-02 -0.24719248199E-01  0.30466795791E-01  0.51100000000E-03 0.  1.
</event>
<event>
 8    1  0.1119901E+005  0.1043930E+01  0.7957747E-01            NaN
         13   -1    0    0    0    0  0.00000000000E+00  0.00000000000E+00  0.74505805969E-08  0.10566000000E+00  0.10566000000E+00 0.  1.
     999900   -1    0    0    0    0 -0.00000000000E+00 -0.00000000000E+00 -0.74505805969E-08  0.93827000000E+00  0.93827000000E+00 0.  1.
     999902    2    1    2    0    0  0.87954378809E-02  0.43180228923E-02  0.23313515458E-01  0.10186411674E+01  0.10183272082E+01 0.  0.
     999903    2    3    3    0    0 -0.57940443583E-01 -0.87416959906E-01  0.73879628709E-01  0.12991966058E+00  0.20545042852E-01 0.  0.
         14    1    1    2    0    0 -0.87954378809E-02 -0.43180228923E-02 -0.23313515458E-01  0.25288832559E-01  0.00000000000E+00 0. -1.
     999901    1    3    3    0    0  0.66735881464E-01  0.91734982798E-01 -0.50566113252E-01  0.88872150686E+00  0.88000000000E+00 0.  1.
        -11    1    4    4    0    0 -0.77844054045E-02 -0.27820960023E-01  0.22249317849E-01  0.36467739851E-01  0.51100000000E-03 0.  1.
         11    1    4    4    0    0 -0.50156038178E-01 -0.59595999883E-01  0.51630310860E-01  0.93451920731E-01  0.51100000000E-03 0. -1.
</event>
<event>
 8    1  0.1119901E+005  0.1043930E+01  0.7957747E-01            NaN
         13   -1    0    0    0    0  0.00000000000E+00  0.00000000000E+00  0.74505805969E-08  0.10566000000E+00  0.10566000000E+00 0.  1.
     999900   -1    0    0    0    0 -0.00000000000E+00 -0.00000000000E+00 -0.74505805969E-08  0.93827000000E+00  0.93827000000E+00 0.  1.
     999902    2    1    2    0    0  0.16215786756E-01 -0.30384143912E-02  0.13531155889E-01  0.10225928052E+01  0.10223701724E+01 0.  0.
     999903    2    3    3    0    0  0.51865872631E-01 -0.43471132433E-01 -0.10890804864E+00  0.13248208618E+00  0.33327646188E-01 0.  0.
         14    1    1    2    0    0 -0.16215786756E-01  0.30384143912E-02 -0.13531155889E-01  0.21337194797E-01  0.00000000000E+00 0. -1.
     999901    1    3    3    0    0 -0.35650085875E-01  0.40432718042E-01  0.12243920453E+00  0.89011071902E+00  0.88000000000E+00 0. -1.
        -11    1    4    4    0    0  0.55376414032E-01 -0.39302454531E-01 -0.10691193786E+00  0.12665565025E+00  0.51100000000E-03 0.  1.
         11    1    4    4    0    0 -0.35105414004E-02 -0.41686779024E-02 -0.19961107889E-02  0.58264359311E-02  0.51100000000E-03 0. -1.
</event>
<event>
 8    1  0.1119901E+005  0.1043930E+01  0.7957747E-01            NaN
         13   -1    0    0    0    0  0.00000000000E+00  0.00000000000E+00  0.74505805969E-08  0.10566000000E+00  0.10566000000E+00 0.  1.
     999900   -1    0    0    0    0 -0.00000000000E+00 -0.00000000000E+00 -0.74505805969E-08  0.93827000000E+00  0.93827000000E+00 0. -1.
     999902    2    1    2    0    0  0.22848604305E-01 -0.28625471700E-02 -0.70148608832E-02  0.10198580003E+01  0.10195738716E+01 0.  0.
     999903    2    3    3    0    0 -0.41664362316E-01 -0.89055418498E-01  0.80829575069E-01  0.12895521166E+00  0.20718102159E-01 0.  0.
         14    1    1    2    0    0 -0.22848604305E-01  0.28625471700E-02  0.70148608832E-02  0.24071999672E-01  0.00000000000E+00 0. -1.
     999901    1    3    3    0    0  0.64512966622E-01  0.86192871328E-01 -0.87844435953E-01  0.89090278867E+00  0.88000000000E+00 0.  1.
        -11    1    4    4    0    0 -0.47204171355E-02 -0.31559425492E-01  0.29771896737E-01  0.43645236070E-01  0.51100000000E-03 0. -1.
         11    1    4    4    0    0 -0.36943945181E-01 -0.57495993006E-01  0.51057678333E-01  0.85309975589E-01  0.51100000000E-03 0.  1.
</event>
<event>
 8    1  0.1217245E+005  0.1043930E+01  0.7957747E-01            NaN
         13   -1    0    0    0    0  0.00000000000E+00  0.00000000000E+00  0.74505805969E-08  0.10566000000E+00  0.10566000000E+00 0.  1.
     999900   -1    0    0    0    0 -0.00000000000E+00 -0.00000000000E+00 -0.74505805969E-08  0.93827000000E+00  0.93827000000E+00 0. -1.
     999902    2    1    2    0    0 -0.12131584883E-01  0.43012021193E-02  0.19691230051E-01  0.10204051146E+01  0.10201339018E+01 0.  0.
     999903    2    3    3    0    0  0.50054059434E-01 -0.11720522710E+00 -0.11247740549E-01  0.12934502315E+00  0.19003926488E-01 0.  0.
         14    1    1    2    0    0  0.12131584883E-01 -0.43012021193E-02 -0.19691230051E-01  0.23524885385E-01  0.00000000000E+00 0. -1.
     999901    1    3    3    0    0 -0.62185644317E-01  0.12150642921E+00  0.30938970600E-01  0.89106009146E+00  0.88000000000E+00 0. -1.
        -11    1    4    4    0    0  0.23671719540E-01 -0.76958039538E-01 -0.34554748156E-02  0.80592131022E-01  0.51100000000E-03 0. -1.
         11    1    4    4    0    0  0.26382339895E-01 -0.40247187557E-01 -0.77922657331E-02  0.48752892128E-01  0.51100000000E-03 0.  1.
</event>
<event>
 8    1  0.1119901E+005  0.1043930E+01  0.7957747E-01            NaN
         13   -1    0    0    0    0  0.00000000000E+00  0.00000000000E+00  0.74505805969E-08  0.10566000000E+00  0.10566000000E+00 0.  1.
     999900   -1    0    0    0    0 -0.00000000000E+00 -0.00000000000E+00 -0.74505805969E-08  0.93827000000E+00  0.93827000000E+00 0.  1.
     999902    2    1    2    0    0 -0.24720234421E-01 -0.10665988686E-02 -0.34310833452E-02  0.10189500089E+01  0.10186437653E+01 0.  0.
     999903    2    3    3    0    0 -0.82074893860E-01  0.10023523585E+00  0.98267694433E-02  0.13118461796E+00  0.18150699219E-01 0.  0.
         14    1    1    2    0    0  0.24720234421E-01  0.10665988686E-02  0.34310833452E-02  0.24979991111E-01  0.00000000000E+00 0.  1.
     999901    1    3    3    0    0  0.57354659440E-01 -0.10130183472E+00 -0.13257852788E-01  0.88776539093E+00  0.88000000000E+00 0.  1.
        -11    1    4    4    0    0 -0.35849520419E-01  0.46089339943E-01 -0.44860456415E-02  0.58564503730E-01  0.51100000000E-03 0.  1.
         11    1    4    4    0    0 -0.46225373441E-01  0.54145895910E-01  0.14312815085E-01  0.72620114227E-01  0.51100000000E-03 0. -1.
</event>
<event>
 8    1  0.1119901E+005  0.1043930E+01  0.7957747E-01            NaN
         13   -1    0    0    0    0  0.00000000000E+00  0.00000000000E+00  0.74505805969E-08  0.10566000000E+00  0.10566000000E+00 0.  1.
     999900   -1    0    0    0    0 -0.00000000000E+00 -0.00000000000E+00 -0.74505805969E-08  0.93827000000E+00  0.93827000000E+00 0. -1.
     999902    2    1    2    0    0  0.13899001563E-01 -0.59616202741E-02 -0.16650128262E-01  0.10214366692E+01  0.10211889733E+01 0.  0.
     999903    2    3    3    0    0 -0.65938129515E-01 -0.97598615557E-01 -0.56468887025E-01  0.13219157362E+00  0.20311333105E-01 0.  0.
         14    1    1    2    0    0 -0.13899001563E-01  0.59616202741E-02  0.16650128262E-01  0.22493330831E-01  0.00000000000E+00 0.  1.
     999901    1    3    3    0    0  0.79837131078E-01  0.91636995282E-01  0.39818758762E-01  0.88924509555E+00  0.88000000000E+00 0.  1.
        -11    1    4    4    0    0 -0.45182873481E-01 -0.52971729983E-01 -0.26101744334E-01  0.74357638556E-01  0.51100000000E-03 0.  1.
         11    1    4    4    0    0 -0.20755256034E-01 -0.44626885574E-01 -0.30367142691E-01  0.57833935067E-01  0.51100000000E-03 0. -1.
</event>
<event>
 8    1  0.1119901E+005  0.1043930E+01  0.7957747E-01            NaN
         13   -1    0    0    0    0  0.00000000000E+00  0.00000000000E+00  0.74505805969E-08  0.10566000000E+00  0.10566000000E+00 0.  1.
     999900   -1    0    0    0    0 -0.00000000000E+00 -0.00000000000E+00 -0.74505805969E-08  0.93827000000E+00  0.93827000000E+00 0. -1.
     999902    2    1    2    0    0  0.72232230108E-02 -0.17588752807E-01 -0.16321054735E-01  0.10188717478E+01  0.10185635584E+01 0.  0.
     999903    2    3    3    0    0 -0.37798642852E-01 -0.10518175369E+00 -0.67192479513E-01  0.13191774444E+00  0.19887767188E-01 0.  0.
         14    1    1    2    0    0 -0.72232230108E-02  0.17588752807E-01  0.16321054735E-01  0.25058252206E-01  0.00000000000E+00 0.  1.
     999901    1    3    3    0    0  0.45021865862E-01  0.87593000883E-01  0.50871424778E-01  0.88695400336E+00  0.88000000000E+00 0.  1.
        -11    1    4    4    0    0 -0.10632162305E-01 -0.41085721285E-01 -0.15408052525E-01  0.45152503501E-01  0.51100000000E-03 0. -1.
         11    1    4    4    0    0 -0.27166480547E-01 -0.64096032406E-01 -0.51784426988E-01  0.86765240937E-01  0.51100000000E-03 0.  1.
</event>
<event>
 8    1  0.1119901E+005  0.1043930E+01  0.7957747E-01            NaN
         13   -1    0    0    0    0  0.00000000000E+00  0.00000000000E+00  0.74505805969E-08  0.10566000000E+00  0.10566000000E+00 0.  1.
     999900   -1    0    0    0    0 -0.00000000000E+00 -0.00000000000E+00 -0.74505805969E-08  0.93827000000E+00  0.93827000000E+00 0. -1.
     999902    2    1    2    0    0  0.11550336614E-01 -0.15826398781E-01  0.13626514590E-01  0.10200643956E+01  0.10197851754E+01 0.  0.
     999903    2    3    3    0    0 -0.65480564633E-01 -0.44890155523E-01  0.10316028452E+00  0.13169805355E+00  0.19987561101E-01 0.  0.
         14    1    1    2    0    0 -0.11550336614E-01  0.15826398781E-01 -0.13626514590E-01  0.23865604416E-01  0.00000000000E+00 0.  1.
     999901    1    3    3    0    0  0.77030901247E-01  0.29063756742E-01 -0.89533769930E-01  0.88836634204E+00  0.88000000000E+00 0. -1.
        -11    1    4    4    0    0 -0.24164148670E-01 -0.14838904201E-01  0.52931757619E-01  0.60051071967E-01  0.51100000000E-03 0.  1.
         11    1    4    4    0    0 -0.41316415963E-01 -0.30051251322E-01  0.50228526902E-01  0.71646981582E-01  0.51100000000E-03 0. -1.
</event>
<event>
 8    1  0.1119901E+005  0.1043930E+01  0.7957747E-01            NaN
         13   -1    0    0    0    0  0.00000000000E+00  0.00000000000E+00  0.74505805969E-08  0.10566000000E+00  0.10566000000E+00 0. -1.
     999900   -1    0    0    0    0 -0.00000000000E+00 -0.00000000000E+00 -0.74505805969E-08  0.93827000000E+00  0.93827000000E+00 0.  1.
     999902    2    1    2    0    0 -0.14122869930E-01  0.14921970844E-01  0.78671701594E-02  0.10219297037E+01  0.10216928630E+01 0.  0.
     999903    2    3    3    0    0 -0.84201682744E-01  0.10213180217E+00 -0.13717725603E-01  0.13458394114E+00  0.20095592236E-01 0.  0.
         14    1    1    2    0    0  0.14122869930E-01 -0.14921970844E-01 -0.78671701594E-02  0.22000296254E-01  0.00000000000E+00 0.  1.
     999901    1    3    3    0    0  0.70078812813E-01 -0.87209831322E-01  0.21584895762E-01  0.88734576260E+00  0.88000000000E+00 0. -1.
        -11    1    4    4    0    0 -0.36389918368E-01  0.39151870819E-01 -0.14931924013E-01  0.55500618224E-01  0.51100000000E-03 0.  1.
         11    1    4    4    0    0 -0.47811764375E-01  0.62979931347E-01  0.12141984103E-02  0.79083322919E-01  0.51100000000E-03 0. -1.
</event>
<event>
 8    1  0.1119901E+005  0.1043930E+01  0.7957747E-01            NaN
         13   -1    0    0    0    0  0.00000000000E+00  0.00000000000E+00  0.74505805969E-08  0.10566000000E+00  0.10566000000E+00 0. -1.
     999900   -1    0    0    0    0 -0.00000000000E+00 -0.00000000000E+00 -0.74505805969E-08  0.93827000000E+00  0.93827000000E+00 0.  1.
     999902    2    1    2    0    0  0.11616536110E-01  0.20957055525E-01  0.51485207859E-03  0.10199632071E+01  0.10196815860E+01 0.  0.
     999903    2    3    3    0    0 -0.83479363519E-02  0.11924255445E+00 -0.53863019840E-01  0.13259881050E+00  0.19817790178E-01 0.  0.
         14    1    1    2    0    0 -0.11616536110E-01 -0.20957055525E-01 -0.51485207859E-03  0.23966792864E-01  0.00000000000E+00 0. -1.
     999901    1    3    3    0    0  0.19964472462E-01 -0.98285498924E-01  0.54377871918E-01  0.88736439663E+00  0.88000000000E+00 0. -1.
        -11    1    4    4    0    0 -0.67497520853E-02  0.90741512093E-01 -0.49890632017E-01  0.10377339473E+00  0.51100000000E-03 0. -1.
         11    1    4    4    0    0 -0.15981842666E-02  0.28501042356E-01 -0.39723878229E-02  0.28825415771E-01  0.51100000000E-03 0.  1.
</event>
<event>
 8    1  0.1119901E+005  0.1043930E+01  0.7957747E-01            NaN
         13   -1    0    0    0    0  0.00000000000E+00  0.00000000000E+00  0.74505805969E-08  0.10566000000E+00  0.10566000000E+00 0.  1.
     999900   -1    0    0    0    0 -0.00000000000E+00 -0.00000000000E+00 -0.74505805969E-08  0.93827000000E+00  0.93827000000E+00 0.  1.
     999902    2    1    2    0    0  0.25215469000E-02  0.16733070651E-01 -0.18280365435E-01  0.10190196485E+01  0.10187151311E+01 0.  0.
     999903    2    3    3    0    0 -0.17603387256E-01  0.11840586506E+00  0.47639846178E-01  0.13048836350E+00  0.20684050446E-01 0.  0.
         14    1    1    2    0    0 -0.25215469000E-02 -0.16733070651E-01  0.18280365435E-01  0.24910351515E-01  0.00000000000E+00 0.  1.
     999901    1    3    3    0    0  0.20124934156E-01 -0.10167279440E+00 -0.65920211613E-01  0.88853128498E+00  0.88000000000E+00 0.  1.
        -11    1    4    4    0    0 -0.47423360111E-02  0.57445603391E-01  0.12590945403E-01  0.59002373909E-01  0.51100000000E-03 0. -1.
         11    1    4    4    0    0 -0.12861051245E-01  0.60960261664E-01  0.35048900775E-01  0.71485989591E-01  0.51100000000E-03 0.  1.
</event>
<event>
 8    1  0.1119901E+005  0.1043930E+01  0.7957747E-01            NaN
         13   -1    0    0    0    0  0.00000000000E+00  0.00000000000E+00  0.74505805969E-08  0.10566000000E+00  0.10566000000E+00 0.  1.
     999900   -1    0    0    0    0 -0.00000000000E+00 -0.00000000000E+00 -0.74505805969E-08  0.93827000000E+00  0.93827000000E+00 0. -1.
     999902    2    1    2    0    0  0.60970820123E-02 -0.20395633255E-01  0.10151008664E-01  0.10203461233E+01  0.10200735327E+01 0.  0.
     999903    2    3    3    0    0  0.56141531045E-01 -0.72107708454E-01  0.94952203959E-01  0.13334565634E+00  0.20340843197E-01 0.  0.
         14    1    1    2    0    0 -0.60970820123E-02  0.20395633255E-01 -0.10151008664E-01  0.23583876735E-01  0.00000000000E+00 0. -1.
     999901    1    3    3    0    0 -0.50044449033E-01  0.51712075199E-01 -0.84801195294E-01  0.88700046692E+00  0.88000000000E+00 0. -1.
        -11    1    4    4    0    0  0.51933796631E-01 -0.70415901277E-01  0.83204359042E-01  0.12074247335E+00  0.51100000000E-03 0.  1.
         11    1    4    4    0    0  0.42077344146E-02 -0.16918071767E-02  0.11747844917E-01  0.12603182995E-01  0.51100000000E-03 0. -1.
</event>
<event>
 8    1  0.1119901E+005  0.1043930E+01  0.7957747E-01            NaN
         13   -1    0    0    0    0  0.00000000000E+00  0.00000000000E+00  0.74505805969E-08  0.10566000000E+00  0.10566000000E+00 0. -1.
     999900   -1    0    0    0    0 -0.00000000000E+00 -0.00000000000E+00 -0.74505805969E-08  0.93827000000E+00  0.93827000000E+00 0.  1.
     999902    2    1    2    0    0 -0.21273201801E-03  0.31555189225E-02 -0.23411456768E-01  0.10203058839E+01  0.10200323514E+01 0.  0.
     999903    2    3    3    0    0 -0.79382272278E-01 -0.10101487681E+00 -0.13194028849E-01  0.13057351778E+00  0.19230461730E-01 0.  0.
         14    1    1    2    0    0  0.21273201801E-03 -0.31555189225E-02  0.23411456768E-01  0.23624116123E-01  0.00000000000E+00 0. -1.
     999901    1    3    3    0    0  0.79169540260E-01  0.10417039573E+00 -0.10217427919E-01  0.88973236610E+00  0.88000000000E+00 0. -1.
        -11    1    4    4    0    0 -0.34277451231E-01 -0.28917574472E-01 -0.53556954990E-02  0.45167625259E-01  0.51100000000E-03 0. -1.
         11    1    4    4    0    0 -0.45104821048E-01 -0.72097302339E-01 -0.78383333498E-02  0.85405892519E-01  0.51100000000E-03 0.  1.
</event>
<event>
 8    1  0.1119901E+005  0.1043930E+01  0.7957747E-01            NaN
         13   -1    0    0    0    0  0.00000000000E+00  0.00000000000E+00  0.74505805969E-08  0.10566000000E+00  0.10566000000E+00 0.  1.
     999900   -1    0    0    0    0 -0.00000000000E+00 -0.00000000000E+00 -0.74505805969E-08  0.93827000000E+00  0.93827000000E+00 0.  1.
     999902    2    1    2    0    0  0.11370143315E-01  0.20732164495E-01  0.45425692746E-02  0.10198522563E+01  0.10195679904E+01 0.  0.
     999903    2    3    3    0    0  0.11210328504E+00  0.11346384341E-01 -0.64318463859E-01  0.13138329201E+00  0.20707913246E-01 0.  0.
         14    1    1    2    0    0 -0.11370143315E-01 -0.20732164495E-01 -0.45425692746E-02  0.24077743650E-01  0.00000000000E+00 0.  1.
     999901    1    3    3    0    0 -0.10073314173E+00  0.93857801545E-02  0.68861033134E-01  0.88846896434E+00  0.88000000000E+00 0. -1.
        -11    1    4    4    0    0  0.14530953322E-02 -0.38662118241E-03 -0.50861474256E-02  0.53283185544E-02  0.51100000000E-03 0. -1.
         11    1    4    4    0    0  0.11065018971E+00  0.11733005523E-01 -0.59232316433E-01  0.12605497346E+00  0.51100000000E-03 0.  1.
</event>
<event>
 8    1  0.1119901E+005  0.1043930E+01  0.7957747E-01            NaN
         13   -1    0    0    0    0  0.00000000000E+00  0.00000000000E+00  0.74505805969E-08  0.10566000000E+00  0.10566000000E+00 0.  1.
     999900   -1    0    0    0    0 -0.00000000000E+00 -0.00000000000E+00 -0.74505805969E-08  0.93827000000E+00  0.93827000000E+00 0.  1.
     999902    2    1    2    0    0  0.17319705873E-01  0.14296742309E-01  0.67897434095E-02  0.10204679100E+01  0.10201981600E+01 0.  0.
     999903    2    3    3    0    0  0.11864102734E+00 -0.37641550854E-01 -0.39016821115E-01  0.13195125970E+00  0.19905850581E-01 0.  0.
         14    1    1    2    0    0 -0.17319705873E-01 -0.14296742309E-01 -0.67897434095E-02  0.23462090012E-01  0.00000000000E+00 0.  1.
     999901    1    3    3    0    0 -0.10132132147E+00  0.51938293163E-01  0.45806564525E-01  0.88851665029E+00  0.88000000000E+00 0. -1.
        -11    1    4    4    0    0  0.37404770407E-01 -0.21489306890E-01 -0.11117843116E-01  0.44550810502E-01  0.51100000000E-03 0.  1.
         11    1    4    4    0    0  0.81236256936E-01 -0.16152243965E-01 -0.27898977999E-01  0.87400449200E-01  0.51100000000E-03 0. -1.
</event>
<event>
 8    1  0.1119901E+005  0.1043930E+01  0.7957747E-01            NaN
         13   -1    0    0    0    0  0.00000000000E+00  0.00000000000E+00  0.74505805969E-08  0.10566000000E+00  0.10566000000E+00 0. -1.
     999900   -1    0    0    0    0 -0.00000000000E+00 -0.00000000000E+00 -0.74505805969E-08  0.93827000000E+00  0.93827000000E+00 0.  1.
     999902    2    1    2    0    0 -0.29964884920E-01  0.26469138609E-02 -0.13269718464E-01  0.10110516498E+01  0.10105169235E+01 0.  0.
     999903    2    3    3    0    0  0.68572373735E-01 -0.37930679391E-01  0.87225684678E-01  0.11894433652E+00  0.19963172212E-01 0.  0.
         14    1    1    2    0    0  0.29964884920E-01 -0.26469138609E-02  0.13269718464E-01  0.32878350162E-01  0.00000000000E+00 0. -1.
     999901    1    3    3    0    0 -0.98537258655E-01  0.40577593252E-01 -0.10049540314E+00  0.89210731331E+00  0.88000000000E+00 0. -1.
        -11    1    4    4    0    0  0.24606285333E-01 -0.43241783261E-02  0.21010974011E-01  0.32647970013E-01  0.51100000000E-03 0. -1.
         11    1    4    4    0    0  0.43966088402E-01 -0.33606501065E-01  0.66214710667E-01  0.86296366510E-01  0.51100000000E-03 0.  1.
</event>
<event>
 8    1  0.1119901E+005  0.1043930E+01  0.7957747E-01            NaN
         13   -1    0    0    0    0  0.00000000000E+00  0.00000000000E+00  0.74505805969E-08  0.10566000000E+00  0.10566000000E+00 0.  1.
     999900   -1    0    0    0    0 -0.00000000000E+00 -0.00000000000E+00 -0.74505805969E-08  0.93827000000E+00  0.93827000000E+00 0.  1.
     999902    2    1    2    0    0 -0.15761374167E-01  0.15122958284E-01  0.79098946306E-02  0.10206987448E+01  0.10204343372E+01 0.  0.
     999903    2    3    3    0    0  0.10305473312E+00  0.29364194579E-01 -0.69216305528E-01  0.12925691785E+00  0.20830744619E-01 0.  0.
         14    1    1    2    0    0  0.15761374167E-01 -0.15122958284E-01 -0.79098946306E-02  0.23231255153E-01  0.00000000000E+00 0.  1.
     999901    1    3    3    0    0 -0.11881610728E+00 -0.14241236295E-01  0.77126200159E-01  0.89144182699E+00  0.88000000000E+00 0.  1.
        -11    1    4    4    0    0  0.21755284468E-01 -0.21077623431E-02 -0.16344757413E-01  0.27297385960E-01  0.51100000000E-03 0. -1.
         11    1    4    4    0    0  0.81299448648E-01  0.31471956923E-01 -0.52871548115E-01  0.10195953189E+00  0.51100000000E-03 0.  1.
</event>
<event>
 8    1  0.1119901E+005  0.1043930E+01  0.7957747E-01            NaN
         13   -1    0    0    0    0  0.00000000000E+00  0.00000000000E+00  0.74505805969E-08  0.10566000000E+00  0.10566000000E+00 0. -1.
     999900   -1    0    0    0    0 -0.00000000000E+00 -0.00000000000E+00 -0.74505805969E-08  0.93827000000E+00  0.93827000000E+00 0.  1.
     999902    2    1    2    0    0 -0.15181032206E-01 -0.12664666412E-01  0.13084433047E-01  0.10202221974E+01  0.10199467007E+01 0.  0.
     999903    2    3    3    0    0 -0.39598098027E-01 -0.12103284497E+00  0.32906138037E-01  0.13301717310E+00  0.19844281000E-01 0.  0.
         14    1    1    2    0    0  0.15181032206E-01  0.12664666412E-01 -0.13084433047E-01  0.23707802562E-01  0.00000000000E+00 0.  1.
     999901    1    3    3    0    0  0.24417065821E-01  0.10836817856E+00 -0.19821704990E-01  0.88720502434E+00  0.88000000000E+00 0.  1.
        -11    1    4    4    0    0 -0.39520218139E-01 -0.10739580781E+00  0.33846503071E-01  0.11933798250E+00  0.51100000000E-03 0. -1.
         11    1    4    4    0    0 -0.77879887831E-04 -0.13637037165E-01 -0.94036503423E-03  0.13679190594E-01  0.51100000000E-03 0.  1.
</event>
<event>
 8    1  0.1119901E+005  0.1043930E+01  0.7957747E-01            NaN
         13   -1    0    0    0    0  0.00000000000E+00  0.00000000000E+00  0.74505805969E-08  0.10566000000E+00  0.10566000000E+00 0. -1.
     999900   -1    0    0    0    0 -0.00000000000E+00 -0.00000000000E+00 -0.74505805969E-08  0.93827000000E+00  0.93827000000E+00 0. -1.
     999902    2    1    2    0    0  0.18788114809E-01  0.14057249483E-01  0.27414726651E-02  0.10203055382E+01  0.10200319976E+01 0.  0.
     999903    2    3    3    0    0  0.13883680681E-01 -0.11888483345E+00  0.44800316236E-01  0.12931362065E+00  0.19712532455E-01 0.  0.
         14    1    1    2    0    0 -0.18788114809E-01 -0.14057249483E-01 -0.27414726651E-02  0.23624461761E-01  0.00000000000E+00 0.  1.
     999901    1    3    3    0    0  0.49044341285E-02  0.13294208294E+00 -0.42058843571E-01  0.89099191759E+00  0.88000000000E+00 0. -1.
        -11    1    4    4    0    0  0.17648980706E-01 -0.70859955221E-01  0.29600605611E-01  0.78797695064E-01  0.51100000000E-03 0. -1.
         11    1    4    4    0    0 -0.37653000254E-02 -0.48024878233E-01  0.15199710625E-01  0.50515925584E-01  0.51100000000E-03 0.  1.
</event>
<event>
 8    1  0.1119901E+005  0.1043930E+01  0.7957747E-01            NaN
         13   -1    0    0    0    0  0.00000000000E+00  0.00000000000E+00  0.74505805969E-08  0.10566000000E+00  0.10566000000E+00 0.  1.
     999900   -1    0    0    0    0 -0.00000000000E+00 -0.00000000000E+00 -0.74505805969E-08  0.93827000000E+00  0.93827000000E+00 0. -1.
     999902    2    1    2    0    0  0.76359646681E-02  0.12723511508E-01  0.17863485444E-01  0.10207071704E+01  0.10204429567E+01 0.  0.
     999903    2    3    3    0    0  0.72978942358E-01  0.10397469680E+00  0.35523342818E-01  0.13340318975E+00  0.19945915579E-01 0.  0.
         14    1    1    2    0    0 -0.76359646681E-02 -0.12723511508E-01 -0.17863485444E-01  0.23222829581E-01  0.00000000000E+00 0.  1.
     999901    1    3    3    0    0 -0.65342977690E-01 -0.91251185291E-01 -0.17659857374E-01  0.88730398067E+00  0.88000000000E+00 0.  1.
        -11    1    4    4    0    0  0.49778167657E-01  0.70091141733E-01  0.14221292540E-01  0.87138627526E-01  0.51100000000E-03 0.  1.
         11    1    4    4    0    0  0.23200774701E-01  0.33883555066E-01  0.21302050278E-01  0.46264562223E-01  0.51100000000E-03 0. -1.
</event>
<event>
 8    1  0.1119901E+005  0.1043930E+01  0.7957747E-01            NaN
         13   -1    0    0    0    0  0.00000000000E+00  0.00000000000E+00  0.74505805969E-08  0.10566000000E+00  0.10566000000E+00 0.  1.
     999900   -1    0    0    0    0 -0.00000000000E+00 -0.00000000000E+00 -0.74505805969E-08  0.93827000000E+00  0.93827000000E+00 0. -1.
     999902    2    1    2    0    0  0.17611019282E-01  0.14646293732E-01 -0.86955721836E-02  0.10194294919E+01  0.10191350323E+01 0.  0.
     999903    2    3    3    0    0  0.19095556226E-01 -0.12584092376E+00  0.15945009127E-02  0.12822539200E+00  0.15447665177E-01 0.  0.
         14    1    1    2    0    0 -0.17611019282E-01 -0.14646293732E-01  0.86955721836E-02  0.24500508073E-01  0.00000000000E+00 0.  1.
     999901    1    3    3    0    0 -0.14845369443E-02  0.14048721749E+00 -0.10290073096E-01  0.89120409993E+00  0.88000000000E+00 0. -1.
        -11    1    4    4    0    0 -0.58414716752E-03 -0.16939051663E-01  0.44163193460E-02  0.17522491167E-01  0.51100000000E-03 0. -1.
         11    1    4    4    0    0  0.19679703394E-01 -0.10890187210E+00 -0.28218184334E-02  0.11070290083E+00  0.51100000000E-03 0.  1.
</event>
<event>
 8    1  0.1119901E+005  0.1043930E+01  0.7957747E-01            NaN
         13   -1    0    0    0    0  0.00000000000E+00  0.00000000000E+00  0.74505805969E-08  0.10566000000E+00  0.10566000000E+00 0. -1.
     999900   -1    0    0    0    0 -0.00000000000E+00 -0.00000000000E+00 -0.74505805969E-08  0.93827000000E+00  0.93827000000E+00 0.  1.
     999902    2    1    2    0    0 -0.22137732096E-02 -0.23268264888E-01 -0.87434604828E-02  0.10189748193E+01  0.10186691913E+01 0.  0.
     999903    2    3    3    0    0  0.95635720474E-02  0.88662872630E-01 -0.89977838422E-01  0.12809530468E+00  0.18969153386E-01 0.  0.
         14    1    1    2    0    0  0.22137732096E-02  0.23268264888E-01  0.87434604828E-02  0.24955180703E-01  0.00000000000E+00 0. -1.
     999901    1    3    3    0    0 -0.11777345257E-01 -0.11193113752E+00  0.81234377939E-01  0.89087951462E+00  0.88000000000E+00 0. -1.
        -11    1    4    4    0    0  0.92071843586E-02  0.28684057755E-01 -0.39632854095E-01  0.49785255426E-01  0.51100000000E-03 0. -1.
         11    1    4    4    0    0  0.35638768874E-03  0.59978814875E-01 -0.50344984327E-01  0.78310049253E-01  0.51100000000E-03 0.  1.
</event>
<event>
 8    1  0.1119901E+005  0.1043930E+01  0.7957747E-01            NaN
         13   -1    0    0    0    0  0.00000000000E+00  0.00000000000E+00  0.74505805969E-08  0.10566000000E+00  0.10566000000E+00 0.  1.
     999900   -1    0    0    0    0 -0.00000000000E+00 -0.00000000000E+00 -0.74505805969E-08  0.93827000000E+00  0.93827000000E+00 0. -1.
     999902    2    1    2    0    0  0.57174332233E-02  0.21604888544E-01 -0.63675405010E-02  0.10206919746E+01  0.10204274111E+01 0.  0.
     999903    2    3    3    0    0 -0.10755634445E+00  0.40148156698E-01 -0.61270545363E-01  0.13154117670E+00  0.19203117418E-01 0.  0.
         14    1    1    2    0    0 -0.57174332233E-02 -0.21604888544E-01  0.63675405010E-02  0.23238025383E-01  0.00000000000E+00 0.  1.
     999901    1    3    3    0    0  0.11327377768E+00 -0.18543268154E-01  0.54903004862E-01  0.88915079792E+00  0.88000000000E+00 0.  1.
        -11    1    4    4    0    0 -0.17295261641E-01  0.38205963432E-03 -0.51400480130E-02  0.18054175677E-01  0.51100000000E-03 0. -1.
         11    1    4    4    0    0 -0.90261082813E-01  0.39766097064E-01 -0.56130497350E-01  0.11348700102E+00  0.51100000000E-03 0.  1.
</event>
<event>
 8    1  0.1119901E+005  0.1043930E+01  0.7957747E-01            NaN
         13   -1    0    0    0    0  0.00000000000E+00  0.00000000000E+00  0.74505805969E-08  0.10566000000E+00  0.10566000000E+00 0. -1.
     999900   -1    0    0    0    0 -0.00000000000E+00 -0.00000000000E+00 -0.74505805969E-08  0.93827000000E+00  0.93827000000E+00 0. -1.
     999902    2    1    2    0    0 -0.95781132471E-02 -0.43087827402E-02 -0.21364985932E-01  0.10201231000E+01  0.10198452680E+01 0.  0.
     999903    2    3    3    0    0 -0.11331079971E+00  0.17453441251E-01  0.57187806190E-01  0.13028906732E+00  0.23681975041E-01 0.  0.
         14    1    1    2    0    0  0.95781132471E-02  0.43087827402E-02  0.21364985932E-01  0.23806899965E-01  0.00000000000E+00 0. -1.
     999901    1    3    3    0    0  0.10373268647E+00 -0.21762223991E-01 -0.78552792122E-01  0.88983403272E+00  0.88000000000E+00 0. -1.
        -11    1    4    4    0    0 -0.59708112753E-01  0.13617545271E-02  0.39444986781E-01  0.71575702630E-01  0.51100000000E-03 0. -1.
         11    1    4    4    0    0 -0.53602686962E-01  0.16091686724E-01  0.17742819409E-01  0.58713364686E-01  0.51100000000E-03 0.  1.
</event>
<event>
 8    1  0.1119901E+005  0.1043930E+01  0.7957747E-01            NaN
         13   -1    0    0    0    0  0.00000000000E+00  0.00000000000E+00  0.74505805969E-08  0.10566000000E+00  0.10566000000E+00 0.  1.
     999900   -1    0    0    0    0 -0.00000000000E+00 -0.00000000000E+00 -0.74505805969E-08  0.93827000000E+00  0.93827000000E+00 0.  1.
     999902    2    1    2    0    0 -0.16812273358E-01 -0.14948672682E-01  0.78995428750E-02  0.10200863818E+01  0.10198076820E+01 0.  0.
     999903    2    3    3    0    0  0.43709983230E-01  0.11485816443E+00  0.29108782546E-01  0.12825534942E+00  0.22341729190E-01 0.  0.
         14    1    1    2    0    0  0.16812273358E-01  0.14948672682E-01 -0.78995428750E-02  0.23843618183E-01  0.00000000000E+00 0.  1.
     999901    1    3    3    0    0 -0.60522256588E-01 -0.12980683711E+00 -0.21209239671E-01  0.89183103240E+00  0.88000000000E+00 0.  1.
        -11    1    4    4    0    0  0.44956863981E-02  0.40866292689E-01  0.78869687914E-02  0.41865623990E-01  0.51100000000E-03 0.  1.
         11    1    4    4    0    0  0.39214296832E-01  0.73991871739E-01  0.21221813755E-01  0.86389725428E-01  0.51100000000E-03 0. -1.
</event>
<event>
 8    1  0.1119901E+005  0.1043930E+01  0.7957747E-01            NaN
         13   -1    0    0    0    0  0.00000000000E+00  0.00000000000E+00  0.74505805969E-08  0.10566000000E+00  0.10566000000E+00 0. -1.
     999900   -1    0    0    0    0 -0.00000000000E+00 -0.00000000000E+00 -0.74505805969E-08  0.93827000000E+00  0.93827000000E+00 0.  1.
     999902    2    1    2    0    0  0.27459597989E-02  0.15804838462E-01 -0.17270928267E-01  0.10203584456E+01  0.10200861431E+01 0.  0.
     999903    2    3    3    0    0 -0.83840662819E-01  0.10601523969E-01  0.95545467953E-01  0.12892597089E+00  0.18743544776E-01 0.  0.
         14    1    1    2    0    0 -0.27459597989E-02 -0.15804838462E-01  0.17270928267E-01  0.23571554409E-01  0.00000000000E+00 0. -1.
     999901    1    3    3    0    0  0.86586622618E-01  0.52033144934E-02 -0.11281639622E+00  0.89143247470E+00  0.88000000000E+00 0.  1.
        -11    1    4    4    0    0 -0.45037624387E-02  0.26864274358E-02  0.13631324422E-01  0.14614201825E-01  0.51100000000E-03 0.  1.
         11    1    4    4    0    0 -0.79336900380E-01  0.79150965330E-02  0.81914143531E-01  0.11431176906E+00  0.51100000000E-03 0. -1.
</event>
<event>
 8    1  0.1119901E+005  0.1043930E+01  0.7957747E-01            NaN
         13   -1    0    0    0    0  0.00000000000E+00  0.00000000000E+00  0.74505805969E-08  0.10566000000E+00  0.10566000000E+00 0.  1.
     999900   -1    0    0    0    0 -0.00000000000E+00 -0.00000000000E+00 -0.74505805969E-08  0.93827000000E+00  0.93827000000E+00 0.  1.
     999902    2    1    2    0    0  0.38497635034E-02 -0.20686996257E-01 -0.11712922908E-01  0.10198475363E+01  0.10195631576E+01 0.  0.
     999903    2    3    3    0    0  0.38536240229E-01 -0.27947518457E-01  0.11879729407E+00  0.12951682048E+00  0.19892312840E-01 0.  0.
         14    1    1    2    0    0 -0.38497635034E-02  0.20686996257E-01  0.11712922908E-01  0.24082463666E-01  0.00000000000E+00 0. -1.
     999901    1    3    3    0    0 -0.34686476725E-01  0.72605221992E-02 -0.13051021698E+00  0.89033071585E+00  0.88000000000E+00 0.  1.
        -11    1    4    4    0    0  0.48917672159E-02 -0.10323442869E-01  0.46065193128E-01  0.47463312127E-01  0.51100000000E-03 0.  1.
         11    1    4    4    0    0  0.33644473013E-01 -0.17624075587E-01  0.72732100945E-01  0.82053508356E-01  0.51100000000E-03 0. -1.
</event>
<event>
 8    1  0.1119901E+005  0.1043930E+01  0.7957747E-01            NaN
         13   -1    0    0    0    0  0.00000000000E+00  0.00000000000E+00  0.74505805969E-08  0.10566000000E+00  0.10566000000E+00 0.  1.
     999900   -1    0    0    0    0 -0.00000000000E+00 -0.00000000000E+00 -0.74505805969E-08  0.93827000000E+00  0.93827000000E+00 0. -1.
     999902    2    1    2    0    0 -0.55094903271E-02  0.19394086511E-01 -0.14584876129E-01  0.10190461963E+01  0.10187423357E+01 0.  0.
     999903    2    3    3    0    0 -0.50255946003E-01  0.11413173113E+00  0.36043780213E-01  0.13138594178E+00  0.20282984114E-01 0.  0.
         14    1    1    2    0    0  0.55094903271E-02 -0.19394086511E-01  0.14584876129E-01  0.24883803708E-01  0.00000000000E+00 0.  1.
     999901    1    3    3    0    0  0.44746455676E-01 -0.94737644622E-01 -0.50628656342E-01  0.88766025452E+00  0.88000000000E+00 0. -1.
        -11    1    4    4    0    0 -0.16816141858E-01  0.32934889007E-01  0.20244101235E-01  0.42161289078E-01  0.51100000000E-03 0.  1.
         11    1    4    4    0    0 -0.33439804145E-01  0.81196842126E-01  0.15799678978E-01  0.89224652699E-01  0.51100000000E-03 0. -1.
</event>
<event>
 8    1  0.1119901E+005  0.1043930E+01  0.7957747E-01            NaN
         13   -1    0    0    0    0  0.00000000000E+00  0.00000000000E+00  0.74505805969E-08  0.10566000000E+00  0.10566000000E+00 0.  1.
     999900   -1    0    0    0    0 -0.00000000000E+00 -0.00000000000E+00 -0.74505805969E-08  0.93827000000E+00  0.93827000000E+00 0. -1.
     999902    2    1    2    0    0 -0.20306873412E-01 -0.54918666939E-03  0.11355164229E-01  0.10206574740E+01  0.10203921152E+01 0.  0.
     999903    2    3    3    0    0 -0.11013075870E+00 -0.59696152007E-01  0.42145602785E-01  0.13357532163E+00  0.19331325265E-01 0.  0.
         14    1    1    2    0    0  0.20306873412E-01  0.54918666939E-03 -0.11355164229E-01  0.23272526043E-01  0.00000000000E+00 0. -1.
     999901    1    3    3    0    0  0.89823885292E-01  0.59146965338E-01 -0.30790438556E-01  0.88708215233E+00  0.88000000000E+00 0. -1.
        -11    1    4    4    0    0 -0.49417586883E-01 -0.32144682750E-01  0.28657156241E-01  0.65550532014E-01  0.51100000000E-03 0.  1.
         11    1    4    4    0    0 -0.60713171820E-01 -0.27551469257E-01  0.13488446544E-01  0.68024789613E-01  0.51100000000E-03 0. -1.
</event>
<event>
 8    1  0.1119901E+005  0.1043930E+01  0.7957747E-01            NaN
         13   -1    0    0    0    0  0.00000000000E+00  0.00000000000E+00  0.74505805969E-08  0.10566000000E+00  0.10566000000E+00 0.  1.
     999900   -1    0    0    0    0 -0.00000000000E+00 -0.00000000000E+00 -0.74505805969E-08  0.93827000000E+00  0.93827000000E+00 0. -1.
     999902    2    1    2    0    0 -0.63529938327E-02  0.44245759859E-02  0.22230575775E-01  0.10203899086E+01  0.10201183410E+01 0.  0.
     999903    2    3    3    0    0 -0.67936324317E-01 -0.38009745172E-01  0.10619190838E+00  0.13323564718E+00  0.20369864600E-01 0.  0.
         14    1    1    2    0    0  0.63529938327E-02 -0.44245759859E-02 -0.22230575775E-01  0.23540091389E-01  0.00000000000E+00 0. -1.
     999901    1    3    3    0    0  0.61583330484E-01  0.42434321158E-01 -0.83961332606E-01  0.88715426143E+00  0.88000000000E+00 0.  1.
        -11    1    4    4    0    0 -0.48821542871E-01 -0.28667671739E-01  0.60670783030E-01  0.82985441408E-01  0.51100000000E-03 0.  1.
         11    1    4    4    0    0 -0.19114781446E-01 -0.93420734324E-02  0.45521125351E-01  0.50250205770E-01  0.51100000000E-03 0. -1.
</event>
<event>
 8    1  0.1119901E+005  0.1043930E+01  0.7957747E-01            NaN
         13   -1    0    0    0    0  0.00000000000E+00  0.00000000000E+00  0.74505805969E-08  0.10566000000E+00  0.10566000000E+00 0. -1.
     999900   -1    0    0    0    0 -0.00000000000E+00 -0.00000000000E+00 -0.74505805969E-08  0.93827000000E+00  0.93827000000E+00 0. -1.
     999902    2    1    2    0    0 -0.55391836029E-02  0.22400522263E-01  0.60538401416E-02  0.10200738701E+01  0.10197948743E+01 0.  0.
     999903    2    3    3    0    0  0.65432087079E-01  0.56352134071E-01 -0.96160797880E-01  0.13067099996E+00  0.19263700287E-01 0.  0.
         14    1    1    2    0    0  0.55391836029E-02 -0.22400522263E-01 -0.60538401416E-02  0.23856129886E-01  0.00000000000E+00 0. -1.
     999901    1    3    3    0    0 -0.70971270682E-01 -0.33951611808E-01  0.10221463802E+00  0.88940287015E+00  0.88000000000E+00 0.  1.
        -11    1    4    4    0    0  0.15592289427E-01  0.14854836132E-01 -0.12819391331E-01  0.25067579883E-01  0.51100000000E-03 0.  1.
         11    1    4    4    0    0  0.49839797652E-01  0.41497297940E-01 -0.83341406549E-01  0.10560342008E+00  0.51100000000E-03 0. -1.
</event>
<event>
 8    1  0.1119901E+005  0.1043930E+01  0.7957747E-01            NaN
         13   -1    0    0    0    0  0.00000000000E+00  0.00000000000E+00  0.74505805969E-08  0.10566000000E+00  0.10566000000E+00 0. -1.
     999900   -1    0    0    0    0 -0.00000000000E+00 -0.00000000000E+00 -0.74505805969E-08  0.93827000000E+00  0.93827000000E+00 0. -1.
     999902    2    1    2    0    0  0.79543990461E-02 -0.21659955943E-01  0.45593808639E-02  0.10204094960E+01  0.10201383854E+01 0.  0.
     999903    2    3    3    0    0  0.50527814137E-01 -0.11640315321E+00 -0.35996099301E-01  0.13337312915E+00  0.19746349958E-01 0.  0.
         14    1    1    2    0    0 -0.79543990461E-02  0.21659955943E-01 -0.45593808639E-02  0.23520504023E-01  0.00000000000E+00 0.  1.
     999901    1    3    3    0    0 -0.42573415091E-01  0.94743197265E-01  0.40555480165E-01  0.88703636683E+00  0.88000000000E+00 0.  1.
        -11    1    4    4    0    0  0.28975991063E-01 -0.72209966954E-01 -0.12243692191E-01  0.78765833361E-01  0.51100000000E-03 0.  1.
         11    1    4    4    0    0  0.21551823074E-01 -0.44193186254E-01 -0.23752407110E-01  0.54607295791E-01  0.51100000000E-03 0. -1.
</event>
<event>
 8    1  0.1119901E+005  0.1043930E+01  0.7957747E-01            NaN
         13   -1    0    0    0    0  0.00000000000E+00  0.00000000000E+00  0.74505805969E-08  0.10566000000E+00  0.10566000000E+00 0.  1.
     999900   -1    0    0    0    0 -0.00000000000E+00 -0.00000000000E+00 -0.74505805969E-08  0.93827000000E+00  0.93827000000E+00 0.  1.
     999902    2    1    2    0    0  0.23357730605E-01 -0.30770229275E-02 -0.66237038769E-02  0.10194570537E+01  0.10191632642E+01 0.  0.
     999903    2    3    3    0    0 -0.32423039872E-02 -0.12725198975E+00 -0.19989262336E-01  0.13024075693E+00  0.18960557140E-01 0.  0.
         14    1    1    2    0    0 -0.23357730605E-01  0.30770229275E-02  0.66237038769E-02  0.24472946332E-01  0.00000000000E+00 0. -1.
     999901    1    3    3    0    0  0.26600034592E-01  0.12417496682E+00  0.13365558459E-01  0.88921629673E+00  0.88000000000E+00 0.  1.
        -11    1    4    4    0    0 -0.11120913243E-01 -0.79957620300E-01 -0.11432584142E-01  0.81534415167E-01  0.51100000000E-03 0. -1.
         11    1    4    4    0    0  0.78786092557E-02 -0.47294369451E-01 -0.85566781941E-02  0.48706341767E-01  0.51100000000E-03 0.  1.
</event>
<event>
 8    1  0.1304772E+005  0.1043930E+01  0.7957747E-01            NaN
         13   -1    0    0    0    0  0.00000000000E+00  0.00000000000E+00  0.74505805969E-08  0.10566000000E+00  0.10566000000E+00 0. -1.
     999900   -1    0    0    0    0 -0.00000000000E+00 -0.00000000000E+00 -0.74505805969E-08  0.93827000000E+00  0.93827000000E+00 0.  1.
     999902    2    1    2    0    0 -0.18280785441E-01  0.38574966621E-02  0.15626570095E-01  0.10195731305E+01  0.10192821550E+01 0.  0.
     999903    2    3    3    0    0 -0.33012817564E-01  0.64545164509E-01  0.10915564440E+00  0.13241603423E+00  0.19055892316E-01 0.  0.
         14    1    1    2    0    0  0.18280785441E-01 -0.38574966621E-02 -0.15626570095E-01  0.24356869458E-01  0.00000000000E+00 0. -1.
     999901    1    3    3    0    0  0.14732032123E-01 -0.60687667847E-01 -0.93529074303E-01  0.88715709631E+00  0.88000000000E+00 0.  1.
        -11    1    4    4    0    0 -0.22941213563E-01  0.24444570092E-01  0.51997805337E-01  0.61869775881E-01  0.51100000000E-03 0.  1.
         11    1    4    4    0    0 -0.10071604002E-01  0.40100594417E-01  0.57157839061E-01  0.70546258348E-01  0.51100000000E-03 0. -1.
</event>
<event>
 8    1  0.1119901E+005  0.1043930E+01  0.7957747E-01            NaN
         13   -1    0    0    0    0  0.00000000000E+00  0.00000000000E+00  0.74505805969E-08  0.10566000000E+00  0.10566000000E+00 0.  1.
     999900   -1    0    0    0    0 -0.00000000000E+00 -0.00000000000E+00 -0.74505805969E-08  0.93827000000E+00  0.93827000000E+00 0.  1.
     999902    2    1    2    0    0 -0.56762252455E-02  0.13203606006E-02  0.34679316172E-01  0.10087644223E+01  0.10081512991E+01 0.  0.
     999903    2    3    3    0    0 -0.87301921477E-01 -0.31558875708E-01 -0.70795257997E-01  0.11810810010E+00  0.17887610949E-01 0.  0.
         14    1    1    2    0    0  0.56762252455E-02 -0.13203606006E-02 -0.34679316172E-01  0.35165577705E-01  0.00000000000E+00 0. -1.
     999901    1    3    3    0    0  0.81625696231E-01  0.32879236309E-01  0.10547457417E+00  0.89065632219E+00  0.88000000000E+00 0. -1.
        -11    1    4    4    0    0 -0.38566506313E-01 -0.18708303612E-01 -0.42219695624E-01  0.60167598031E-01  0.51100000000E-03 0.  1.
         11    1    4    4    0    0 -0.48735415164E-01 -0.12850572096E-01 -0.28575562373E-01  0.57940502072E-01  0.51100000000E-03 0. -1.
</event>
<event>
 8    1  0.1119901E+005  0.1043930E+01  0.7957747E-01            NaN
         13   -1    0    0    0    0  0.00000000000E+00  0.00000000000E+00  0.74505805969E-08  0.10566000000E+00  0.10566000000E+00 0. -1.
     999900   -1    0    0    0    0 -0.00000000000E+00 -0.00000000000E+00 -0.74505805969E-08  0.93827000000E+00  0.93827000000E+00 0.  1.
     999902    2    1    2    0    0 -0.93685900004E-02 -0.73635693895E-02  0.19985949450E-01  0.10206613342E+01  0.10203960644E+01 0.  0.
     999903    2    3    3    0    0 -0.77678516554E-01 -0.73855120498E-01 -0.69010889164E-01  0.13105029014E+00  0.30383300740E-01 0.  0.
         14    1    1    2    0    0  0.93685900004E-02  0.73635693895E-02 -0.19985949450E-01  0.23268665801E-01  0.00000000000E+00 0.  1.
     999901    1    3    3    0    0  0.68309926554E-01  0.66491551109E-01  0.88996838613E-01  0.88961104406E+00  0.88000000000E+00 0. -1.
        -11    1    4    4    0    0 -0.50250842246E-01 -0.50839440536E-01 -0.61860867080E-01  0.94534775915E-01  0.51100000000E-03 0. -1.
         11    1    4    4    0    0 -0.27427674308E-01 -0.23015679962E-01 -0.71500220842E-02  0.36515514222E-01  0.51100000000E-03 0.  1.
</event>
<event>
 8    1  0.1119901E+005  0.1043930E+01  0.7957747E-01            NaN
         13   -1    0    0    0    0  0.00000000000E+00  0.00000000000E+00  0.74505805969E-08  0.10566000000E+00  0.10566000000E+00 0.  1.
     999900   -1    0    0    0    0 -0.00000000000E+00 -0.00000000000E+00 -0.74505805969E-08  0.93827000000E+00  0.93827000000E+00 0.  1.
     999902    2    1    2    0    0 -0.16368341013E-01 -0.17889997260E-02 -0.13633924287E-01  0.10225522780E+01  0.10223287897E+01 0.  0.
     999903    2    3    3    0    0 -0.62353155309E-01  0.11537771198E+00 -0.15567110198E-01  0.13359424821E+00  0.20128483171E-01 0.  0.
         14    1    1    2    0    0  0.16368341013E-01  0.17889997260E-02  0.13633924287E-01  0.21377722026E-01  0.00000000000E+00 0. -1.
     999901    1    3    3    0    0  0.45984814296E-01 -0.11716671171E+00  0.19331859104E-02  0.88895802977E+00  0.88000000000E+00 0.  1.
        -11    1    4    4    0    0 -0.30478810809E-01  0.76512601171E-01 -0.11551373978E-01  0.83167490092E-01  0.51100000000E-03 0. -1.
         11    1    4    4    0    0 -0.31874344500E-01  0.38865110812E-01 -0.40157362201E-02  0.50426758116E-01  0.51100000000E-03 0.  1.
</event>
<event>
 8    1  0.1119901E+005  0.1043930E+01  0.7957747E-01            NaN
         13   -1    0    0    0    0  0.00000000000E+00  0.00000000000E+00  0.74505805969E-08  0.10566000000E+00  0.10566000000E+00 0. -1.
     999900   -1    0    0    0    0 -0.00000000000E+00 -0.00000000000E+00 -0.74505805969E-08  0.93827000000E+00  0.93827000000E+00 0. -1.
     999902    2    1    2    0    0 -0.77723527521E-02  0.19779913049E-01  0.11395469296E-01  0.10198154577E+01  0.10195303118E+01 0.  0.
     999903    2    3    3    0    0  0.15689272443E-01 -0.10851835387E+00 -0.60660907437E-01  0.12728925949E+00  0.22370147388E-01 0.  0.
         14    1    1    2    0    0  0.77723527521E-02 -0.19779913049E-01 -0.11395469296E-01  0.24114542252E-01  0.00000000000E+00 0. -1.
     999901    1    3    3    0    0 -0.23461625195E-01  0.12829826692E+00  0.72056376733E-01  0.89252619826E+00  0.88000000000E+00 0. -1.
        -11    1    4    4    0    0  0.96550201386E-02 -0.65954079793E-01 -0.49036257354E-01  0.82752496709E-01  0.51100000000E-03 0. -1.
         11    1    4    4    0    0  0.60342523041E-02 -0.42564274076E-01 -0.11624650083E-01  0.44536762781E-01  0.51100000000E-03 0.  1.
</event>
<event>
 8    1  0.1119901E+005  0.1043930E+01  0.7957747E-01            NaN
         13   -1    0    0    0    0  0.00000000000E+00  0.00000000000E+00  0.74505805969E-08  0.10566000000E+00  0.10566000000E+00 0. -1.
     999900   -1    0    0    0    0 -0.00000000000E+00 -0.00000000000E+00 -0.74505805969E-08  0.93827000000E+00  0.93827000000E+00 0.  1.
     999902    2    1    2    0    0  0.91652965124E-02 -0.75363419759E-02  0.20691552176E-01  0.10200775485E+01  0.10197986397E+01 0.  0.
     999903    2    3    3    0    0 -0.17633768518E-03 -0.11423277495E+00 -0.58757234490E-01  0.13003063703E+00  0.20159265717E-01 0.  0.
         14    1    1    2    0    0 -0.91652965124E-02  0.75363419759E-02 -0.20691552176E-01  0.23852451488E-01  0.00000000000E+00 0.  1.
     999901    1    3    3    0    0  0.93416341976E-02  0.10669643297E+00  0.79448786666E-01  0.89004691148E+00  0.88000000000E+00 0.  1.
        -11    1    4    4    0    0  0.99185949245E-02 -0.61979674930E-01 -0.32453057737E-01  0.70663432603E-01  0.51100000000E-03 0. -1.
         11    1    4    4    0    0 -0.10094932610E-01 -0.52253100017E-01 -0.26304176752E-01  0.59367204426E-01  0.51100000000E-03 0.  1.
</event>
<event>
 8    1  0.1119901E+005  0.1043930E+01  0.7957747E-01            NaN
         13   -1    0    0    0    0  0.00000000000E+00  0.00000000000E+00  0.74505805969E-08  0.10566000000E+00  0.10566000000E+00 0.  1.
     999900   -1    0    0    0    0 -0.00000000000E+00 -0.00000000000E+00 -0.74505805969E-08  0.93827000000E+00  0.93827000000E+00 0.  1.
     999902    2    1    2    0    0 -0.32726814969E-02  0.22844549893E-01  0.75817607556E-02  0.10196387053E+01  0.10193493132E+01 0.  0.
     999903    2    3    3    0    0  0.88990462100E-01 -0.88855322267E-01 -0.81623357344E-02  0.12765371341E+00  0.20353775656E-01 0.  0.
         14    1    1    2    0    0  0.32726814969E-02 -0.22844549893E-01 -0.75817607556E-02  0.24291294740E-01  0.00000000000E+00 0.  1.
     999901    1    3    3    0    0 -0.92263143597E-01  0.11169987216E+00  0.15744096490E-01  0.89198499185E+00  0.88000000000E+00 0. -1.
        -11    1    4    4    0    0  0.66316419530E-02 -0.15956167134E-01  0.76010580370E-03  0.17303665116E-01  0.51100000000E-03 0. -1.
         11    1    4    4    0    0  0.82358820147E-01 -0.72899155132E-01 -0.89224415381E-02  0.11035004830E+00  0.51100000000E-03 0.  1.
</event>
<event>
 8    1  0.1119901E+005  0.1043930E+01  0.7957747E-01            NaN
         13   -1    0    0    0    0  0.00000000000E+00  0.00000000000E+00  0.74505805969E-08  0.10566000000E+00  0.10566000000E+00 0. -1.
     999900   -1    0    0    0    0 -0.00000000000E+00 -0.00000000000E+00 -0.74505805969E-08  0.93827000000E+00  0.93827000000E+00 0.  1.
     999902    2    1    2    0    0  0.84747902979E-02 -0.99801799305E-02 -0.19351910465E-01  0.10205650155E+01  0.10202975195E+01 0.  0.
     999903    2    3    3    0    0 -0.39336122300E-01 -0.84760900007E-01  0.87747705014E-01  0.12963944785E+00  0.19364555657E-01 0.  0.
         14    1    1    2    0    0 -0.84747902979E-02  0.99801799305E-02  0.19351910465E-01  0.23364984500E-01  0.00000000000E+00 0. -1.
     999901    1    3    3    0    0  0.47810912598E-01  0.74780720077E-01 -0.10709961548E+00  0.89092556765E+00  0.88000000000E+00 0.  1.
        -11    1    4    4    0    0 -0.27331830162E-02 -0.22595541598E-01  0.15511139743E-01  0.27547874086E-01  0.51100000000E-03 0.  1.
         11    1    4    4    0    0 -0.36602939284E-01 -0.62165358409E-01  0.72236565271E-01  0.10209157376E+00  0.51100000000E-03 0. -1.
</event>
<event>
 8    1  0.1119901E+005  0.1043930E+01  0.7957747E-01            NaN
         13   -1    0    0    0    0  0.00000000000E+00  0.00000000000E+00  0.74505805969E-08  0.10566000000E+00  0.10566000000E+00 0.  1.
     999900   -1    0    0    0    0 -0.00000000000E+00 -0.00000000000E+00 -0.74505805969E-08  0.93827000000E+00  0.93827000000E+00 0.  1.
     999902    2    1    2    0    0  0.19672914698E-01  0.53876465173E-02 -0.11707829348E-01  0.10204114206E+01  0.10201403549E+01 0.  0.
     999903    2    3    3    0    0  0.73037726551E-01  0.57634230221E-01  0.90286571091E-01  0.13137803184E+00  0.21267541895E-01 0.  0.
         14    1    1    2    0    0 -0.19672914698E-01 -0.53876465173E-02  0.11707829348E-01  0.23518579374E-01  0.00000000000E+00 0.  1.
     999901    1    3    3    0    0 -0.53364811852E-01 -0.52246583704E-01 -0.10199440044E+00  0.88903338878E+00  0.88000000000E+00 0.  1.
        -11    1    4    4    0    0  0.35177628607E-01  0.14526934858E-01  0.35706761670E-01  0.52189379578E-01  0.51100000000E-03 0.  1.
         11    1    4    4    0    0  0.37860097943E-01  0.43107295364E-01  0.54579809421E-01  0.79188652263E-01  0.51100000000E-03 0. -1.
</event>
<event>
 8    1  0.1119901E+005  0.1043930E+01  0.7957747E-01            NaN
         13   -1    0    0    0    0  0.00000000000E+00  0.00000000000E+00  0.74505805969E-08  0.10566000000E+00  0.10566000000E+00 0. -1.
     999900   -1    0    0    0    0 -0.00000000000E+00 -0.00000000000E+00 -0.74505805969E-08  0.93827000000E+00  0.93827000000E+00 0. -1.
     999902    2    1    2    0    0 -0.22934067256E-01  0.64707323171E-02 -0.18462825013E-02  0.10200291511E+01  0.10197490959E+01 0.  0.
     999903    2    3    3    0    0  0.47563110057E-01 -0.18257592099E-01 -0.11690247937E+00  0.12940056947E+00  0.21971085276E-01 0.  0.
         14    1    1    2    0    0  0.22934067256E-01 -0.64707323171E-02  0.18462825013E-02  0.23900848870E-01  0.00000000000E+00 0.  1.
     999901    1    3    3    0    0 -0.70497177313E-01  0.24728324416E-01  0.11505619687E+00  0.89062858166E+00  0.88000000000E+00 0.  1.
        -11    1    4    4    0    0  0.16969463768E-01 -0.17268344814E-01 -0.61618609320E-01  0.66206287985E-01  0.51100000000E-03 0.  1.
         11    1    4    4    0    0  0.30593646289E-01 -0.98924728456E-03 -0.55283870049E-01  0.63194281482E-01  0.51100000000E-03 0. -1.
</event>
<event>
 8    1  0.1119901E+005  0.1043930E+01  0.7957747E-01            NaN
         13   -1    0    0    0    0  0.00000000000E+00  0.00000000000E+00  0.74505805969E-08  0.10566000000E+00  0.10566000000E+00 0. -1.
     999900   -1    0    0    0    0 -0.00000000000E+00 -0.00000000000E+00 -0.74505805969E-08  0.93827000000E+00  0.93827000000E+00 0.  1.
     999902    2    1    2    0    0 -0.16765068815E-01  0.16481186048E-01 -0.28062809434E-02  0.10202535932E+01  0.10199788342E+01 0.  0.
     999903    2    3    3    0    0  0.25062005222E-01 -0.48135294896E-01 -0.11606788139E+00  0.12966222571E+00  0.19885395728E-01 0.  0.
         14    1    1    2    0    0  0.16765068815E-01 -0.16481186048E-01  0.28062809434E-02  0.23676406793E-01  0.00000000000E+00 0.  1.
     999901    1    3    3    0    0 -0.41827074037E-01  0.64616480944E-01  0.11326160045E+00  0.89059136750E+00  0.88000000000E+00 0. -1.
        -11    1    4    4    0    0  0.97345299977E-02 -0.36150397006E-01 -0.65022264176E-01  0.75031781516E-01  0.51100000000E-03 0.  1.
         11    1    4    4    0    0  0.15327475224E-01 -0.11984897891E-01 -0.51045617217E-01  0.54630444189E-01  0.51100000000E-03 0. -1.
</event>
<event>
 8    1  0.1119901E+005  0.1043930E+01  0.7957747E-01            NaN
         13   -1    0    0    0    0  0.00000000000E+00  0.00000000000E+00  0.74505805969E-08  0.10566000000E+00  0.10566000000E+00 0.  1.
     999900   -1    0    0    0    0 -0.00000000000E+00 -0.00000000000E+00 -0.74505805969E-08  0.93827000000E+00  0.93827000000E+00 0.  1.
     999902    2    1    2    0    0  0.13567003575E-01  0.27319574048E-02 -0.12763321426E-01  0.10251037005E+01  0.10249308110E+01 0.  0.
     999903    2    3    3    0    0 -0.10562070260E+00  0.79166884524E-01  0.58899015074E-02  0.13359040838E+00  0.19712378066E-01 0.  0.
         14    1    1    2    0    0 -0.13567003575E-01 -0.27319574048E-02  0.12763321426E-01  0.18826299453E-01  0.00000000000E+00 0.  1.
     999901    1    3    3    0    0  0.11918770617E+00 -0.76434927119E-01 -0.18653222933E-01  0.89151329217E+00  0.88000000000E+00 0.  1.
        -11    1    4    4    0    0 -0.60251693481E-01  0.56574501103E-01  0.85610756020E-03  0.82655518773E-01  0.51100000000E-03 0. -1.
         11    1    4    4    0    0 -0.45369009116E-01  0.22592383420E-01  0.50337939472E-02  0.50934889607E-01  0.51100000000E-03 0.  1.
</event>
<event>
 8    1  0.1119901E+005  0.1043930E+01  0.7957747E-01            NaN
         13   -1    0    0    0    0  0.00000000000E+00  0.00000000000E+00  0.74505805969E-08  0.10566000000E+00  0.10566000000E+00 0. -1.
     999900   -1    0    0    0    0 -0.00000000000E+00 -0.00000000000E+00 -0.74505805969E-08  0.93827000000E+00  0.93827000000E+00 0.  1.
     999902    2    1    2    0    0 -0.22546339256E-02  0.23718682105E-01  0.23273759413E-02  0.10199909956E+01  0.10197100348E+01 0.  0.
     999903    2    3    3    0    0 -0.58769725135E-01  0.10695017830E+00  0.48120964948E-01  0.13307584162E+00  0.22390424816E-01 0.  0.
         14    1    1    2    0    0  0.22546339256E-02 -0.23718682105E-01 -0.23273759413E-02  0.23939004442E-01  0.00000000000E+00 0. -1.
     999901    1    3    3    0    0  0.56515091209E-01 -0.83231496198E-01 -0.45793589006E-01  0.88691515394E+00  0.88000000000E+00 0.  1.
        -11    1    4    4    0    0 -0.23716613007E-01  0.23533421731E-01  0.98999698696E-02  0.34850684288E-01  0.51100000000E-03 0.  1.
         11    1    4    4    0    0 -0.35053112127E-01  0.83416756572E-01  0.38220995078E-01  0.98225157330E-01  0.51100000000E-03 0. -1.
</event>
<event>
 8    1  0.1119901E+005  0.1043930E+01  0.7957747E-01            NaN
         13   -1    0    0    0    0  0.00000000000E+00  0.00000000000E+00  0.74505805969E-08  0.10566000000E+00  0.10566000000E+00 0. -1.
     999900   -1    0    0    0    0 -0.00000000000E+00 -0.00000000000E+00 -0.74505805969E-08  0.93827000000E+00  0.93827000000E+00 0.  1.
     999902    2    1    2    0    0  0.52342372750E-02 -0.70583064276E-02  0.22110260948E-01  0.10201375523E+01  0.10198600615E+01 0.  0.
     999903    2    3    3    0    0 -0.39347315830E-01 -0.21770976323E-01 -0.11794444662E+00  0.12782634051E+00  0.20161700510E-01 0.  0.
         14    1    1    2    0    0 -0.52342372750E-02  0.70583064276E-02 -0.22110260948E-01  0.23792447723E-01  0.00000000000E+00 0.  1.
     999901    1    3    3    0    0  0.44581553105E-01  0.14712669895E-01  0.14005470756E+00  0.89231121177E+00  0.88000000000E+00 0. -1.
        -11    1    4    4    0    0 -0.21004060969E-01 -0.11140446460E-02 -0.41237612941E-01  0.46294854085E-01  0.51100000000E-03 0. -1.
         11    1    4    4    0    0 -0.18343254861E-01 -0.20656931677E-01 -0.76706833676E-01  0.81531486426E-01  0.51100000000E-03 0.  1.
</event>
<event>
 8    1  0.1119901E+005  0.1043930E+01  0.7957747E-01            NaN
         13   -1    0    0    0    0  0.00000000000E+00  0.00000000000E+00  0.74505805969E-08  0.10566000000E+00  0.10566000000E+00 0.  1.
     999900   -1    0    0    0    0 -0.00000000000E+00 -0.00000000000E+00 -0.74505805969E-08  0.93827000000E+00  0.93827000000E+00 0.  1.
     999902    2    1    2    0    0 -0.18930050543E-01 -0.82635731623E-03  0.15151816616E-01  0.10196687711E+01  0.10193801036E+01 0.  0.
     999903    2    3    3    0    0  0.94702608555E-01  0.48138496330E-01  0.71033637222E-01  0.12925722808E+00  0.19384387990E-01 0.  0.
         14    1    1    2    0    0  0.18930050543E-01  0.82635731623E-03 -0.15151816616E-01  0.24261228879E-01  0.00000000000E+00 0.  1.
     999901    1    3    3    0    0 -0.11363265910E+00 -0.48964853646E-01 -0.55881820606E-01  0.89041154304E+00  0.88000000000E+00 0.  1.
        -11    1    4    4    0    0  0.45393688506E-01  0.33887935748E-01  0.38125526496E-01  0.68284669121E-01  0.51100000000E-03 0.  1.
         11    1    4    4    0    0  0.49308920050E-01  0.14250560582E-01  0.32908110727E-01  0.60972558959E-01  0.51100000000E-03 0. -1.
</event>
<event>
 8    1  0.1119901E+005  0.1043930E+01  0.7957747E-01            NaN
         13   -1    0    0    0    0  0.00000000000E+00  0.00000000000E+00  0.74505805969E-08  0.10566000000E+00  0.10566000000E+00 0. -1.
     999900   -1    0    0    0    0 -0.00000000000E+00 -0.00000000000E+00 -0.74505805969E-08  0.93827000000E+00  0.93827000000E+00 0.  1.
     999902    2    1    2    0    0  0.20723887991E-01 -0.11787149289E-01 -0.80400892473E-03  0.10200749617E+01  0.10197959917E+01 0.  0.
     999903    2    3    3    0    0  0.43977376238E-01 -0.12330011677E+00  0.80252844801E-02  0.13268901238E+00  0.20125615504E-01 0.  0.
         14    1    1    2    0    0 -0.20723887991E-01  0.11787149289E-01  0.80400892473E-03  0.23855038298E-01  0.00000000000E+00 0.  1.
     999901    1    3    3    0    0 -0.23253488247E-01  0.11151296748E+00 -0.88292934048E-02  0.88738594932E+00  0.88000000000E+00 0.  1.
        -11    1    4    4    0    0  0.25058504227E-01 -0.42293231656E-01  0.54195535785E-02  0.49459870198E-01  0.51100000000E-03 0.  1.
         11    1    4    4    0    0  0.18918872011E-01 -0.81006885113E-01  0.26057309016E-02  0.83229142183E-01  0.51100000000E-03 0. -1.
</event>
<event>
 8    1  0.1119901E+005  0.1043930E+01  0.7957747E-01            NaN
         13   -1    0    0    0    0  0.00000000000E+00  0.00000000000E+00  0.74505805969E-08  0.10566000000E+00  0.10566000000E+00 0.  1.
     999900   -1    0    0    0    0 -0.00000000000E+00 -0.00000000000E+00 -0.74505805969E-08  0.93827000000E+00  0.93827000000E+00 0.  1.
     999902    2    1    2    0    0  0.23513991931E-01 -0.17711419606E-02 -0.38600517462E-02  0.10200355496E+01  0.10197556461E+01 0.  0.
     999903    2    3    3    0    0 -0.12114037125E+00  0.30540525223E-01  0.14299878491E-01  0.12745574270E+00  0.20803042893E-01 0.  0.
         14    1    1    2    0    0 -0.23513991931E-01  0.17711419606E-02  0.38600517462E-02  0.23894450399E-01  0.00000000000E+00 0. -1.
     999901    1    3    3    0    0  0.14465436318E+00 -0.32311667184E-01 -0.18159930237E-01  0.89257980690E+00  0.88000000000E+00 0.  1.
        -11    1    4    4    0    0 -0.76775610145E-01  0.10011143836E-01  0.42327176821E-02  0.77542854823E-01  0.51100000000E-03 0.  1.
         11    1    4    4    0    0 -0.44364761108E-01  0.20529381387E-01  0.10067160809E-01  0.49912887876E-01  0.51100000000E-03 0. -1.
</event>
<event>
 8    1  0.1119901E+005  0.1043930E+01  0.7957747E-01            NaN
         13   -1    0    0    0    0  0.00000000000E+00  0.00000000000E+00  0.74505805969E-08  0.10566000000E+00  0.10566000000E+00 0. -1.
     999900   -1    0    0    0    0 -0.00000000000E+00 -0.00000000000E+00 -0.74505805969E-08  0.93827000000E+00  0.93827000000E+00 0. -1.
     999902    2    1    2    0    0  0.22785558149E-02  0.79675248671E-02  0.22041909451E-01  0.10203817720E+01  0.10201100145E+01 0.  0.
     999903    2    3    3    0    0 -0.66830595136E-01  0.35502541155E-01 -0.10252638764E+00  0.12850088730E+00  0.16554727410E-01 0.  0.
         14    1    1    2    0    0 -0.22785558149E-02 -0.79675248671E-02 -0.22041909451E-01  0.23548227988E-01  0.00000000000E+00 0.  1.
     999901    1    3    3    0    0  0.69109150951E-01 -0.27535016288E-01  0.12456829710E+00  0.89188088471E+00  0.88000000000E+00 0.  1.
        -11    1    4    4    0    0 -0.63838206865E-01  0.30424604218E-01 -0.98825654807E-01  0.12152260846E+00  0.51100000000E-03 0.  1.
         11    1    4    4    0    0 -0.29923882713E-02  0.50779369372E-02 -0.37007328381E-02  0.69782788454E-02  0.51100000000E-03 0. -1.
</event>
<event>
 8    1  0.1119901E+005  0.1043930E+01  0.7957747E-01            NaN
         13   -1    0    0    0    0  0.00000000000E+00  0.00000000000E+00  0.74505805969E-08  0.10566000000E+00  0.10566000000E+00 0. -1.
     999900   -1    0    0    0    0 -0.00000000000E+00 -0.00000000000E+00 -0.74505805969E-08  0.93827000000E+00  0.93827000000E+00 0. -1.
     999902    2    1    2    0    0 -0.18511138777E-01 -0.13410637024E-01 -0.54490935335E-02  0.10204310625E+01  0.10201604546E+01 0.  0.
     999903    2    3    3    0    0  0.89496029380E-01  0.61649978485E-01  0.64528920843E-01  0.12790847628E+00  0.19655471458E-01 0.  0.
         14    1    1    2    0    0  0.18511138777E-01  0.13410637024E-01  0.54490935335E-02  0.23498937520E-01  0.00000000000E+00 0.  1.
     999901    1    3    3    0    0 -0.10800716816E+00 -0.75060615509E-01 -0.69978014376E-01  0.89252258620E+00  0.88000000000E+00 0.  1.
        -11    1    4    4    0    0  0.37338583273E-01  0.37052293978E-01  0.27305827817E-01  0.59269820682E-01  0.51100000000E-03 0. -1.
         11    1    4    4    0    0  0.52157446107E-01  0.24597684507E-01  0.37223093026E-01  0.68638655603E-01  0.51100000000E-03 0.  1.
</event>
<event>
 8    1  0.1119901E+005  0.1043930E+01  0.7957747E-01            NaN
         13   -1    0    0    0    0  0.00000000000E+00  0.00000000000E+00  0.74505805969E-08  0.10566000000E+00  0.10566000000E+00 0. -1.
     999900   -1    0    0    0    0 -0.00000000000E+00 -0.00000000000E+00 -0.74505805969E-08  0.93827000000E+00  0.93827000000E+00 0. -1.
     999902    2    1    2    0    0 -0.41725883362E-02 -0.81876864646E-02 -0.21919798243E-01  0.10201618226E+01  0.10198849043E+01 0.  0.
     999903    2    3    3    0    0  0.55311015573E-01  0.30057562921E-01  0.10926443271E+00  0.12763154259E+00  0.19706061909E-01 0.  0.
         14    1    1    2    0    0  0.41725883362E-02  0.81876864646E-02  0.21919798243E-01  0.23768177424E-01  0.00000000000E+00 0. -1.
     999901    1    3    3    0    0 -0.59483603909E-01 -0.38245249386E-01 -0.13118423096E+00  0.89253027998E+00  0.88000000000E+00 0. -1.
        -11    1    4    4    0    0  0.10035770441E-01  0.12886745392E-01  0.39114776787E-01  0.42391175724E-01  0.51100000000E-03 0. -1.
         11    1    4    4    0    0  0.45275245132E-01  0.17170817529E-01  0.70149655926E-01  0.85240366869E-01  0.51100000000E-03 0.  1.
</event>
<event>
 8    1  0.1119901E+005  0.1043930E+01  0.7957747E-01            NaN
         13   -1    0    0    0    0  0.00000000000E+00  0.00000000000E+00  0.74505805969E-08  0.10566000000E+00  0.10566000000E+00 0.  1.
     999900   -1    0    0    0    0 -0.00000000000E+00 -0.00000000000E+00 -0.74505805969E-08  0.93827000000E+00  0.93827000000E+00 0. -1.
     999902    2    1    2    0    0  0.11302166243E-01 -0.19067309253E-01  0.96199749257E-02  0.10197671119E+01  0.10194808077E+01 0.  0.
     999903    2    3    3    0    0 -0.12435659584E+00  0.78056701786E-02  0.24683075418E-01  0.12883930688E+00  0.21559716361E-01 0.  0.
         14    1    1    2    0    0 -0.11302166243E-01  0.19067309253E-01 -0.96199749257E-02  0.24162888104E-01  0.00000000000E+00 0. -1.
     999901    1    3    3    0    0  0.13565876208E+00 -0.26872979432E-01 -0.15063100492E-01  0.89092780502E+00  0.88000000000E+00 0.  1.
        -11    1    4    4    0    0 -0.73251791815E-01 -0.57116028582E-02  0.17027992959E-01  0.75423213115E-01  0.51100000000E-03 0.  1.
         11    1    4    4    0    0 -0.51104804024E-01  0.13517273037E-01  0.76550824592E-02  0.53416093766E-01  0.51100000000E-03 0. -1.
</event>
<event>
 8    1  0.1119901E+005  0.1043930E+01  0.7957747E-01            NaN
         13   -1    0    0    0    0  0.00000000000E+00  0.00000000000E+00  0.74505805969E-08  0.10566000000E+00  0.10566000000E+00 0. -1.
     999900   -1    0    0    0    0 -0.00000000000E+00 -0.00000000000E+00 -0.74505805969E-08  0.93827000000E+00  0.93827000000E+00 0. -1.
     999902    2    1    2    0    0  0.14993938914E-01 -0.14913536039E-01 -0.10489567443E-01  0.10203235859E+01  0.10200504679E+01 0.  0.
     999903    2    3    3    0    0 -0.45589900801E-01  0.47658004916E-01  0.10708824343E+00  0.12824167207E+00  0.25066114332E-01 0.  0.
         14    1    1    2    0    0 -0.14993938914E-01  0.14913536039E-01  0.10489567443E-01  0.23606414096E-01  0.00000000000E+00 0. -1.
     999901    1    3    3    0    0  0.60583839715E-01 -0.62571540955E-01 -0.11757781087E+00  0.89208191383E+00  0.88000000000E+00 0. -1.
        -11    1    4    4    0    0 -0.31228949492E-01  0.20265883413E-01  0.74646626112E-01  0.83416624409E-01  0.51100000000E-03 0.  1.
         11    1    4    4    0    0 -0.14360951309E-01  0.27392121503E-01  0.32441617319E-01  0.44825047665E-01  0.51100000000E-03 0. -1.
</event>
<event>
 8    1  0.1119901E+005  0.1043930E+01  0.7957747E-01            NaN
         13   -1    0    0    0    0  0.00000000000E+00  0.00000000000E+00  0.74505805969E-08  0.10566000000E+00  0.10566000000E+00 0. -1.
     999900   -1    0    0    0    0 -0.00000000000E+00 -0.00000000000E+00 -0.74505805969E-08  0.93827000000E+00  0.93827000000E+00 0. -1.
     999902    2    1    2    0    0  0.10105544197E-01  0.92372750071E-02  0.19232846059E-01  0.10203217040E+01  0.10200485420E+01 0.  0.
     999903    2    3    3    0    0  0.99525660060E-01 -0.68977230033E-01 -0.45053672903E-01  0.13001489033E+00  0.14519744940E-01 0.  0.
         14    1    1    2    0    0 -0.10105544197E-01 -0.92372750071E-02 -0.19232846059E-01  0.23608296012E-01  0.00000000000E+00 0.  1.
     999901    1    3    3    0    0 -0.89420115863E-01  0.78214505040E-01  0.64286518961E-01  0.89030681365E+00  0.88000000000E+00 0.  1.
        -11    1    4    4    0    0  0.58113117655E-01 -0.48776201394E-01 -0.28739854862E-01  0.81132562172E-01  0.51100000000E-03 0. -1.
         11    1    4    4    0    0  0.41412542405E-01 -0.20201028638E-01 -0.16313818040E-01  0.48882328162E-01  0.51100000000E-03 0.  1.
</event>
<event>
 8    1  0.1119901E+005  0.1043930E+01  0.7957747E-01            NaN
         13   -1    0    0    0    0  0.00000000000E+00  0.00000000000E+00  0.74505805969E-08  0.10566000000E+00  0.10566000000E+00 0.  1.
     999900   -1    0    0    0    0 -0.00000000000E+00 -0.00000000000E+00 -0.74505805969E-08  0.93827000000E+00  0.93827000000E+00 0.  1.
     999902    2    1    2    0    0 -0.82431073779E-02  0.25916337995E-01 -0.23048269045E-01  0.10082813240E+01  0.10076509317E+01 0.  0.
     999903    2    3    3    0    0 -0.59661374062E-01 -0.42346006370E-01  0.89045051192E-01  0.11706389921E+00  0.20549246874E-01 0.  0.
         14    1    1    2    0    0  0.82431073779E-02 -0.25916337995E-01  0.23048269045E-01  0.35648675996E-01  0.00000000000E+00 0.  1.
     999901    1    3    3    0    0  0.51418266684E-01  0.68262344364E-01 -0.11209332024E+00  0.89121742479E+00  0.88000000000E+00 0.  1.
        -11    1    4    4    0    0 -0.25126369683E-01 -0.22112318390E-01  0.26005207231E-01  0.42388925465E-01  0.51100000000E-03 0. -1.
         11    1    4    4    0    0 -0.34535004379E-01 -0.20233687980E-01  0.63039843962E-01  0.74674973749E-01  0.51100000000E-03 0.  1.
</event>
<event>
 8    1  0.1119901E+005  0.1043930E+01  0.7957747E-01            NaN
         13   -1    0    0    0    0  0.00000000000E+00  0.00000000000E+00  0.74505805969E-08  0.10566000000E+00  0.10566000000E+00 0.  1.
     999900   -1    0    0    0    0 -0.00000000000E+00 -0.00000000000E+00 -0.74505805969E-08  0.93827000000E+00  0.93827000000E+00 0.  1.
     999902    2    1    2    0    0 -0.20418774218E-01  0.83728253497E-02  0.68013838950E-02  0.10208369411E+01  0.10205757057E+01 0.  0.
     999903    2    3    3    0    0  0.25007839053E-01  0.12735777080E+00 -0.67448371217E-02  0.13156505102E+00  0.20456686568E-01 0.  0.
         14    1    1    2    0    0  0.20418774218E-01 -0.83728253497E-02 -0.68013838950E-02  0.23093058866E-01  0.00000000000E+00 0. -1.
     999901    1    3    3    0    0 -0.45426613271E-01 -0.11898494545E+00  0.13546221017E-01  0.88927189011E+00  0.88000000000E+00 0. -1.
        -11    1    4    4    0    0  0.11669202698E-01  0.26735717243E-01  0.41859433076E-02  0.29474601108E-01  0.51100000000E-03 0.  1.
         11    1    4    4    0    0  0.13338636355E-01  0.10062205356E+00 -0.10930780429E-01  0.10209044992E+00  0.51100000000E-03 0. -1.
</event>
<event>
 8    1  0.1119901E+005  0.1043930E+01  0.7957747E-01            NaN
         13   -1    0    0    0    0  0.00000000000E+00  0.00000000000E+00  0.74505805969E-08  0.10566000000E+00  0.10566000000E+00 0.  1.
     999900   -1    0    0    0    0 -0.00000000000E+00 -0.00000000000E+00 -0.74505805969E-08  0.93827000000E+00  0.93827000000E+00 0.  1.
     999902    2    1    2    0    0  0.14760268311E-01 -0.17382818351E-01  0.57242538613E-02  0.10204184076E+01  0.10201475048E+01 0.  0.
     999903    2    3    3    0    0  0.12088006292E+00 -0.55241013171E-02 -0.49378666660E-01  0.13225267317E+00  0.20248741511E-01 0.  0.
         14    1    1    2    0    0 -0.14760268311E-01  0.17382818351E-01 -0.57242538613E-02  0.23511592390E-01  0.00000000000E+00 0. -1.
     999901    1    3    3    0    0 -0.10611979461E+00 -0.11858717034E-01  0.55102920521E-01  0.88816573444E+00  0.88000000000E+00 0. -1.
        -11    1    4    4    0    0  0.40915769473E-01 -0.11430578810E-01 -0.15984839302E-01  0.45393111063E-01  0.51100000000E-03 0. -1.
         11    1    4    4    0    0  0.79964293450E-01  0.59064774932E-02 -0.33393827358E-01  0.86859562110E-01  0.51100000000E-03 0.  1.
</event>
<event>
 8    1  0.1119901E+005  0.1043930E+01  0.7957747E-01            NaN
         13   -1    0    0    0    0  0.00000000000E+00  0.00000000000E+00  0.74505805969E-08  0.10566000000E+00  0.10566000000E+00 0.  1.
     999900   -1    0    0    0    0 -0.00000000000E+00 -0.00000000000E+00 -0.74505805969E-08  0.93827000000E+00  0.93827000000E+00 0.  1.
     999902    2    1    2    0    0 -0.17734655129E-01 -0.82511213514E-02  0.20658336591E-01  0.10154806438E+01  0.10150820519E+01 0.  0.
     999903    2    3    3    0    0  0.94758916400E-01 -0.79070184021E-01  0.12407066458E-01  0.12545916839E+00  0.18834048872E-01 0.  0.
         14    1    1    2    0    0  0.17734655129E-01  0.82511213514E-02 -0.20658336591E-01  0.28449356176E-01  0.00000000000E+00 0. -1.
     999901    1    3    3    0    0 -0.11249357153E+00  0.70819062670E-01  0.82512701336E-02  0.89002147543E+00  0.88000000000E+00 0. -1.
        -11    1    4    4    0    0  0.38389596310E-01 -0.40314044404E-01 -0.13197569416E-02  0.55686498907E-01  0.51100000000E-03 0. -1.
         11    1    4    4    0    0  0.56369320090E-01 -0.38756139617E-01  0.13726823399E-01  0.69772669485E-01  0.51100000000E-03 0.  1.
</event>
<event>
 8    1  0.1119901E+005  0.1043930E+01  0.7957747E-01            NaN
         13   -1    0    0    0    0  0.00000000000E+00  0.00000000000E+00  0.74505805969E-08  0.10566000000E+00  0.10566000000E+00 0. -1.
     999900   -1    0    0    0    0 -0.00000000000E+00 -0.00000000000E+00 -0.74505805969E-08  0.93827000000E+00  0.93827000000E+00 0.  1.
     999902    2    1    2    0    0  0.16243308551E-01  0.17649134260E-01 -0.62837517188E-03  0.10199355867E+01  0.10196533083E+01 0.  0.
     999903    2    3    3    0    0  0.90471019947E-01 -0.44062984372E-01  0.81241983378E-01  0.13087940497E+00  0.20065062641E-01 0.  0.
         14    1    1    2    0    0 -0.16243308551E-01 -0.17649134260E-01  0.62837517188E-03  0.23994413270E-01  0.00000000000E+00 0. -1.
     999901    1    3    3    0    0 -0.74227711396E-01  0.61712118632E-01 -0.81870358550E-01  0.88905618176E+00  0.88000000000E+00 0. -1.
        -11    1    4    4    0    0  0.29683905997E-01 -0.57719211279E-02  0.30272724179E-01  0.42791918618E-01  0.51100000000E-03 0. -1.
         11    1    4    4    0    0  0.60787113949E-01 -0.38291063244E-01  0.50969259200E-01  0.88087486347E-01  0.51100000000E-03 0.  1.
</event>
<event>
 8    1  0.1119901E+005  0.1043930E+01  0.7957747E-01            NaN
         13   -1    0    0    0    0  0.00000000000E+00  0.00000000000E+00  0.74505805969E-08  0.10566000000E+00  0.10566000000E+00 0.  1.
     999900   -1    0    0    0    0 -0.00000000000E+00 -0.00000000000E+00 -0.74505805969E-08  0.93827000000E+00  0.93827000000E+00 0.  1.
     999902    2    1    2    0    0  0.15687625841E-01 -0.15970393677E-01 -0.78925931017E-02  0.10201929382E+01  0.10199167530E+01 0.  0.
     999903    2    3    3    0    0  0.43132000415E-01 -0.70616510923E-01 -0.10238945704E+00  0.13302381724E+00  0.19096438533E-01 0.  0.
         14    1    1    2    0    0 -0.15687625841E-01  0.15970393677E-01  0.78925931017E-02  0.23737061835E-01  0.00000000000E+00 0.  1.
     999901    1    3    3    0    0 -0.27444374574E-01  0.54646117246E-01  0.94496863943E-01  0.88716912092E+00  0.88000000000E+00 0. -1.
        -11    1    4    4    0    0  0.22580160096E-01 -0.39008445805E-01 -0.70310598147E-01  0.83518643469E-01  0.51100000000E-03 0.  1.
         11    1    4    4    0    0  0.20551840320E-01 -0.31608065118E-01 -0.32078858897E-01  0.49505173772E-01  0.51100000000E-03 0. -1.
</event>
<event>
 8    1  0.1119901E+005  0.1043930E+01  0.7957747E-01            NaN
         13   -1    0    0    0    0  0.00000000000E+00  0.00000000000E+00  0.74505805969E-08  0.10566000000E+00  0.10566000000E+00 0. -1.
     999900   -1    0    0    0    0 -0.00000000000E+00 -0.00000000000E+00 -0.74505805969E-08  0.93827000000E+00  0.93827000000E+00 0.  1.
     999902    2    1    2    0    0 -0.60088848518E-02 -0.84557561834E-03  0.23284205718E-01  0.10198680813E+01  0.10195841934E+01 0.  0.
     999903    2    3    3    0    0 -0.14431562627E-01  0.70192835386E-01  0.11041361415E+00  0.13267648354E+00  0.16630663085E-01 0.  0.
         14    1    1    2    0    0  0.60088848518E-02  0.84557561834E-03 -0.23284205718E-01  0.24061918694E-01  0.00000000000E+00 0.  1.
     999901    1    3    3    0    0  0.84226777750E-02 -0.71038411004E-01 -0.87129408432E-01  0.88719159777E+00  0.88000000000E+00 0.  1.
        -11    1    4    4    0    0 -0.83282199561E-02  0.12031347365E-01  0.16679701958E-01  0.22194281819E-01  0.51100000000E-03 0.  1.
         11    1    4    4    0    0 -0.61033426707E-02  0.58161488021E-01  0.93733912193E-01  0.11048220172E+00  0.51100000000E-03 0. -1.
</event>
<event>
 8    1  0.1119901E+005  0.1043930E+01  0.7957747E-01            NaN
         13   -1    0    0    0    0  0.00000000000E+00  0.00000000000E+00  0.74505805969E-08  0.10566000000E+00  0.10566000000E+00 0. -1.
     999900   -1    0    0    0    0 -0.00000000000E+00 -0.00000000000E+00 -0.74505805969E-08  0.93827000000E+00  0.93827000000E+00 0. -1.
     999902    2    1    2    0    0  0.16582618704E-01  0.54972454620E-02 -0.15888813408E-01  0.10203152304E+01  0.10200419168E+01 0.  0.
     999903    2    3    3    0    0 -0.61050630370E-01 -0.29029254154E-01 -0.11067167159E+00  0.13115675706E+00  0.19595891557E-01 0.  0.
         14    1    1    2    0    0 -0.16582618704E-01 -0.54972454620E-02  0.15888813408E-01  0.23614769579E-01  0.00000000000E+00 0. -1.
     999901    1    3    3    0    0  0.77633249074E-01  0.34526499616E-01  0.94782858181E-01  0.88915847336E+00  0.88000000000E+00 0.  1.
        -11    1    4    4    0    0 -0.49905491542E-01 -0.31380172591E-01 -0.91335977010E-01  0.10870968280E+00  0.51100000000E-03 0. -1.
         11    1    4    4    0    0 -0.11145138828E-01  0.23509184373E-02 -0.19335694580E-01  0.22447074261E-01  0.51100000000E-03 0.  1.
</event>
<event>
 8    1  0.1119901E+005  0.1043930E+01  0.7957747E-01            NaN
         13   -1    0    0    0    0  0.00000000000E+00  0.00000000000E+00  0.74505805969E-08  0.10566000000E+00  0.10566000000E+00 0.  1.
     999900   -1    0    0    0    0 -0.00000000000E+00 -0.00000000000E+00 -0.74505805969E-08  0.93827000000E+00  0.93827000000E+00 0.  1.
     999902    2    1    2    0    0  0.43672230729E-02  0.21535624448E-01  0.11030026136E-01  0.10193430678E+01  0.10190465017E+01 0.  0.
     999903    2    3    3    0    0  0.31253127542E-01  0.11922161290E+00 -0.42276019093E-01  0.13192719087E+00  0.20663275065E-01 0.  0.
         14    1    1    2    0    0 -0.43672230729E-02 -0.21535624448E-01 -0.11030026136E-01  0.24586932185E-01  0.00000000000E+00 0.  1.
     999901    1    3    3    0    0 -0.26885904470E-01 -0.97685988452E-01  0.53306045229E-01  0.88741587695E+00  0.88000000000E+00 0. -1.
        -11    1    4    4    0    0  0.22359895628E-01  0.94540705945E-01 -0.24369136591E-01  0.10016000176E+00  0.51100000000E-03 0. -1.
         11    1    4    4    0    0  0.88932319146E-02  0.24680906955E-01 -0.17906882502E-01  0.31767189110E-01  0.51100000000E-03 0.  1.
</event>
<event>
 8    1  0.1119901E+005  0.1043930E+01  0.7957747E-01            NaN
         13   -1    0    0    0    0  0.00000000000E+00  0.00000000000E+00  0.74505805969E-08  0.10566000000E+00  0.10566000000E+00 0. -1.
     999900   -1    0    0    0    0 -0.00000000000E+00 -0.00000000000E+00 -0.74505805969E-08  0.93827000000E+00  0.93827000000E+00 0. -1.
     999902    2    1    2    0    0 -0.11523717778E-01  0.10770476212E-01  0.17357028266E-01  0.10204765214E+01  0.10202069717E+01 0.  0.
     999903    2    3    3    0    0 -0.11138445415E+00  0.31104007027E-01 -0.58816533128E-01  0.13132634812E+00  0.20329025154E-01 0.  0.
         14    1    1    2    0    0  0.11523717778E-01 -0.10770476212E-01 -0.17357028266E-01  0.23453478622E-01  0.00000000000E+00 0.  1.
     999901    1    3    3    0    0  0.99860736368E-01 -0.20333530815E-01  0.76173561394E-01  0.88915017325E+00  0.88000000000E+00 0.  1.
        -11    1    4    4    0    0 -0.58724861590E-01  0.26763779758E-01 -0.30626130697E-01  0.71436197255E-01  0.51100000000E-03 0. -1.
         11    1    4    4    0    0 -0.52659592556E-01  0.43402272691E-02 -0.28190402431E-01  0.59890150869E-01  0.51100000000E-03 0.  1.
</event>
<event>
 8    1  0.1119901E+005  0.1043930E+01  0.7957747E-01            NaN
         13   -1    0    0    0    0  0.00000000000E+00  0.00000000000E+00  0.74505805969E-08  0.10566000000E+00  0.10566000000E+00 0. -1.
     999900   -1    0    0    0    0 -0.00000000000E+00 -0.00000000000E+00 -0.74505805969E-08  0.93827000000E+00  0.93827000000E+00 0.  1.
     999902    2    1    2    0    0 -0.10382354793E-01 -0.31699597747E-01 -0.98352711174E-02  0.10091537100E+01  0.10085543218E+01 0.  0.
     999903    2    3    3    0    0 -0.70751096190E-01 -0.93569538193E-01  0.34081105266E-01  0.12382838980E+00  0.20272451617E-01 0.  0.
         14    1    1    2    0    0  0.10382354793E-01  0.31699597747E-01  0.98352711174E-02  0.34776290002E-01  0.00000000000E+00 0. -1.
     999901    1    3    3    0    0  0.60368741397E-01  0.61869940446E-01 -0.43916376383E-01  0.88532532020E+00  0.88000000000E+00 0.  1.
        -11    1    4    4    0    0 -0.51533331416E-01 -0.52209825466E-01  0.23159388431E-01  0.76929633533E-01  0.51100000000E-03 0. -1.
         11    1    4    4    0    0 -0.19217764774E-01 -0.41359712727E-01  0.10921716835E-01  0.46898756267E-01  0.51100000000E-03 0.  1.
</event>
<event>
 8    1  0.1119901E+005  0.1043930E+01  0.7957747E-01            NaN
         13   -1    0    0    0    0  0.00000000000E+00  0.00000000000E+00  0.74505805969E-08  0.10566000000E+00  0.10566000000E+00 0.  1.
     999900   -1    0    0    0    0 -0.00000000000E+00 -0.00000000000E+00 -0.74505805969E-08  0.93827000000E+00  0.93827000000E+00 0.  1.
     999902    2    1    2    0    0 -0.69342475878E-02  0.11690287146E-01 -0.18988594706E-01  0.10205780551E+01  0.10203108610E+01 0.  0.
     999903    2    3    3    0    0 -0.37061475092E-01  0.10978474528E+00 -0.62967551170E-01  0.13352432436E+00  0.20918639103E-01 0.  0.
         14    1    1    2    0    0  0.69342475878E-02 -0.11690287146E-01  0.18988594706E-01  0.23351944931E-01  0.00000000000E+00 0.  1.
     999901    1    3    3    0    0  0.30127227504E-01 -0.98094458139E-01  0.43978956464E-01  0.88705373071E+00  0.88000000000E+00 0. -1.
        -11    1    4    4    0    0 -0.30786915085E-01  0.93519321982E-01 -0.44263131734E-01  0.10794991281E+00  0.51100000000E-03 0.  1.
         11    1    4    4    0    0 -0.62745600072E-02  0.16265423303E-01 -0.18704419436E-01  0.25574411546E-01  0.51100000000E-03 0. -1.
</event>
<event>
 8    1  0.1119901E+005  0.1043930E+01  0.7957747E-01            NaN
         13   -1    0    0    0    0  0.00000000000E+00  0.00000000000E+00  0.74505805969E-08  0.10566000000E+00  0.10566000000E+00 0.  1.
     999900   -1    0    0    0    0 -0.00000000000E+00 -0.00000000000E+00 -0.74505805969E-08  0.93827000000E+00  0.93827000000E+00 0.  1.
     999902    2    1    2    0    0 -0.13661384129E-01  0.19530498083E-01  0.11824179798E-02  0.10200663900E+01  0.10197872170E+01 0.  0.
     999903    2    3    3    0    0 -0.44655928234E-01  0.12190265915E+00 -0.21949126376E-01  0.13328806960E+00  0.20725228918E-01 0.  0.
         14    1    1    2    0    0  0.13661384129E-01 -0.19530498083E-01 -0.11824179798E-02  0.23863610037E-01  0.00000000000E+00 0. -1.
     999901    1    3    3    0    0  0.30994544106E-01 -0.10237216107E+00  0.23131544356E-01  0.88677832037E+00  0.88000000000E+00 0.  1.
        -11    1    4    4    0    0 -0.31194626985E-01  0.59521283582E-01 -0.57679813724E-02  0.67449378663E-01  0.51100000000E-03 0. -1.
         11    1    4    4    0    0 -0.13461301249E-01  0.62381375570E-01 -0.16181145004E-01  0.65838690934E-01  0.51100000000E-03 0.  1.
</event>
<event>
 8    1  0.1119901E+005  0.1043930E+01  0.7957747E-01            NaN
         13   -1    0    0    0    0  0.00000000000E+00  0.00000000000E+00  0.74505805969E-08  0.10566000000E+00  0.10566000000E+00 0.  1.
     999900   -1    0    0    0    0 -0.00000000000E+00 -0.00000000000E+00 -0.74505805969E-08  0.93827000000E+00  0.93827000000E+00 0.  1.
     999902    2    1    2    0    0  0.10424885752E-01 -0.68996470614E-02  0.19589112983E-01  0.10206917402E+01  0.10204271712E+01 0.  0.
     999903    2    3    3    0    0 -0.43328117823E-01  0.11400271318E+00  0.42082209363E-01  0.13051608026E+00  0.19738045883E-01 0.  0.
         14    1    1    2    0    0 -0.10424885752E-01  0.68996470614E-02 -0.19589112983E-01  0.23238259831E-01  0.00000000000E+00 0. -1.
     999901    1    3    3    0    0  0.53753003576E-01 -0.12090236024E+00 -0.22493096380E-01  0.89017565991E+00  0.88000000000E+00 0.  1.
        -11    1    4    4    0    0 -0.59360296766E-02  0.41651022793E-01  0.13062573305E-01  0.44056056228E-01  0.51100000000E-03 0.  1.
         11    1    4    4    0    0 -0.37392088146E-01  0.72351690389E-01  0.29019636058E-01  0.86460024035E-01  0.51100000000E-03 0. -1.
</event>
<event>
 8    1  0.1119901E+005  0.1043930E+01  0.7957747E-01            NaN
         13   -1    0    0    0    0  0.00000000000E+00  0.00000000000E+00  0.74505805969E-08  0.10566000000E+00  0.10566000000E+00 0.  1.
     999900   -1    0    0    0    0 -0.00000000000E+00 -0.00000000000E+00 -0.74505805969E-08  0.93827000000E+00  0.93827000000E+00 0. -1.
     999902    2    1    2    0    0  0.70786951752E-02 -0.13762300379E-01  0.19529060451E-01  0.10190122746E+01  0.10187075747E+01 0.  0.
     999903    2    3    3    0    0 -0.12129542291E+00 -0.12558386249E-01  0.38829481050E-01  0.12948775563E+00  0.19724542509E-01 0.  0.
         14    1    1    2    0    0 -0.70786951752E-02  0.13762300379E-01 -0.19529060451E-01  0.24917725402E-01  0.00000000000E+00 0. -1.
     999901    1    3    3    0    0  0.12837411808E+00 -0.12039141305E-02 -0.19300420600E-01  0.88952451896E+00  0.88000000000E+00 0. -1.
        -11    1    4    4    0    0 -0.80333805629E-01 -0.13589332617E-01  0.17675385194E-01  0.83371881654E-01  0.51100000000E-03 0.  1.
         11    1    4    4    0    0 -0.40961617278E-01  0.10309463683E-02  0.21154095856E-01  0.46115873980E-01  0.51100000000E-03 0. -1.
</event>
<event>
 8    1  0.1119901E+005  0.1043930E+01  0.7957747E-01            NaN
         13   -1    0    0    0    0  0.00000000000E+00  0.00000000000E+00  0.74505805969E-08  0.10566000000E+00  0.10566000000E+00 0.  1.
     999900   -1    0    0    0    0 -0.00000000000E+00 -0.00000000000E+00 -0.74505805969E-08  0.93827000000E+00  0.93827000000E+00 0.  1.
     999902    2    1    2    0    0 -0.19746988725E-01 -0.51574339814E-02  0.12044586929E-01  0.10202315873E+01  0.10199563113E+01 0.  0.
     999903    2    3    3    0    0  0.82822731793E-01 -0.71779518043E-01  0.67179187014E-01  0.13006369654E+00  0.19789337499E-01 0.  0.
         14    1    1    2    0    0  0.19746988725E-01  0.51574339814E-02 -0.12044586929E-01  0.23698412674E-01  0.00000000000E+00 0. -1.
     999901    1    3    3    0    0 -0.10256972052E+00  0.66622084062E-01 -0.55134600085E-01  0.89016789078E+00  0.88000000000E+00 0. -1.
        -11    1    4    4    0    0  0.46816935493E-01 -0.31502694448E-01  0.26001695553E-01  0.62133682484E-01  0.51100000000E-03 0. -1.
         11    1    4    4    0    0  0.36005796300E-01 -0.40276823596E-01  0.41177491461E-01  0.67930014060E-01  0.51100000000E-03 0.  1.
</event>
<event>
 8    1  0.1119901E+005  0.1043930E+01  0.7957747E-01            NaN
         13   -1    0    0    0    0  0.00000000000E+00  0.00000000000E+00  0.74505805969E-08  0.10566000000E+00  0.10566000000E+00 0.  1.
     999900   -1    0    0    0    0 -0.00000000000E+00 -0.00000000000E+00 -0.74505805969E-08  0.93827000000E+00  0.93827000000E+00 0.  1.
     999902    2    1    2    0    0  0.13199055767E-01 -0.15807507256E-02  0.24308602883E-01  0.10162240075E+01  0.10158462538E+01 0.  0.
     999903    2    3    3    0    0 -0.11206285876E+00 -0.50442570045E-01  0.17923595263E-01  0.12598876166E+00  0.21198481367E-01 0.  0.
         14    1    1    2    0    0 -0.13199055767E-01  0.15807507256E-02 -0.24308602883E-01  0.27705992495E-01  0.00000000000E+00 0. -1.
     999901    1    3    3    0    0  0.12526191453E+00  0.48861819320E-01  0.63850076205E-02  0.89023524584E+00  0.88000000000E+00 0. -1.
        -11    1    4    4    0    0 -0.83524490984E-01 -0.41057568779E-01  0.22084127760E-01  0.95655811993E-01  0.51100000000E-03 0.  1.
         11    1    4    4    0    0 -0.28538367774E-01 -0.93850012665E-02 -0.41605324968E-02  0.30332949669E-01  0.51100000000E-03 0. -1.
</event>
<event>
 8    1  0.1119901E+005  0.1043930E+01  0.7957747E-01            NaN
         13   -1    0    0    0    0  0.00000000000E+00  0.00000000000E+00  0.74505805969E-08  0.10566000000E+00  0.10566000000E+00 0. -1.
     999900   -1    0    0    0    0 -0.00000000000E+00 -0.00000000000E+00 -0.74505805969E-08  0.93827000000E+00  0.93827000000E+00 0. -1.
     999902    2    1    2    0    0  0.79419398920E-02 -0.10895486520E-01  0.18730495870E-01  0.10208514924E+01  0.10205905899E+01 0.  0.
     999903    2    3    3    0    0  0.10566447598E+00  0.37589248355E-01  0.68198478728E-01  0.13273689122E+00  0.19751372426E-01 0.  0.
         14    1    1    2    0    0 -0.79419398920E-02  0.10895486520E-01 -0.18730495870E-01  0.23078507562E-01  0.00000000000E+00 0.  1.
     999901    1    3    3    0    0 -0.97722536089E-01 -0.48484734875E-01 -0.49467982858E-01  0.88811460122E+00  0.88000000000E+00 0. -1.
        -11    1    4    4    0    0  0.66711371471E-01  0.31213983472E-01  0.51511996415E-01  0.89880291185E-01  0.51100000000E-03 0.  1.
         11    1    4    4    0    0  0.38953104510E-01  0.63752648822E-02  0.16686482313E-01  0.42856600031E-01  0.51100000000E-03 0. -1.
</event>
<event>
 8    1  0.1119901E+005  0.1043930E+01  0.7957747E-01            NaN
         13   -1    0    0    0    0  0.00000000000E+00  0.00000000000E+00  0.74505805969E-08  0.10566000000E+00  0.10566000000E+00 0.  1.
     999900   -1    0    0    0    0 -0.00000000000E+00 -0.00000000000E+00 -0.74505805969E-08  0.93827000000E+00  0.93827000000E+00 0.  1.
     999902    2    1    2    0    0  0.13864569464E-01 -0.62937373981E-02  0.18299105913E-01  0.10201246499E+01  0.10198468545E+01 0.  0.
     999903    2    3    3    0    0 -0.17117775425E-01  0.33501179131E-01 -0.12040175371E+00  0.12783463563E+00  0.20730762929E-01 0.  0.
         14    1    1    2    0    0 -0.13864569464E-01  0.62937373981E-02 -0.18299105913E-01  0.23805350114E-01  0.00000000000E+00 0. -1.
     999901    1    3    3    0    0  0.30982344889E-01 -0.39794916530E-01  0.13870085962E+00  0.89229001425E+00  0.88000000000E+00 0. -1.
        -11    1    4    4    0    0 -0.17965626337E-01  0.12488189375E-01 -0.58890970456E-01  0.62826157974E-01  0.51100000000E-03 0.  1.
         11    1    4    4    0    0  0.84785091167E-03  0.21012989756E-01 -0.61510783256E-01  0.65008477658E-01  0.51100000000E-03 0. -1.
</event>
<event>
 8    1  0.1119901E+005  0.1043930E+01  0.7957747E-01            NaN
         13   -1    0    0    0    0  0.00000000000E+00  0.00000000000E+00  0.74505805969E-08  0.10566000000E+00  0.10566000000E+00 0. -1.
     999900   -1    0    0    0    0 -0.00000000000E+00 -0.00000000000E+00 -0.74505805969E-08  0.93827000000E+00  0.93827000000E+00 0. -1.
     999902    2    1    2    0    0 -0.21649489672E-01 -0.65635134403E-02 -0.54909856532E-02  0.10206505877E+01  0.10203850701E+01 0.  0.
     999903    2    3    3    0    0 -0.11326734858E+00 -0.66369085137E-02 -0.67911081167E-01  0.13369506136E+00  0.19720894441E-01 0.  0.
         14    1    1    2    0    0  0.21649489672E-01  0.65635134403E-02  0.54909856532E-02  0.23279412260E-01  0.00000000000E+00 0. -1.
     999901    1    3    3    0    0  0.91617858905E-01  0.73395073455E-04  0.62420095514E-01  0.88695552638E+00  0.88000000000E+00 0.  1.
        -11    1    4    4    0    0 -0.78929447148E-01 -0.12712063690E-01 -0.42485438868E-01  0.90535782026E-01  0.51100000000E-03 0. -1.
         11    1    4    4    0    0 -0.34337901430E-01  0.60751551765E-02 -0.25425642299E-01  0.43159279330E-01  0.51100000000E-03 0.  1.
</event>
<event>
 8    1  0.1119901E+005  0.1043930E+01  0.7957747E-01            NaN
         13   -1    0    0    0    0  0.00000000000E+00  0.00000000000E+00  0.74505805969E-08  0.10566000000E+00  0.10566000000E+00 0. -1.
     999900   -1    0    0    0    0 -0.00000000000E+00 -0.00000000000E+00 -0.74505805969E-08  0.93827000000E+00  0.93827000000E+00 0. -1.
     999902    2    1    2    0    0 -0.20507808310E-01 -0.14496283391E-01  0.17174999498E-02  0.10187573514E+01  0.10184463062E+01 0.  0.
     999903    2    3    3    0    0  0.82982657169E-01  0.61074935057E-01  0.70622260985E-01  0.12681051908E+00  0.21843418242E-01 0.  0.
         14    1    1    2    0    0  0.20507808310E-01  0.14496283391E-01 -0.17174999498E-02  0.25172648647E-01  0.00000000000E+00 0.  1.
     999901    1    3    3    0    0 -0.10349046548E+00 -0.75571218448E-01 -0.68904761035E-01  0.89194683227E+00  0.88000000000E+00 0. -1.
        -11    1    4    4    0    0  0.32792678210E-01  0.37644537321E-01  0.34150295944E-01  0.60489459977E-01  0.51100000000E-03 0. -1.
         11    1    4    4    0    0  0.50189978959E-01  0.23430397736E-01  0.36471965041E-01  0.66321059106E-01  0.51100000000E-03 0.  1.
</event>
<event>
 8    1  0.1119901E+005  0.1043930E+01  0.7957747E-01            NaN
         13   -1    0    0    0    0  0.00000000000E+00  0.00000000000E+00  0.74505805969E-08  0.10566000000E+00  0.10566000000E+00 0. -1.
     999900   -1    0    0    0    0 -0.00000000000E+00 -0.00000000000E+00 -0.74505805969E-08  0.93827000000E+00  0.93827000000E+00 0.  1.
     999902    2    1    2    0    0 -0.11172903889E-01 -0.16922600709E-01  0.11521037900E-01  0.10206074249E+01  0.10203409103E+01 0.  0.
     999903    2    3    3    0    0 -0.47440428829E-01  0.81445752657E-01 -0.85904407171E-01  0.12904509747E+00  0.19724733096E-01 0.  0.
         14    1    1    2    0    0  0.11172903889E-01  0.16922600709E-01 -0.11521037900E-01  0.23322575123E-01  0.00000000000E+00 0. -1.
     999901    1    3    3    0    0  0.36267524940E-01 -0.98368353366E-01  0.97425445070E-01  0.89156232741E+00  0.88000000000E+00 0. -1.
        -11    1    4    4    0    0 -0.88465922630E-02  0.62825474371E-02 -0.16226739690E-01  0.19526924974E-01  0.51100000000E-03 0. -1.
         11    1    4    4    0    0 -0.38593836566E-01  0.75163205220E-01 -0.69677667481E-01  0.10951817249E+00  0.51100000000E-03 0.  1.
</event>
<event>
 8    1  0.1119901E+005  0.1043930E+01  0.7957747E-01            NaN
         13   -1    0    0    0    0  0.00000000000E+00  0.00000000000E+00  0.74505805969E-08  0.10566000000E+00  0.10566000000E+00 0. -1.
     999900   -1    0    0    0    0 -0.00000000000E+00 -0.00000000000E+00 -0.74505805969E-08  0.93827000000E+00  0.93827000000E+00 0. -1.
     999902    2    1    2    0    0 -0.19878384206E-02  0.10233145827E-01  0.21663672010E-01  0.10198887134E+01  0.10196053179E+01 0.  0.
     999903    2    3    3    0    0  0.44400399940E-01 -0.35298793685E-01  0.11778756933E+00  0.13227121145E+00  0.20108742894E-01 0.  0.
         14    1    1    2    0    0  0.19878384206E-02 -0.10233145827E-01 -0.21663672010E-01  0.24041286573E-01  0.00000000000E+00 0.  1.
     999901    1    3    3    0    0 -0.46388238361E-01  0.45531939513E-01 -0.96123897318E-01  0.88761750197E+00  0.88000000000E+00 0. -1.
        -11    1    4    4    0    0  0.90866393415E-02 -0.41071462231E-02  0.40839282108E-01  0.42042166318E-01  0.51100000000E-03 0.  1.
         11    1    4    4    0    0  0.35313760599E-01 -0.31191647462E-01  0.76948287220E-01  0.90229045136E-01  0.51100000000E-03 0. -1.
</event>
<event>
 8    1  0.1119901E+005  0.1043930E+01  0.7957747E-01            NaN
         13   -1    0    0    0    0  0.00000000000E+00  0.00000000000E+00  0.74505805969E-08  0.10566000000E+00  0.10566000000E+00 0. -1.
     999900   -1    0    0    0    0 -0.00000000000E+00 -0.00000000000E+00 -0.74505805969E-08  0.93827000000E+00  0.93827000000E+00 0.  1.
     999902    2    1    2    0    0  0.33709975432E-03  0.23558003963E-01  0.26437805974E-02  0.10202217153E+01  0.10199462072E+01 0.  0.
     999903    2    3    3    0    0 -0.10867850149E+00  0.18260446903E-01  0.67999913677E-01  0.13107387071E+00  0.20295583663E-01 0.  0.
         14    1    1    2    0    0 -0.33709975432E-03 -0.23558003963E-01 -0.26437805974E-02  0.23708284687E-01  0.00000000000E+00 0. -1.
     999901    1    3    3    0    0  0.10901560124E+00  0.52975570600E-02 -0.65356133080E-01  0.88914784460E+00  0.88000000000E+00 0.  1.
        -11    1    4    4    0    0 -0.32876062626E-01  0.81299734657E-02  0.10729321755E-01  0.35529022343E-01  0.51100000000E-03 0. -1.
         11    1    4    4    0    0 -0.75802438864E-01  0.10130473437E-01  0.57270591922E-01  0.95544848370E-01  0.51100000000E-03 0.  1.
</event>
<event>
 8    1  0.1119901E+005  0.1043930E+01  0.7957747E-01            NaN
         13   -1    0    0    0    0  0.00000000000E+00  0.00000000000E+00  0.74505805969E-08  0.10566000000E+00  0.10566000000E+00 0.  1.
     999900   -1    0    0    0    0 -0.00000000000E+00 -0.00000000000E+00 -0.74505805969E-08  0.93827000000E+00  0.93827000000E+00 0. -1.
     999902    2    1    2    0    0  0.34642215451E-02  0.17400827692E-01 -0.14563824910E-01  0.10209758145E+01  0.10207177471E+01 0.  0.
     999903    2    3    3    0    0  0.28442407629E-01  0.12662034385E+00  0.19772831610E-01  0.13320792905E+00  0.22620907649E-01 0.  0.
         14    1    1    2    0    0 -0.34642215451E-02 -0.17400827692E-01  0.14563824910E-01  0.22954185486E-01  0.00000000000E+00 0. -1.
     999901    1    3    3    0    0 -0.24978186084E-01 -0.10921951615E+00 -0.34336656520E-01  0.88776788547E+00  0.88000000000E+00 0.  1.
        -11    1    4    4    0    0 -0.65841477563E-03  0.45539628107E-01  0.83742805511E-02  0.46310699994E-01  0.51100000000E-03 0.  1.
         11    1    4    4    0    0  0.29100822405E-01  0.81080715740E-01  0.11398551059E-01  0.86897229051E-01  0.51100000000E-03 0. -1.
</event>
<event>
 8    1  0.1119901E+005  0.1043930E+01  0.7957747E-01            NaN
         13   -1    0    0    0    0  0.00000000000E+00  0.00000000000E+00  0.74505805969E-08  0.10566000000E+00  0.10566000000E+00 0. -1.
     999900   -1    0    0    0    0 -0.00000000000E+00 -0.00000000000E+00 -0.74505805969E-08  0.93827000000E+00  0.93827000000E+00 0. -1.
     999902    2    1    2    0    0  0.72304652759E-02  0.10192250214E-01  0.18820108782E-01  0.10213388936E+01  0.10210890155E+01 0.  0.
     999903    2    3    3    0    0 -0.61321983299E-01 -0.48173473119E-01 -0.10061426794E+00  0.12871883660E+00  0.19085042153E-01 0.  0.
         14    1    1    2    0    0 -0.72304652759E-02 -0.10192250214E-01 -0.18820108782E-01  0.22591106372E-01  0.00000000000E+00 0.  1.
     999901    1    3    3    0    0  0.68552448575E-01  0.58365723334E-01  0.11943437672E+00  0.89262005703E+00  0.88000000000E+00 0.  1.
        -11    1    4    4    0    0 -0.42402862032E-01 -0.23836033898E-01 -0.52485667626E-01  0.71562320027E-01  0.51100000000E-03 0. -1.
         11    1    4    4    0    0 -0.18919121267E-01 -0.24337439221E-01 -0.48128600316E-01  0.57156516573E-01  0.51100000000E-03 0.  1.
</event>
<event>
 8    1  0.1119901E+005  0.1043930E+01  0.7957747E-01            NaN
         13   -1    0    0    0    0  0.00000000000E+00  0.00000000000E+00  0.74505805969E-08  0.10566000000E+00  0.10566000000E+00 0. -1.
     999900   -1    0    0    0    0 -0.00000000000E+00 -0.00000000000E+00 -0.74505805969E-08  0.93827000000E+00  0.93827000000E+00 0.  1.
     999902    2    1    2    0    0  0.10387744408E-01  0.16100564639E-01  0.15643813223E-01  0.10191941493E+01  0.10188939355E+01 0.  0.
     999903    2    3    3    0    0 -0.26243054644E-01  0.12243089114E+00  0.34173852443E-01  0.13184342042E+00  0.23169253230E-01 0.  0.
         14    1    1    2    0    0 -0.10387744408E-01 -0.16100564639E-01 -0.15643813223E-01  0.24735850657E-01  0.00000000000E+00 0.  1.
     999901    1    3    3    0    0  0.36630799052E-01 -0.10633032650E+00 -0.18530039221E-01  0.88735072893E+00  0.88000000000E+00 0.  1.
        -11    1    4    4    0    0 -0.17641752248E-01  0.97852539100E-01  0.17613451153E-01  0.10097943163E+00  0.51100000000E-03 0.  1.
         11    1    4    4    0    0 -0.86013023960E-02  0.24578352036E-01  0.16560401290E-01  0.30863988783E-01  0.51100000000E-03 0. -1.
</event>
<event>
 8    1  0.1119901E+005  0.1043930E+01  0.7957747E-01            NaN
         13   -1    0    0    0    0  0.00000000000E+00  0.00000000000E+00  0.74505805969E-08  0.10566000000E+00  0.10566000000E+00 0. -1.
     999900   -1    0    0    0    0 -0.00000000000E+00 -0.00000000000E+00 -0.74505805969E-08  0.93827000000E+00  0.93827000000E+00 0. -1.
     999902    2    1    2    0    0 -0.15954024230E-01  0.14436374045E-01  0.13765218875E-01  0.10183874662E+01  0.10180670951E+01 0.  0.
     999903    2    3    3    0    0  0.22386365150E-01 -0.12263447135E+00  0.13759050560E-01  0.12695132029E+00  0.19671383834E-01 0.  0.
         14    1    1    2    0    0  0.15954024230E-01 -0.14436374045E-01 -0.13765218875E-01  0.25542533848E-01  0.00000000000E+00 0. -1.
     999901    1    3    3    0    0 -0.38340389380E-01  0.13707084540E+00  0.61683148785E-05  0.89143614586E+00  0.88000000000E+00 0.  1.
        -11    1    4    4    0    0  0.17717677850E-01 -0.45892706677E-01  0.26554847336E-02  0.49268340287E-01  0.51100000000E-03 0.  1.
         11    1    4    4    0    0  0.46686873003E-02 -0.76741764675E-01  0.11103565827E-01  0.77682980000E-01  0.51100000000E-03 0. -1.
</event>
<event>
 8    1  0.1119901E+005  0.1043930E+01  0.7957747E-01            NaN
         13   -1    0    0    0    0  0.00000000000E+00  0.00000000000E+00  0.74505805969E-08  0.10566000000E+00  0.10566000000E+00 0.  1.
     999900   -1    0    0    0    0 -0.00000000000E+00 -0.00000000000E+00 -0.74505805969E-08  0.93827000000E+00  0.93827000000E+00 0.  1.
     999902    2    1    2    0    0 -0.12221749132E-01 -0.14294315280E-01 -0.14019036333E-01  0.10204729759E+01  0.10202033437E+01 0.  0.
     999903    2    3    3    0    0  0.64518208563E-01 -0.11082941764E+00  0.18801570866E-01  0.13126814044E+00  0.20786211232E-01 0.  0.
         14    1    1    2    0    0  0.12221749132E-01  0.14294315280E-01  0.14019036333E-01  0.23457024126E-01  0.00000000000E+00 0.  1.
     999901    1    3    3    0    0 -0.76739957694E-01  0.96535102363E-01 -0.32820607199E-01  0.88920483543E+00  0.88000000000E+00 0.  1.
        -11    1    4    4    0    0  0.54148137860E-01 -0.10188310028E+00  0.12100688362E-01  0.11601239045E+00  0.51100000000E-03 0.  1.
         11    1    4    4    0    0  0.10370070702E-01 -0.89463173585E-02  0.67008825037E-02  0.15255749997E-01  0.51100000000E-03 0. -1.
</event>
<event>
 8    1  0.1119901E+005  0.1043930E+01  0.7957747E-01            NaN
         13   -1    0    0    0    0  0.00000000000E+00  0.00000000000E+00  0.74505805969E-08  0.10566000000E+00  0.10566000000E+00 0. -1.
     999900   -1    0    0    0    0 -0.00000000000E+00 -0.00000000000E+00 -0.74505805969E-08  0.93827000000E+00  0.93827000000E+00 0.  1.
     999902    2    1    2    0    0  0.94793351810E-02  0.13460326499E-01  0.12887582687E-01  0.10230223944E+01  0.10228087267E+01 0.  0.
     999903    2    3    3    0    0 -0.31222949799E-01  0.94685127745E-01  0.88855632443E-01  0.13508923873E+00  0.20337969230E-01 0.  0.
         14    1    1    2    0    0 -0.94793351810E-02 -0.13460326499E-01 -0.12887582687E-01  0.20907605613E-01  0.00000000000E+00 0.  1.
     999901    1    3    3    0    0  0.40702284980E-01 -0.81224801246E-01 -0.75968049755E-01  0.88793315566E+00  0.88000000000E+00 0.  1.
        -11    1    4    4    0    0 -0.20291322424E-01  0.59997136005E-01  0.68948996446E-01  0.93624886256E-01  0.51100000000E-03 0. -1.
         11    1    4    4    0    0 -0.10931627375E-01  0.34687991740E-01  0.19906635997E-01  0.41464352470E-01  0.51100000000E-03 0.  1.
</event>
<event>
 8    1  0.1119901E+005  0.1043930E+01  0.7957747E-01            NaN
         13   -1    0    0    0    0  0.00000000000E+00  0.00000000000E+00  0.74505805969E-08  0.10566000000E+00  0.10566000000E+00 0.  1.
     999900   -1    0    0    0    0 -0.00000000000E+00 -0.00000000000E+00 -0.74505805969E-08  0.93827000000E+00  0.93827000000E+00 0. -1.
     999902    2    1    2    0    0  0.12321441974E-01 -0.11625522953E-01 -0.15117354236E-01  0.10212252623E+01  0.10209728357E+01 0.  0.
     999903    2    3    3    0    0 -0.12123550512E+00  0.40942565517E-01 -0.39967638035E-02  0.12952770728E+00  0.19675148256E-01 0.  0.
         14    1    1    2    0    0 -0.12321441974E-01  0.11625522953E-01  0.15117354236E-01  0.22704737729E-01  0.00000000000E+00 0.  1.
     999901    1    3    3    0    0  0.13355694710E+00 -0.52568088470E-01 -0.11120590432E-01  0.89169755499E+00  0.88000000000E+00 0. -1.
        -11    1    4    4    0    0 -0.38877894950E-01  0.17293359642E-01  0.70415404296E-02  0.43132301307E-01  0.51100000000E-03 0.  1.
         11    1    4    4    0    0 -0.82357610173E-01  0.23649205876E-01 -0.11038304233E-01  0.86395405974E-01  0.51100000000E-03 0. -1.
</event>
<event>
 8    1  0.1119901E+005  0.1043930E+01  0.7957747E-01            NaN
         13   -1    0    0    0    0  0.00000000000E+00  0.00000000000E+00  0.74505805969E-08  0.10566000000E+00  0.10566000000E+00 0. -1.
     999900   -1    0    0    0    0 -0.00000000000E+00 -0.00000000000E+00 -0.74505805969E-08  0.93827000000E+00  0.93827000000E+00 0. -1.
     999902    2    1    2    0    0  0.10949726636E-01  0.23321648781E-01  0.28146395175E-04  0.10181657494E+01  0.10178397205E+01 0.  0.
     999903    2    3    3    0    0  0.12618946232E+00  0.97249345597E-02  0.21160215016E-01  0.13029659711E+00  0.22607383010E-01 0.  0.
         14    1    1    2    0    0 -0.10949726636E-01 -0.23321648781E-01 -0.28146395175E-04  0.25764250571E-01  0.00000000000E+00 0. -1.
     999901    1    3    3    0    0 -0.11523973568E+00  0.13596714221E-01 -0.21132068621E-01  0.88786915232E+00  0.88000000000E+00 0. -1.
        -11    1    4    4    0    0  0.26219477490E-01  0.11132458574E-01  0.67951787013E-02  0.29288704449E-01  0.51100000000E-03 0. -1.
         11    1    4    4    0    0  0.99969984827E-01 -0.14075240141E-02  0.14365036315E-01  0.10100789266E+00  0.51100000000E-03 0.  1.
</event>
<event>
 8    1  0.1119901E+005  0.1043930E+01  0.7957747E-01            NaN
         13   -1    0    0    0    0  0.00000000000E+00  0.00000000000E+00  0.74505805969E-08  0.10566000000E+00  0.10566000000E+00 0.  1.
     999900   -1    0    0    0    0 -0.00000000000E+00 -0.00000000000E+00 -0.74505805969E-08  0.93827000000E+00  0.93827000000E+00 0. -1.
     999902    2    1    2    0    0  0.15324519796E-01 -0.57559274796E-02  0.16799011634E-01  0.10204741180E+01  0.10202045124E+01 0.  0.
     999903    2    3    3    0    0 -0.10925724469E+00  0.49680257730E-01  0.44697085201E-01  0.12953523729E+00  0.19397802641E-01 0.  0.
         14    1    1    2    0    0 -0.15324519796E-01  0.57559274796E-02 -0.16799011634E-01  0.23455881991E-01  0.00000000000E+00 0. -1.
     999901    1    3    3    0    0  0.12458176449E+00 -0.55436185209E-01 -0.27898073567E-01  0.89093888072E+00  0.88000000000E+00 0. -1.
        -11    1    4    4    0    0 -0.80148388337E-01  0.26884338686E-01  0.33027605453E-01  0.90761311485E-01  0.51100000000E-03 0. -1.
         11    1    4    4    0    0 -0.29108856357E-01  0.22795919044E-01  0.11669479748E-01  0.38773925801E-01  0.51100000000E-03 0.  1.
</event>
<event>
 8    1  0.1119901E+005  0.1043930E+01  0.7957747E-01            NaN
         13   -1    0    0    0    0  0.00000000000E+00  0.00000000000E+00  0.74505805969E-08  0.10566000000E+00  0.10566000000E+00 0.  1.
     999900   -1    0    0    0    0 -0.00000000000E+00 -0.00000000000E+00 -0.74505805969E-08  0.93827000000E+00  0.93827000000E+00 0.  1.
     999902    2    1    2    0    0 -0.19763624543E-01 -0.57112673170E-02 -0.97178342761E-02  0.10211779510E+01  0.10209244595E+01 0.  0.
     999903    2    3    3    0    0 -0.78454369250E-02  0.11514818157E+00  0.56624641862E-01  0.13036350698E+00  0.21624969044E-01 0.  0.
         14    1    1    2    0    0  0.19763624543E-01  0.57112673170E-02  0.97178342761E-02  0.22752048973E-01  0.00000000000E+00 0.  1.
     999901    1    3    3    0    0 -0.11918187618E-01 -0.12085944889E+00 -0.66342476138E-01  0.89081444405E+00  0.88000000000E+00 0.  1.
        -11    1    4    4    0    0 -0.14710612022E-01  0.94355153064E-01  0.45022258527E-01  0.10557727928E+00  0.51100000000E-03 0. -1.
         11    1    4    4    0    0  0.68651750971E-02  0.20793028510E-01  0.11602383335E-01  0.24786227703E-01  0.51100000000E-03 0.  1.
</event>
<event>
 8    1  0.1119901E+005  0.1043930E+01  0.7957747E-01            NaN
         13   -1    0    0    0    0  0.00000000000E+00  0.00000000000E+00  0.74505805969E-08  0.10566000000E+00  0.10566000000E+00 0.  1.
     999900   -1    0    0    0    0 -0.00000000000E+00 -0.00000000000E+00 -0.74505805969E-08  0.93827000000E+00  0.93827000000E+00 0. -1.
     999902    2    1    2    0    0 -0.80884738650E-02 -0.94488484575E-02 -0.18328453730E-01  0.10217796871E+01  0.10215395697E+01 0.  0.
     999903    2    3    3    0    0 -0.59054047298E-01  0.52791633069E-01  0.10131927543E+00  0.13004713394E+00  0.19295710611E-01 0.  0.
         14    1    1    2    0    0  0.80884738650E-02  0.94488484575E-02  0.18328453730E-01  0.22150312927E-01  0.00000000000E+00 0.  1.
     999901    1    3    3    0    0  0.50965573433E-01 -0.62240481526E-01 -0.11964772916E+00  0.89173255313E+00  0.88000000000E+00 0. -1.
        -11    1    4    4    0    0 -0.21932610597E-01  0.15568266534E-01  0.48874783768E-01  0.55789030641E-01  0.51100000000E-03 0.  1.
         11    1    4    4    0    0 -0.37121436702E-01  0.37223366535E-01  0.52444491667E-01  0.74258103303E-01  0.51100000000E-03 0. -1.
</event>
<event>
 8    1  0.1119901E+005  0.1043930E+01  0.7957747E-01            NaN
         13   -1    0    0    0    0  0.00000000000E+00  0.00000000000E+00  0.74505805969E-08  0.10566000000E+00  0.10566000000E+00 0.  1.
     999900   -1    0    0    0    0 -0.00000000000E+00 -0.00000000000E+00 -0.74505805969E-08  0.93827000000E+00  0.93827000000E+00 0.  1.
     999902    2    1    2    0    0 -0.61387620456E-02 -0.21460722086E-01 -0.87100504500E-02  0.10199693662E+01  0.10196878915E+01 0.  0.
     999903    2    3    3    0    0 -0.54738571072E-01 -0.62382650765E-01 -0.10157611870E+00  0.13280497767E+00  0.20773731623E-01 0.  0.
         14    1    1    2    0    0  0.61387620456E-02  0.21460722086E-01  0.87100504500E-02  0.23960633772E-01  0.00000000000E+00 0.  1.
     999901    1    3    3    0    0  0.48599809026E-01  0.40921928679E-01  0.92866068250E-01  0.88716438855E+00  0.88000000000E+00 0. -1.
        -11    1    4    4    0    0 -0.35774682375E-01 -0.32782458747E-01 -0.44912428005E-01  0.66120381206E-01  0.51100000000E-03 0. -1.
         11    1    4    4    0    0 -0.18963888697E-01 -0.29600192018E-01 -0.56663690695E-01  0.66684596469E-01  0.51100000000E-03 0.  1.
</event>
<event>
 8    1  0.1119901E+005  0.1043930E+01  0.7957747E-01            NaN
         13   -1    0    0    0    0  0.00000000000E+00  0.00000000000E+00  0.74505805969E-08  0.10566000000E+00  0.10566000000E+00 0.  1.
     999900   -1    0    0    0    0 -0.00000000000E+00 -0.00000000000E+00 -0.74505805969E-08  0.93827000000E+00  0.93827000000E+00 0.  1.
     999902    2    1    2    0    0  0.23301005229E-01 -0.42045416354E-02  0.10944923548E-02  0.10202274067E+01  0.10199520324E+01 0.  0.
     999903    2    3    3    0    0 -0.81743205609E-02  0.10836259282E+00  0.68366348080E-01  0.12995353960E+00  0.20117004351E-01 0.  0.
         14    1    1    2    0    0 -0.23301005229E-01  0.42045416354E-02 -0.10944923548E-02  0.23702593288E-01  0.00000000000E+00 0. -1.
     999901    1    3    3    0    0  0.31475325790E-01 -0.11256713446E+00 -0.67271855725E-01  0.89027386711E+00  0.88000000000E+00 0.  1.
        -11    1    4    4    0    0 -0.10480109212E-01  0.86551244195E-01  0.45808961747E-01  0.98486916177E-01  0.51100000000E-03 0. -1.
         11    1    4    4    0    0  0.23057886507E-02  0.21811348629E-01  0.22557386333E-01  0.31466623420E-01  0.51100000000E-03 0.  1.
</event>
<event>
 8    1  0.1119901E+005  0.1043930E+01  0.7957747E-01            NaN
         13   -1    0    0    0    0  0.00000000000E+00  0.00000000000E+00  0.74505805969E-08  0.10566000000E+00  0.10566000000E+00 0. -1.
     999900   -1    0    0    0    0 -0.00000000000E+00 -0.00000000000E+00 -0.74505805969E-08  0.93827000000E+00  0.93827000000E+00 0.  1.
     999902    2    1    2    0    0 -0.11605854589E-01  0.24573522536E-01  0.52600745758E-02  0.10162492801E+01  0.10158722247E+01 0.  0.
     999903    2    3    3    0    0  0.10270281533E+00 -0.67727896424E-01 -0.34317104965E-02  0.12402645417E+00  0.15357358675E-01 0.  0.
         14    1    1    2    0    0  0.11605854589E-01 -0.24573522536E-01 -0.52600745758E-02  0.27680719917E-01  0.00000000000E+00 0. -1.
     999901    1    3    3    0    0 -0.11430866992E+00  0.92301418960E-01  0.86917850723E-02  0.89222282592E+00  0.88000000000E+00 0. -1.
        -11    1    4    4    0    0  0.33306484200E-01 -0.14915740688E-01 -0.47725441669E-02  0.36808144599E-01  0.51100000000E-03 0. -1.
         11    1    4    4    0    0  0.69396331129E-01 -0.52812155736E-01  0.13408336704E-02  0.87218309566E-01  0.51100000000E-03 0.  1.
</event>
<event>
 8    1  0.1364381E+005  0.1043930E+01  0.7957747E-01            NaN
         13   -1    0    0    0    0  0.00000000000E+00  0.00000000000E+00  0.74505805969E-08  0.10566000000E+00  0.10566000000E+00 0.  1.
     999900   -1    0    0    0    0 -0.00000000000E+00 -0.00000000000E+00 -0.74505805969E-08  0.93827000000E+00  0.93827000000E+00 0.  1.
     999902    2    1    2    0    0 -0.15866735740E-01  0.17517254946E-02 -0.17551239736E-01  0.10202051636E+01  0.10199292662E+01 0.  0.
     999903    2    3    3    0    0  0.88788296970E-02 -0.47470349627E-01  0.11709906867E+00  0.12826017583E+00  0.20154729178E-01 0.  0.
         14    1    1    2    0    0  0.15866735740E-01 -0.17517254946E-02  0.17551239736E-01  0.23724836386E-01  0.00000000000E+00 0.  1.
     999901    1    3    3    0    0 -0.24745565437E-01  0.49222075122E-01 -0.13465030841E+00  0.89194498779E+00  0.88000000000E+00 0.  1.
        -11    1    4    4    0    0 -0.16421805767E-02 -0.37029832636E-01  0.75802086224E-01  0.84380819260E-01  0.51100000000E-03 0. -1.
         11    1    4    4    0    0  0.10521010274E-01 -0.10440516992E-01  0.41296982449E-01  0.43879356565E-01  0.51100000000E-03 0.  1.
</event>
<event>
 8    1  0.1119901E+005  0.1043930E+01  0.7957747E-01            NaN
         13   -1    0    0    0    0  0.00000000000E+00  0.00000000000E+00  0.74505805969E-08  0.10566000000E+00  0.10566000000E+00 0. -1.
     999900   -1    0    0    0    0 -0.00000000000E+00 -0.00000000000E+00 -0.74505805969E-08  0.93827000000E+00  0.93827000000E+00 0.  1.
     999902    2    1    2    0    0 -0.39070422265E-02  0.24732776514E-02  0.23124022565E-01  0.10203481744E+01  0.10200756317E+01 0.  0.
     999903    2    3    3    0    0  0.15940307066E-01 -0.12947095237E-01 -0.12433739641E+00  0.12772475137E+00  0.20787094587E-01 0.  0.
         14    1    1    2    0    0  0.39070422265E-02 -0.24732776514E-02 -0.23124022565E-01  0.23581825648E-01  0.00000000000E+00 0.  1.
     999901    1    3    3    0    0 -0.19847349293E-01  0.15420372889E-01  0.14746141898E+00  0.89262342298E+00  0.88000000000E+00 0. -1.
        -11    1    4    4    0    0  0.38539463908E-02 -0.34312240909E-03 -0.79624969471E-01  0.79720558955E-01  0.51100000000E-03 0. -1.
         11    1    4    4    0    0  0.12086360675E-01 -0.12603972828E-01 -0.44712426939E-01  0.48004192412E-01  0.51100000000E-03 0.  1.
</event>
<event>
 8    1  0.1119901E+005  0.1043930E+01  0.7957747E-01            NaN
         13   -1    0    0    0    0  0.00000000000E+00  0.00000000000E+00  0.74505805969E-08  0.10566000000E+00  0.10566000000E+00 0. -1.
     999900   -1    0    0    0    0 -0.00000000000E+00 -0.00000000000E+00 -0.74505805969E-08  0.93827000000E+00  0.93827000000E+00 0.  1.
     999902    2    1    2    0    0  0.21237810158E-01  0.11743803364E-01 -0.85316780307E-02  0.10182054781E+01  0.10178804667E+01 0.  0.
     999903    2    3    3    0    0 -0.58764193593E-01  0.86603176064E-01 -0.72711120482E-01  0.12909173558E+00  0.20601664959E-01 0.  0.
         14    1    1    2    0    0 -0.21237810158E-01 -0.11743803364E-01  0.85316780307E-02  0.25724521915E-01  0.00000000000E+00 0. -1.
     999901    1    3    3    0    0  0.80002003751E-01 -0.74859372700E-01  0.64179442452E-01  0.88911374251E+00  0.88000000000E+00 0. -1.
        -11    1    4    4    0    0 -0.84860857471E-02  0.27987152433E-01 -0.16594207164E-01  0.33629201374E-01  0.51100000000E-03 0.  1.
         11    1    4    4    0    0 -0.50278107846E-01  0.58616023630E-01 -0.56116913318E-01  0.95462534202E-01  0.51100000000E-03 0. -1.
</event>
<event>
 8    1  0.1119901E+005  0.1043930E+01  0.7957747E-01            NaN
         13   -1    0    0    0    0  0.00000000000E+00  0.00000000000E+00  0.74505805969E-08  0.10566000000E+00  0.10566000000E+00 0. -1.
     999900   -1    0    0    0    0 -0.00000000000E+00 -0.00000000000E+00 -0.74505805969E-08  0.93827000000E+00  0.93827000000E+00 0.  1.
     999902    2    1    2    0    0 -0.20450933557E-01  0.11621893915E-01 -0.22482590739E-02  0.10203002778E+01  0.10200266139E+01 0.  0.
     999903    2    3    3    0    0 -0.10159323907E+00  0.75539354134E-01  0.37063718157E-01  0.13338712140E+00  0.19774344598E-01 0.  0.
         14    1    1    2    0    0  0.20450933557E-01 -0.11621893915E-01  0.22482590739E-02  0.23629722182E-01  0.00000000000E+00 0.  1.
     999901    1    3    3    0    0  0.81142305518E-01 -0.63917460219E-01 -0.39311977230E-01  0.88691315641E+00  0.88000000000E+00 0.  1.
        -11    1    4    4    0    0 -0.41441613483E-01  0.31653152580E-01  0.52463984997E-02  0.52412929841E-01  0.51100000000E-03 0. -1.
         11    1    4    4    0    0 -0.60151625592E-01  0.43886201554E-01  0.31817319657E-01  0.80974191564E-01  0.51100000000E-03 0.  1.
</event>
<event>
 8    1  0.1119901E+005  0.1043930E+01  0.7957747E-01            NaN
         13   -1    0    0    0    0  0.00000000000E+00  0.00000000000E+00  0.74505805969E-08  0.10566000000E+00  0.10566000000E+00 0.  1.
     999900   -1    0    0    0    0 -0.00000000000E+00 -0.00000000000E+00 -0.74505805969E-08  0.93827000000E+00  0.93827000000E+00 0.  1.
     999902    2    1    2    0    0  0.13044127880E-02  0.16586935820E-01 -0.16719139293E-01  0.10203427672E+01  0.10200700981E+01 0.  0.
     999903    2    3    3    0    0  0.12334591827E+00 -0.43338316645E-02 -0.39771342599E-01  0.13137526967E+00  0.21088009356E-01 0.  0.
         14    1    1    2    0    0 -0.13044127880E-02 -0.16586935820E-01  0.16719139293E-01  0.23587232803E-01  0.00000000000E+00 0.  1.
     999901    1    3    3    0    0 -0.12204150548E+00  0.20920767485E-01  0.23052203306E-01  0.88896749752E+00  0.88000000000E+00 0. -1.
        -11    1    4    4    0    0  0.66682407410E-01 -0.90281431196E-02 -0.30020052939E-01  0.73685246322E-01  0.51100000000E-03 0.  1.
         11    1    4    4    0    0  0.56663510863E-01  0.46943114552E-02 -0.97512896596E-02  0.57690023352E-01  0.51100000000E-03 0. -1.
</event>
<event>
 8    1  0.1119901E+005  0.1043930E+01  0.7957747E-01            NaN
         13   -1    0    0    0    0  0.00000000000E+00  0.00000000000E+00  0.74505805969E-08  0.10566000000E+00  0.10566000000E+00 0. -1.
     999900   -1    0    0    0    0 -0.00000000000E+00 -0.00000000000E+00 -0.74505805969E-08  0.93827000000E+00  0.93827000000E+00 0.  1.
     999902    2    1    2    0    0  0.12168364406E-01  0.20124364462E-01 -0.52740963546E-02  0.10198286467E+01  0.10195438163E+01 0.  0.
     999903    2    3    3    0    0 -0.35778068157E-01  0.11330559233E+00  0.52691361160E-01  0.13171739475E+00  0.21327567206E-01 0.  0.
         14    1    1    2    0    0 -0.12168364406E-01 -0.20124364462E-01  0.52740963546E-02  0.24101353275E-01  0.00000000000E+00 0.  1.
     999901    1    3    3    0    0  0.47946432563E-01 -0.93181227873E-01 -0.57965457515E-01  0.88811125198E+00  0.88000000000E+00 0.  1.
        -11    1    4    4    0    0 -0.27692524982E-01  0.94894454107E-01  0.51750621124E-01  0.11158055954E+00  0.51100000000E-03 0.  1.
         11    1    4    4    0    0 -0.80855431752E-02  0.18411138228E-01  0.94074003640E-03  0.20136835205E-01  0.51100000000E-03 0. -1.
</event>
<event>
 8    1  0.1119901E+005  0.1043930E+01  0.7957747E-01            NaN
         13   -1    0    0    0    0  0.00000000000E+00  0.00000000000E+00  0.74505805969E-08  0.10566000000E+00  0.10566000000E+00 0. -1.
     999900   -1    0    0    0    0 -0.00000000000E+00 -0.00000000000E+00 -0.74505805969E-08  0.93827000000E+00  0.93827000000E+00 0. -1.
     999902    2    1    2    0    0 -0.20294851975E-01 -0.92132356308E-02  0.64102782525E-02  0.10207382688E+01  0.10204747704E+01 0.  0.
     999903    2    3    3    0    0 -0.72329130259E-01 -0.10431012155E+00  0.36490938599E-01  0.13357659813E+00  0.19975345441E-01 0.  0.
         14    1    1    2    0    0  0.20294851975E-01  0.92132356308E-02 -0.64102782525E-02  0.23191731172E-01  0.00000000000E+00 0.  1.
     999901    1    3    3    0    0  0.52034278284E-01  0.95096885923E-01 -0.30080660347E-01  0.88716167070E+00  0.88000000000E+00 0. -1.
        -11    1    4    4    0    0 -0.45300620241E-01 -0.80888055013E-01  0.27280919997E-01  0.96641261141E-01  0.51100000000E-03 0. -1.
         11    1    4    4    0    0 -0.27028510018E-01 -0.23422066540E-01  0.92100186022E-02  0.36935336989E-01  0.51100000000E-03 0.  1.
</event>
<event>
 8    1  0.1119901E+005  0.1043930E+01  0.7957747E-01            NaN
         13   -1    0    0    0    0  0.00000000000E+00  0.00000000000E+00  0.74505805969E-08  0.10566000000E+00  0.10566000000E+00 0. -1.
     999900   -1    0    0    0    0 -0.00000000000E+00 -0.00000000000E+00 -0.74505805969E-08  0.93827000000E+00  0.93827000000E+00 0. -1.
     999902    2    1    2    0    0 -0.18279487670E-01 -0.56465033394E-02 -0.15368307515E-01  0.10193900826E+01  0.10190946634E+01 0.  0.
     999903    2    3    3    0    0 -0.81916614323E-02  0.58365098782E-01  0.11168102598E+00  0.12790773137E+00  0.20350629147E-01 0.  0.
         14    1    1    2    0    0  0.18279487670E-01  0.56465033394E-02  0.15368307515E-01  0.24539917386E-01  0.00000000000E+00 0. -1.
     999901    1    3    3    0    0 -0.10087826238E-01 -0.64011602121E-01 -0.12704933349E+00  0.89148235125E+00  0.88000000000E+00 0. -1.
        -11    1    4    4    0    0 -0.14925990043E-01  0.41337242241E-01  0.75797114900E-01  0.87618585489E-01  0.51100000000E-03 0.  1.
         11    1    4    4    0    0  0.67343286111E-02  0.17027856541E-01  0.35883911079E-01  0.40289145878E-01  0.51100000000E-03 0. -1.
</event>
<event>
 8    1  0.1119901E+005  0.1043930E+01  0.7957747E-01            NaN
         13   -1    0    0    0    0  0.00000000000E+00  0.00000000000E+00  0.74505805969E-08  0.10566000000E+00  0.10566000000E+00 0. -1.
     999900   -1    0    0    0    0 -0.00000000000E+00 -0.00000000000E+00 -0.74505805969E-08  0.93827000000E+00  0.93827000000E+00 0. -1.
     999902    2    1    2    0    0  0.10074258166E-01 -0.19759755497E-01 -0.31103674929E-04  0.10217502889E+01  0.10215095268E+01 0.  0.
     999903    2    3    3    0    0  0.85557660537E-01 -0.36456456414E-01  0.93580329756E-01  0.13341497820E+00  0.19826542806E-01 0.  0.
         14    1    1    2    0    0 -0.10074258166E-01  0.19759755497E-01  0.31103674929E-04  0.22179711051E-01  0.00000000000E+00 0.  1.
     999901    1    3    3    0    0 -0.75483402372E-01  0.16696700918E-01 -0.93611433431E-01  0.88833531075E+00  0.88000000000E+00 0. -1.
        -11    1    4    4    0    0  0.40098948068E-01 -0.25513363995E-01  0.55803644474E-01  0.73301877439E-01  0.51100000000E-03 0.  1.
         11    1    4    4    0    0  0.45458712469E-01 -0.10943092420E-01  0.37776685282E-01  0.60113100760E-01  0.51100000000E-03 0. -1.
</event>
<event>
 8    1  0.1119901E+005  0.1043930E+01  0.7957747E-01            NaN
         13   -1    0    0    0    0  0.00000000000E+00  0.00000000000E+00  0.74505805969E-08  0.10566000000E+00  0.10566000000E+00 0.  1.
     999900   -1    0    0    0    0 -0.00000000000E+00 -0.00000000000E+00 -0.74505805969E-08  0.93827000000E+00  0.93827000000E+00 0.  1.
     999902    2    1    2    0    0  0.11712222738E-01  0.20344639794E-01  0.16473783048E-02  0.10203971637E+01  0.10201257654E+01 0.  0.
     999903    2    3    3    0    0 -0.41877722581E-01  0.35615603105E-01 -0.11674870858E+00  0.13072153855E+00  0.20872107082E-01 0.  0.
         14    1    1    2    0    0 -0.11712222738E-01 -0.20344639794E-01 -0.16473783048E-02  0.23532836317E-01  0.00000000000E+00 0. -1.
     999901    1    3    3    0    0  0.53589945319E-01 -0.15270963311E-01  0.11839608688E+00  0.88967562513E+00  0.88000000000E+00 0. -1.
        -11    1    4    4    0    0 -0.89657284459E-02  0.66467246455E-02 -0.47199987319E-01  0.48504259184E-01  0.51100000000E-03 0.  1.
         11    1    4    4    0    0 -0.32911994135E-01  0.28968878460E-01 -0.69548721260E-01  0.82217279370E-01  0.51100000000E-03 0. -1.
</event>
<event>
 8    1  0.1119901E+005  0.1043930E+01  0.7957747E-01            NaN
         13   -1    0    0    0    0  0.00000000000E+00  0.00000000000E+00  0.74505805969E-08  0.10566000000E+00  0.10566000000E+00 0. -1.
     999900   -1    0    0    0    0 -0.00000000000E+00 -0.00000000000E+00 -0.74505805969E-08  0.93827000000E+00  0.93827000000E+00 0. -1.
     999902    2    1    2    0    0  0.53964466543E-02  0.23131745753E-01 -0.46450003295E-02  0.10197272042E+01  0.10194399421E+01 0.  0.
     999903    2    3    3    0    0  0.58737302712E-01  0.96128853481E-01 -0.67364281158E-01  0.13287460489E+00  0.20661245040E-01 0.  0.
         14    1    1    2    0    0 -0.53964466543E-02 -0.23131745753E-01  0.46450003295E-02  0.24202795833E-01  0.00000000000E+00 0.  1.
     999901    1    3    3    0    0 -0.53340856058E-01 -0.72997107728E-01  0.62719280828E-01  0.88685259928E+00  0.88000000000E+00 0.  1.
        -11    1    4    4    0    0  0.32704846392E-01  0.66185507091E-01 -0.52100037367E-01  0.90359301354E-01  0.51100000000E-03 0. -1.
         11    1    4    4    0    0  0.26032456320E-01  0.29943346389E-01 -0.15264243791E-01  0.42515303533E-01  0.51100000000E-03 0.  1.
</event>
<event>
 8    1  0.1119901E+005  0.1043930E+01  0.7957747E-01            NaN
         13   -1    0    0    0    0  0.00000000000E+00  0.00000000000E+00  0.74505805969E-08  0.10566000000E+00  0.10566000000E+00 0. -1.
     999900   -1    0    0    0    0 -0.00000000000E+00 -0.00000000000E+00 -0.74505805969E-08  0.93827000000E+00  0.93827000000E+00 0.  1.
     999902    2    1    2    0    0 -0.88627501719E-02  0.66690447371E-02 -0.20549924746E-01  0.10205778287E+01  0.10203106294E+01 0.  0.
     999903    2    3    3    0    0  0.59770536475E-01  0.43043974863E-01 -0.10860881362E+00  0.13277828403E+00  0.20221214371E-01 0.  0.
         14    1    1    2    0    0  0.88627501719E-02 -0.66690447371E-02  0.20549924746E-01  0.23352171321E-01  0.00000000000E+00 0.  1.
     999901    1    3    3    0    0 -0.68633286647E-01 -0.36374930125E-01  0.88058888873E-01  0.88779954465E+00  0.88000000000E+00 0. -1.
        -11    1    4    4    0    0  0.41236348000E-01  0.40112462452E-01 -0.84453963598E-01  0.10218698121E+00  0.51100000000E-03 0.  1.
         11    1    4    4    0    0  0.18534188475E-01  0.29315124103E-02 -0.24154850021E-01  0.30591302816E-01  0.51100000000E-03 0. -1.
</event>
<event>
 8    1  0.1119901E+005  0.1043930E+01  0.7957747E-01            NaN
         13   -1    0    0    0    0  0.00000000000E+00  0.00000000000E+00  0.74505805969E-08  0.10566000000E+00  0.10566000000E+00 0. -1.
     999900   -1    0    0    0    0 -0.00000000000E+00 -0.00000000000E+00 -0.74505805969E-08  0.93827000000E+00  0.93827000000E+00 0. -1.
     999902    2    1    2    0    0 -0.19337349380E-01 -0.55447607561E-02  0.11777617842E-01  0.10206192785E+01  0.10203530379E+01 0.  0.
     999903    2    3    3    0    0  0.31722606629E-01 -0.98026736737E-01 -0.76546910542E-01  0.12991098886E+00  0.20046711121E-01 0.  0.
         14    1    1    2    0    0  0.19337349380E-01  0.55447607561E-02 -0.11777617842E-01  0.23310721459E-01  0.00000000000E+00 0.  1.
     999901    1    3    3    0    0 -0.51059956010E-01  0.92481975981E-01  0.88324528385E-01  0.89070828968E+00  0.88000000000E+00 0.  1.
        -11    1    4    4    0    0  0.29886005233E-01 -0.61570498133E-01 -0.48852296831E-01  0.84088688750E-01  0.51100000000E-03 0.  1.
         11    1    4    4    0    0  0.18366013962E-02 -0.36456238605E-01 -0.27694613711E-01  0.45822300111E-01  0.51100000000E-03 0. -1.
</event>
<event>
 8    1  0.1119901E+005  0.1043930E+01  0.7957747E-01            NaN
         13   -1    0    0    0    0  0.00000000000E+00  0.00000000000E+00  0.74505805969E-08  0.10566000000E+00  0.10566000000E+00 0.  1.
     999900   -1    0    0    0    0 -0.00000000000E+00 -0.00000000000E+00 -0.74505805969E-08  0.93827000000E+00  0.93827000000E+00 0. -1.
     999902    2    1    2    0    0  0.16481257707E-01  0.46812123330E-02  0.15842935977E-01  0.10205945286E+01  0.10203277158E+01 0.  0.
     999903    2    3    3    0    0 -0.21807715244E-01  0.21270156971E-01 -0.12347074649E+00  0.12865868975E+00  0.19494542465E-01 0.  0.
         14    1    1    2    0    0 -0.16481257707E-01 -0.46812123330E-02 -0.15842935977E-01  0.23335471387E-01  0.00000000000E+00 0. -1.
     999901    1    3    3    0    0  0.38288972951E-01 -0.16588944638E-01  0.13931368247E+00  0.89193583887E+00  0.88000000000E+00 0.  1.
        -11    1    4    4    0    0 -0.19825915465E-02  0.10189952131E-01 -0.66808836834E-01  0.67612481050E-01  0.51100000000E-03 0. -1.
         11    1    4    4    0    0 -0.19825123698E-01  0.11080204839E-01 -0.56661909658E-01  0.61046208695E-01  0.51100000000E-03 0.  1.
</event>
<event>
 8    1  0.1119901E+005  0.1043930E+01  0.7957747E-01            NaN
         13   -1    0    0    0    0  0.00000000000E+00  0.00000000000E+00  0.74505805969E-08  0.10566000000E+00  0.10566000000E+00 0.  1.
     999900   -1    0    0    0    0 -0.00000000000E+00 -0.00000000000E+00 -0.74505805969E-08  0.93827000000E+00  0.93827000000E+00 0. -1.
     999902    2    1    2    0    0  0.14220079274E-01 -0.10991701735E-01  0.15080406315E-01  0.10204683970E+01  0.10201986583E+01 0.  0.
     999903    2    3    3    0    0 -0.66355502849E-01  0.99065371623E-01  0.46334766332E-01  0.12941182254E+00  0.19583376362E-01 0.  0.
         14    1    1    2    0    0 -0.14220079274E-01  0.10991701735E-01 -0.15080406315E-01  0.23461603018E-01  0.00000000000E+00 0. -1.
     999901    1    3    3    0    0  0.80575582123E-01 -0.11005707336E+00 -0.31254360017E-01  0.89105657444E+00  0.88000000000E+00 0.  1.
        -11    1    4    4    0    0 -0.26138421414E-01  0.43359297787E-01  0.29770752470E-01  0.58735037263E-01  0.51100000000E-03 0.  1.
         11    1    4    4    0    0 -0.40217081435E-01  0.55706073836E-01  0.16564013862E-01  0.70676785280E-01  0.51100000000E-03 0. -1.
</event>
<event>
 8    1  0.1119901E+005  0.1043930E+01  0.7957747E-01            NaN
         13   -1    0    0    0    0  0.00000000000E+00  0.00000000000E+00  0.74505805969E-08  0.10566000000E+00  0.10566000000E+00 0. -1.
     999900   -1    0    0    0    0 -0.00000000000E+00 -0.00000000000E+00 -0.74505805969E-08  0.93827000000E+00  0.93827000000E+00 0. -1.
     999902    2    1    2    0    0  0.16602715328E-01 -0.95605280272E-02 -0.14350787361E-01  0.10199926035E+01  0.10197116810E+01 0.  0.
     999903    2    3    3    0    0  0.83525805708E-01  0.38704000573E-01  0.88950149293E-01  0.13011662999E+00  0.23316270318E-01 0.  0.
         14    1    1    2    0    0 -0.16602715328E-01  0.95605280272E-02  0.14350787361E-01  0.23937396481E-01  0.00000000000E+00 0.  1.
     999901    1    3    3    0    0 -0.66923090380E-01 -0.48264528600E-01 -0.10330093665E+00  0.88987597353E+00  0.88000000000E+00 0. -1.
        -11    1    4    4    0    0  0.45605866065E-01  0.84259083764E-02  0.41237675863E-01  0.62062049459E-01  0.51100000000E-03 0.  1.
         11    1    4    4    0    0  0.37919939643E-01  0.30278092197E-01  0.47712473431E-01  0.68054580533E-01  0.51100000000E-03 0. -1.
</event>
<event>
 8    1  0.1119901E+005  0.1043930E+01  0.7957747E-01            NaN
         13   -1    0    0    0    0  0.00000000000E+00  0.00000000000E+00  0.74505805969E-08  0.10566000000E+00  0.10566000000E+00 0. -1.
     999900   -1    0    0    0    0 -0.00000000000E+00 -0.00000000000E+00 -0.74505805969E-08  0.93827000000E+00  0.93827000000E+00 0.  1.
     999902    2    1    2    0    0 -0.28804364791E-02 -0.20779961458E-01  0.95317416987E-02  0.10208874782E+01  0.10206273979E+01 0.  0.
     999903    2    3    3    0    0 -0.89724015196E-01 -0.20974401691E-01  0.93390385484E-01  0.13264532813E+00  0.19562580208E-01 0.  0.
         14    1    1    2    0    0  0.28804364791E-02  0.20779961458E-01 -0.95317416987E-02  0.23042521830E-01  0.00000000000E+00 0. -1.
     999901    1    3    3    0    0  0.86843578717E-01  0.19444023353E-03 -0.83858643785E-01  0.88824215004E+00  0.88000000000E+00 0.  1.
        -11    1    4    4    0    0 -0.42170307100E-01 -0.19544475774E-01  0.49724167053E-01  0.68066697027E-01  0.51100000000E-03 0. -1.
         11    1    4    4    0    0 -0.47553708097E-01 -0.14299259176E-02  0.43666218431E-01  0.64578631102E-01  0.51100000000E-03 0.  1.
</event>
<event>
 8    1  0.1119901E+005  0.1043930E+01  0.7957747E-01            NaN
         13   -1    0    0    0    0  0.00000000000E+00  0.00000000000E+00  0.74505805969E-08  0.10566000000E+00  0.10566000000E+00 0. -1.
     999900   -1    0    0    0    0 -0.00000000000E+00 -0.00000000000E+00 -0.74505805969E-08  0.93827000000E+00  0.93827000000E+00 0.  1.
     999902    2    1    2    0    0 -0.12813186314E-01 -0.18596381041E-01 -0.73609548588E-02  0.10201773836E+01  0.10199008320E+01 0.  0.
     999903    2    3    3    0    0 -0.97762195222E-01  0.80034115114E-01 -0.25916589636E-01  0.13040852567E+00  0.19282311908E-01 0.  0.
         14    1    1    2    0    0  0.12813186314E-01  0.18596381041E-01  0.73609548588E-02  0.23752616440E-01  0.00000000000E+00 0. -1.
     999901    1    3    3    0    0  0.84949008909E-01 -0.98630496155E-01  0.18555634778E-01  0.88976885789E+00  0.88000000000E+00 0.  1.
        -11    1    4    4    0    0 -0.48963482339E-01  0.49575634334E-01 -0.20466778964E-01  0.72624488188E-01  0.51100000000E-03 0. -1.
         11    1    4    4    0    0 -0.48798712883E-01  0.30458480780E-01 -0.54498106727E-02  0.57784037483E-01  0.51100000000E-03 0.  1.
</event>
<event>
 8    1  0.1119901E+005  0.1043930E+01  0.7957747E-01            NaN
         13   -1    0    0    0    0  0.00000000000E+00  0.00000000000E+00  0.74505805969E-08  0.10566000000E+00  0.10566000000E+00 0.  1.
     999900   -1    0    0    0    0 -0.00000000000E+00 -0.00000000000E+00 -0.74505805969E-08  0.93827000000E+00  0.93827000000E+00 0.  1.
     999902    2    1    2    0    0  0.16578823261E-01  0.16909535074E-01  0.35840475774E-02  0.10199793183E+01  0.10196980801E+01 0.  0.
     999903    2    3    3    0    0  0.12418618420E+00 -0.29549291298E-01 -0.25838858294E-01  0.13172064310E+00  0.19680250408E-01 0.  0.
         14    1    1    2    0    0 -0.16578823261E-01 -0.16909535074E-01 -0.35840475774E-02  0.23950681705E-01  0.00000000000E+00 0. -1.
     999901    1    3    3    0    0 -0.10760736094E+00  0.46458826371E-01  0.29422905871E-01  0.88825867520E+00  0.88000000000E+00 0. -1.
        -11    1    4    4    0    0  0.24695504050E-01 -0.12735346889E-01 -0.10147378056E-02  0.27809131495E-01  0.51100000000E-03 0. -1.
         11    1    4    4    0    0  0.99490680154E-01 -0.16813944408E-01 -0.24824120488E-01  0.10391151160E+00  0.51100000000E-03 0.  1.
</event>
<event>
 8    1  0.1119901E+005  0.1043930E+01  0.7957747E-01            NaN
         13   -1    0    0    0    0  0.00000000000E+00  0.00000000000E+00  0.74505805969E-08  0.10566000000E+00  0.10566000000E+00 0.  1.
     999900   -1    0    0    0    0 -0.00000000000E+00 -0.00000000000E+00 -0.74505805969E-08  0.93827000000E+00  0.93827000000E+00 0. -1.
     999902    2    1    2    0    0  0.65124682387E-02  0.70434220972E-02 -0.21402074772E-01  0.10204764109E+01  0.10202068586E+01 0.  0.
     999903    2    3    3    0    0 -0.47836605868E-01  0.12048393863E+00 -0.22071500235E-02  0.13132455784E+00  0.20893722799E-01 0.  0.
         14    1    1    2    0    0 -0.65124682387E-02 -0.70434220972E-02  0.21402074772E-01  0.23453589105E-01  0.00000000000E+00 0.  1.
     999901    1    3    3    0    0  0.54349074107E-01 -0.11344051653E+00 -0.19194924748E-01  0.88915185305E+00  0.88000000000E+00 0. -1.
        -11    1    4    4    0    0 -0.14846615331E-01  0.37903973327E-01 -0.10406566163E-01  0.42020125191E-01  0.51100000000E-03 0. -1.
         11    1    4    4    0    0 -0.32989990537E-01  0.82579965304E-01  0.81994161396E-02  0.89304432652E-01  0.51100000000E-03 0.  1.
</event>
<event>
 8    1  0.1119901E+005  0.1043930E+01  0.7957747E-01            NaN
         13   -1    0    0    0    0  0.00000000000E+00  0.00000000000E+00  0.74505805969E-08  0.10566000000E+00  0.10566000000E+00 0. -1.
     999900   -1    0    0    0    0 -0.00000000000E+00 -0.00000000000E+00 -0.74505805969E-08  0.93827000000E+00  0.93827000000E+00 0.  1.
     999902    2    1    2    0    0  0.19665739081E-01  0.12176280343E-01  0.45623229636E-02  0.10203542097E+01  0.10200818082E+01 0.  0.
     999903    2    3    3    0    0 -0.27045346978E-01 -0.66131633090E-01 -0.10528447836E+00  0.12884965301E+00  0.20311770209E-01 0.  0.
         14    1    1    2    0    0 -0.19665739081E-01 -0.12176280343E-01 -0.45623229636E-02  0.23575790281E-01  0.00000000000E+00 0. -1.
     999901    1    3    3    0    0  0.46711086059E-01  0.78307913433E-01  0.10984680133E+00  0.89150455671E+00  0.88000000000E+00 0. -1.
        -11    1    4    4    0    0 -0.17614139682E-01 -0.23167442535E-01 -0.53476148375E-01  0.60884709709E-01  0.51100000000E-03 0.  1.
         11    1    4    4    0    0 -0.94312072962E-02 -0.42964190555E-01 -0.51808329988E-01  0.67964943304E-01  0.51100000000E-03 0. -1.
</event>
<event>
 8    1  0.1119901E+005  0.1043930E+01  0.7957747E-01            NaN
         13   -1    0    0    0    0  0.00000000000E+00  0.00000000000E+00  0.74505805969E-08  0.10566000000E+00  0.10566000000E+00 0. -1.
     999900   -1    0    0    0    0 -0.00000000000E+00 -0.00000000000E+00 -0.74505805969E-08  0.93827000000E+00  0.93827000000E+00 0.  1.
     999902    2    1    2    0    0 -0.16937944521E-01  0.39946248775E-02  0.13745315162E-01  0.10217537812E+01  0.10215130957E+01 0.  0.
     999903    2    3    3    0    0  0.10628414008E+00 -0.20994333445E-01 -0.67182288184E-01  0.12914109520E+00  0.20661126673E-01 0.  0.
         14    1    1    2    0    0  0.16937944521E-01 -0.39946248775E-02 -0.13745315162E-01  0.22176218826E-01  0.00000000000E+00 0. -1.
     999901    1    3    3    0    0 -0.12322208460E+00  0.24988958323E-01  0.80927603346E-01  0.89261268597E+00  0.88000000000E+00 0. -1.
        -11    1    4    4    0    0  0.67829418718E-01 -0.16639478384E-01 -0.53897333559E-01  0.88220666345E-01  0.51100000000E-03 0. -1.
         11    1    4    4    0    0  0.38454721362E-01 -0.43548550614E-02 -0.13284954626E-01  0.40920428859E-01  0.51100000000E-03 0.  1.
</event>
<event>
 8    1  0.1119901E+005  0.1043930E+01  0.7957747E-01            NaN
         13   -1    0    0    0    0  0.00000000000E+00  0.00000000000E+00  0.74505805969E-08  0.10566000000E+00  0.10566000000E+00 0. -1.
     999900   -1    0    0    0    0 -0.00000000000E+00 -0.00000000000E+00 -0.74505805969E-08  0.93827000000E+00  0.93827000000E+00 0. -1.
     999902    2    1    2    0    0 -0.11812626677E-01 -0.19927222589E-01  0.30744804293E-02  0.10205615431E+01  0.10202939667E+01 0.  0.
     999903    2    3    3    0    0 -0.36637123452E-01  0.84040498902E-01  0.89818403572E-01  0.12985954411E+00  0.19775522921E-01 0.  0.
         14    1    1    2    0    0  0.11812626677E-01  0.19927222589E-01 -0.30744804293E-02  0.23368456924E-01  0.00000000000E+00 0.  1.
     999901    1    3    3    0    0  0.24824496775E-01 -0.10396772149E+00 -0.86743923143E-01  0.89070199896E+00  0.88000000000E+00 0. -1.
        -11    1    4    4    0    0 -0.27633205144E-01  0.77965561664E-01  0.76551244918E-01  0.11270570993E+00  0.51100000000E-03 0. -1.
         11    1    4    4    0    0 -0.90039183077E-02  0.60749372373E-02  0.13267158654E-01  0.17153834180E-01  0.51100000000E-03 0.  1.
</event>
<event>
 8    1  0.1119901E+005  0.1043930E+01  0.7957747E-01            NaN
         13   -1    0    0    0    0  0.00000000000E+00  0.00000000000E+00  0.74505805969E-08  0.10566000000E+00  0.10566000000E+00 0.  1.
     999900   -1    0    0    0    0 -0.00000000000E+00 -0.00000000000E+00 -0.74505805969E-08  0.93827000000E+00  0.93827000000E+00 0.  1.
     999902    2    1    2    0    0  0.20872117707E-01 -0.11432174866E-01  0.15733361023E-02  0.10200801508E+01  0.10198013036E+01 0.  0.
     999903    2    3    3    0    0 -0.10943934909E+00  0.56794548646E-01 -0.25528879151E-01  0.12746013409E+00  0.19793186400E-01 0.  0.
         14    1    1    2    0    0 -0.20872117707E-01  0.11432174866E-01 -0.15733361023E-02  0.23849849187E-01  0.00000000000E+00 0. -1.
     999901    1    3    3    0    0  0.13031146679E+00 -0.68226723512E-01  0.27102215253E-01  0.89262001672E+00  0.88000000000E+00 0.  1.
        -11    1    4    4    0    0 -0.96877667502E-01  0.55997815871E-01 -0.25901846162E-01  0.11485732279E+00  0.51100000000E-03 0.  1.
         11    1    4    4    0    0 -0.12561681584E-01  0.79673277539E-03  0.37296701063E-03  0.12602811302E-01  0.51100000000E-03 0. -1.
</event>
<event>
 8    1  0.1119901E+005  0.1043930E+01  0.7957747E-01            NaN
         13   -1    0    0    0    0  0.00000000000E+00  0.00000000000E+00  0.74505805969E-08  0.10566000000E+00  0.10566000000E+00 0.  1.
     999900   -1    0    0    0    0 -0.00000000000E+00 -0.00000000000E+00 -0.74505805969E-08  0.93827000000E+00  0.93827000000E+00 0. -1.
     999902    2    1    2    0    0  0.16692818586E-01  0.48509421644E-02 -0.19440151087E-01  0.10178512480E+01  0.10175171064E+01 0.  0.
     999903    2    3    3    0    0  0.38689379004E-01  0.47422954627E-01 -0.11441735112E+00  0.13144451661E+00  0.20988712097E-01 0.  0.
         14    1    1    2    0    0 -0.16692818586E-01 -0.48509421644E-02  0.19440151087E-01  0.26078752012E-01  0.00000000000E+00 0.  1.
     999901    1    3    3    0    0 -0.21996560418E-01 -0.42572012462E-01  0.94977200031E-01  0.88640673138E+00  0.88000000000E+00 0.  1.
        -11    1    4    4    0    0  0.11684637804E-01  0.20561564581E-02 -0.22547836990E-01  0.25483810820E-01  0.51100000000E-03 0.  1.
         11    1    4    4    0    0  0.27004741200E-01  0.45366798169E-01 -0.91869514128E-01  0.10596070578E+00  0.51100000000E-03 0. -1.
</event>
<event>
 8    1  0.1165642E+005  0.1043930E+01  0.7957747E-01            NaN
         13   -1    0    0    0    0  0.00000000000E+00  0.00000000000E+00  0.74505805969E-08  0.10566000000E+00  0.10566000000E+00 0.  1.
     999900   -1    0    0    0    0 -0.00000000000E+00 -0.00000000000E+00 -0.74505805969E-08  0.93827000000E+00  0.93827000000E+00 0.  1.
     999902    2    1    2    0    0  0.57088518405E-02 -0.18241453220E-01 -0.12034404707E-01  0.10213430900E+01  0.10210933058E+01 0.  0.
     999903    2    3    3    0    0 -0.50188015799E-01 -0.11293289693E+00 -0.47363522201E-01  0.13379642881E+00  0.19634280884E-01 0.  0.
         14    1    1    2    0    0 -0.57088518405E-02  0.18241453220E-01  0.12034404707E-01  0.22586909960E-01  0.00000000000E+00 0.  1.
     999901    1    3    3    0    0  0.55896867639E-01  0.94691443715E-01  0.35329117494E-01  0.88754666123E+00  0.88000000000E+00 0.  1.
        -11    1    4    4    0    0 -0.40781478756E-01 -0.71238019691E-01 -0.26714489685E-01  0.86324443463E-01  0.51100000000E-03 0.  1.
         11    1    4    4    0    0 -0.94065370432E-02 -0.41694877244E-01 -0.20649032516E-01  0.47471985343E-01  0.51100000000E-03 0. -1.
</event>
<event>
 8    1  0.1119901E+005  0.1043930E+01  0.7957747E-01            NaN
         13   -1    0    0    0    0  0.00000000000E+00  0.00000000000E+00  0.74505805969E-08  0.10566000000E+00  0.10566000000E+00 0. -1.
     999900   -1    0    0    0    0 -0.00000000000E+00 -0.00000000000E+00 -0.74505805969E-08  0.93827000000E+00  0.93827000000E+00 0. -1.
     999902    2    1    2    0    0 -0.22797876575E-02 -0.23392320888E-01 -0.57232904914E-02  0.10197400401E+01  0.10194530863E+01 0.  0.
     999903    2    3    3    0    0  0.10405556043E+00 -0.37236743007E-01 -0.67634225043E-01  0.13107146398E+00  0.19778917722E-01 0.  0.
         14    1    1    2    0    0  0.22797876575E-02  0.23392320888E-01  0.57232904914E-02  0.24189959950E-01  0.00000000000E+00 0.  1.
     999901    1    3    3    0    0 -0.10633534809E+00  0.13844422119E-01  0.61910934551E-01  0.88866857607E+00  0.88000000000E+00 0.  1.
        -11    1    4    4    0    0  0.81420196596E-01 -0.37284037724E-01 -0.51969567542E-01  0.10353958158E+00  0.51100000000E-03 0.  1.
         11    1    4    4    0    0  0.22635363836E-01  0.47294716686E-04 -0.15664657500E-01  0.27531882398E-01  0.51100000000E-03 0. -1.
</event>
<event>
 8    1  0.1119901E+005  0.1043930E+01  0.7957747E-01            NaN
         13   -1    0    0    0    0  0.00000000000E+00  0.00000000000E+00  0.74505805969E-08  0.10566000000E+00  0.10566000000E+00 0. -1.
     999900   -1    0    0    0    0 -0.00000000000E+00 -0.00000000000E+00 -0.74505805969E-08  0.93827000000E+00  0.93827000000E+00 0.  1.
     999902    2    1    2    0    0 -0.20962184537E-01 -0.79012207962E-02 -0.58994810196E-02  0.10207643714E+01  0.10205014726E+01 0.  0.
     999903    2    3    3    0    0 -0.14781954920E-01  0.75266967168E-01 -0.10495123655E+00  0.13128902439E+00  0.18396285850E-01 0.  0.
         14    1    1    2    0    0  0.20962184537E-01  0.79012207962E-02  0.58994810196E-02  0.23165628568E-01  0.00000000000E+00 0. -1.
     999901    1    3    3    0    0 -0.61802296172E-02 -0.83168187964E-01  0.99051755531E-01  0.88947534705E+00  0.88000000000E+00 0. -1.
        -11    1    4    4    0    0 -0.70841695028E-03  0.18271629408E-01 -0.38455975123E-01  0.42584943812E-01  0.51100000000E-03 0.  1.
         11    1    4    4    0    0 -0.14073537970E-01  0.56995337760E-01 -0.66495261427E-01  0.88704080575E-01  0.51100000000E-03 0. -1.
</event>
<event>
 8    1  0.1119901E+005  0.1043930E+01  0.7957747E-01            NaN
         13   -1    0    0    0    0  0.00000000000E+00  0.00000000000E+00  0.74505805969E-08  0.10566000000E+00  0.10566000000E+00 0. -1.
     999900   -1    0    0    0    0 -0.00000000000E+00 -0.00000000000E+00 -0.74505805969E-08  0.93827000000E+00  0.93827000000E+00 0.  1.
     999902    2    1    2    0    0  0.20123440478E-01 -0.10753302682E-01  0.17143418160E-02  0.10210493238E+01  0.10207929253E+01 0.  0.
     999903    2    3    3    0    0 -0.52381109661E-01 -0.61889304112E-01  0.10064175381E+00  0.13107267620E+00  0.21845302094E-01 0.  0.
         14    1    1    2    0    0 -0.20123440478E-01  0.10753302682E-01 -0.17143418160E-02  0.22880676194E-01  0.00000000000E+00 0. -1.
     999901    1    3    3    0    0  0.72504550139E-01  0.51136001430E-01 -0.98927411998E-01  0.88997664760E+00  0.88000000000E+00 0.  1.
        -11    1    4    4    0    0 -0.17773995529E-01 -0.94276081139E-02  0.33684582494E-01  0.39239099513E-01  0.51100000000E-03 0.  1.
         11    1    4    4    0    0 -0.34607114133E-01 -0.52461695998E-01  0.66957171319E-01  0.91833576690E-01  0.51100000000E-03 0. -1.
</event>
<event>
 8    1  0.1119901E+005  0.1043930E+01  0.7957747E-01            NaN
         13   -1    0    0    0    0  0.00000000000E+00  0.00000000000E+00  0.74505805969E-08  0.10566000000E+00  0.10566000000E+00 0.  1.
     999900   -1    0    0    0    0 -0.00000000000E+00 -0.00000000000E+00 -0.74505805969E-08  0.93827000000E+00  0.93827000000E+00 0. -1.
     999902    2    1    2    0    0  0.84367843288E-02 -0.63198242713E-02  0.20515433200E-01  0.10208648204E+01  0.10206042226E+01 0.  0.
     999903    2    3    3    0    0  0.38830588557E-01  0.47941043249E-01 -0.11096461914E+00  0.12892590480E+00  0.22418385142E-01 0.  0.
         14    1    1    2    0    0 -0.84367843288E-02  0.63198242713E-02 -0.20515433200E-01  0.23065179558E-01  0.00000000000E+00 0. -1.
     999901    1    3    3    0    0 -0.30393804228E-01 -0.54260867521E-01  0.13148005234E+00  0.89193891564E+00  0.88000000000E+00 0. -1.
        -11    1    4    4    0    0  0.52029605381E-02 -0.13229433835E-02 -0.51504789433E-02  0.74571798894E-02  0.51100000000E-03 0.  1.
         11    1    4    4    0    0  0.33627628019E-01  0.49263986633E-01 -0.10581414019E+00  0.12146872491E+00  0.51100000000E-03 0. -1.
</event>
<event>
 8    1  0.1119901E+005  0.1043930E+01  0.7957747E-01            NaN
         13   -1    0    0    0    0  0.00000000000E+00  0.00000000000E+00  0.74505805969E-08  0.10566000000E+00  0.10566000000E+00 0. -1.
     999900   -1    0    0    0    0 -0.00000000000E+00 -0.00000000000E+00 -0.74505805969E-08  0.93827000000E+00  0.93827000000E+00 0.  1.
     999902    2    1    2    0    0  0.19390975003E-01 -0.14077748330E-01  0.78558049467E-03  0.10199548035E+01  0.10196729825E+01 0.  0.
     999903    2    3    3    0    0  0.12900147031E+00  0.21351282082E-01 -0.48663715249E-02  0.13242924251E+00  0.20409951318E-01 0.  0.
         14    1    1    2    0    0 -0.19390975003E-01  0.14077748330E-01 -0.78558049467E-03  0.23975196482E-01  0.00000000000E+00 0. -1.
     999901    1    3    3    0    0 -0.10961049530E+00 -0.35429030412E-01  0.56519520196E-02  0.88752556101E+00  0.88000000000E+00 0.  1.
        -11    1    4    4    0    0  0.93914879179E-01  0.73281023178E-02  0.88227698857E-03  0.94205865786E-01  0.51100000000E-03 0. -1.
         11    1    4    4    0    0  0.35086591127E-01  0.14023179764E-01 -0.57486485134E-02  0.38223376726E-01  0.51100000000E-03 0.  1.
</event>
<event>
 8    1  0.1119901E+005  0.1043930E+01  0.7957747E-01            NaN
         13   -1    0    0    0    0  0.00000000000E+00  0.00000000000E+00  0.74505805969E-08  0.10566000000E+00  0.10566000000E+00 0.  1.
     999900   -1    0    0    0    0 -0.00000000000E+00 -0.00000000000E+00 -0.74505805969E-08  0.93827000000E+00  0.93827000000E+00 0.  1.
     999902    2    1    2    0    0 -0.13844971536E-02 -0.24614725405E-01  0.24686247327E-02  0.10191530824E+01  0.10188518585E+01 0.  0.
     999903    2    3    3    0    0  0.72754292312E-02 -0.72973389153E-01 -0.10679433548E+00  0.13103600160E+00  0.19681367543E-01 0.  0.
         14    1    1    2    0    0  0.13844971536E-02  0.24614725405E-01 -0.24686247327E-02  0.24776917629E-01  0.00000000000E+00 0. -1.
     999901    1    3    3    0    0 -0.86599263848E-02  0.48358663748E-01  0.10926296022E+00  0.88811708077E+00  0.88000000000E+00 0. -1.
        -11    1    4    4    0    0  0.11175689141E-01 -0.41487033293E-01 -0.72788583541E-01  0.84525197274E-01  0.51100000000E-03 0.  1.
         11    1    4    4    0    0 -0.39002599098E-02 -0.31486355860E-01 -0.34005751944E-01  0.46510804325E-01  0.51100000000E-03 0. -1.
</event>
<event>
 8    1  0.1119901E+005  0.1043930E+01  0.7957747E-01            NaN
         13   -1    0    0    0    0  0.00000000000E+00  0.00000000000E+00  0.74505805969E-08  0.10566000000E+00  0.10566000000E+00 0. -1.
     999900   -1    0    0    0    0 -0.00000000000E+00 -0.00000000000E+00 -0.74505805969E-08  0.93827000000E+00  0.93827000000E+00 0.  1.
     999902    2    1    2    0    0  0.11345159364E-01  0.18954167104E-02 -0.20459458551E-01  0.10204588541E+01  0.10201888934E+01 0.  0.
     999903    2    3    3    0    0  0.79796775370E-01 -0.63972354575E-01  0.77570024083E-01  0.12993430840E+00  0.20145181929E-01 0.  0.
         14    1    1    2    0    0 -0.11345159364E-01 -0.18954167104E-02  0.20459458551E-01  0.23471145897E-01  0.00000000000E+00 0. -1.
     999901    1    3    3    0    0 -0.68451616006E-01  0.65867771285E-01 -0.98029482634E-01  0.89052454570E+00  0.88000000000E+00 0.  1.
        -11    1    4    4    0    0  0.36502123764E-01 -0.41661586152E-01  0.44611342451E-01  0.71123314014E-01  0.51100000000E-03 0.  1.
         11    1    4    4    0    0  0.43294651606E-01 -0.22310768423E-01  0.32958681631E-01  0.58810994390E-01  0.51100000000E-03 0. -1.
</event>
<event>
 8    1  0.1119901E+005  0.1043930E+01  0.7957747E-01            NaN
         13   -1    0    0    0    0  0.00000000000E+00  0.00000000000E+00  0.74505805969E-08  0.10566000000E+00  0.10566000000E+00 0. -1.
     999900   -1    0    0    0    0 -0.00000000000E+00 -0.00000000000E+00 -0.74505805969E-08  0.93827000000E+00  0.93827000000E+00 0. -1.
     999902    2    1    2    0    0 -0.37936698689E-02  0.11679894554E-01 -0.19253530962E-01  0.10210933995E+01  0.10208379990E+01 0.  0.
     999903    2    3    3    0    0  0.16039835070E-01 -0.62826060450E-01 -0.11413094366E+00  0.13264180898E+00  0.19067957650E-01 0.  0.
         14    1    1    2    0    0  0.37936698689E-02 -0.11679894554E-01  0.19253530962E-01  0.22836600499E-01  0.00000000000E+00 0. -1.
     999901    1    3    3    0    0 -0.19833504939E-01  0.74505955004E-01  0.94877412700E-01  0.88845159052E+00  0.88000000000E+00 0.  1.
        -11    1    4    4    0    0  0.17509966049E-01 -0.43918321155E-01 -0.68600570657E-01  0.83316968617E-01  0.51100000000E-03 0.  1.
         11    1    4    4    0    0 -0.14701309791E-02 -0.18907739295E-01 -0.45530373005E-01  0.49324840368E-01  0.51100000000E-03 0. -1.
</event>
<event>
 8    1  0.1119901E+005  0.1043930E+01  0.7957747E-01            NaN
         13   -1    0    0    0    0  0.00000000000E+00  0.00000000000E+00  0.74505805969E-08  0.10566000000E+00  0.10566000000E+00 0. -1.
     999900   -1    0    0    0    0 -0.00000000000E+00 -0.00000000000E+00 -0.74505805969E-08  0.93827000000E+00  0.93827000000E+00 0. -1.
     999902    2    1    2    0    0 -0.10303084576E-01 -0.21392494176E-01  0.12732832555E-03  0.10201853465E+01  0.10199089825E+01 0.  0.
     999903    2    3    3    0    0 -0.41987107946E-01 -0.10317869014E+00  0.69938177602E-01  0.13307407168E+00  0.20213869810E-01 0.  0.
         14    1    1    2    0    0  0.10303084576E-01  0.21392494176E-01 -0.12732832555E-03  0.23744653532E-01  0.00000000000E+00 0. -1.
     999901    1    3    3    0    0  0.31684023369E-01  0.81786195967E-01 -0.69810849276E-01  0.88711127479E+00  0.88000000000E+00 0. -1.
        -11    1    4    4    0    0 -0.15864533559E-01 -0.65160697616E-01  0.40293473194E-01  0.78239536309E-01  0.51100000000E-03 0. -1.
         11    1    4    4    0    0 -0.26122574387E-01 -0.38017992527E-01  0.29644704408E-01  0.54834535366E-01  0.51100000000E-03 0.  1.
</event>
<event>
 8    1  0.1119901E+005  0.1043930E+01  0.7957747E-01            NaN
         13   -1    0    0    0    0  0.00000000000E+00  0.00000000000E+00  0.74505805969E-08  0.10566000000E+00  0.10566000000E+00 0. -1.
     999900   -1    0    0    0    0 -0.00000000000E+00 -0.00000000000E+00 -0.74505805969E-08  0.93827000000E+00  0.93827000000E+00 0.  1.
     999902    2    1    2    0    0 -0.23017687736E-01 -0.65697073464E-02 -0.56896201556E-02  0.10193262039E+01  0.10190292259E+01 0.  0.
     999903    2    3    3    0    0 -0.78246060653E-01  0.91530632130E-01 -0.47808880512E-01  0.13115511576E+00  0.20388053065E-01 0.  0.
         14    1    1    2    0    0  0.23017687736E-01  0.65697073464E-02  0.56896201556E-02  0.24603796065E-01  0.00000000000E+00 0.  1.
     999901    1    3    3    0    0  0.55228372918E-01 -0.98100339476E-01  0.42119260356E-01  0.88817108818E+00  0.88000000000E+00 0. -1.
        -11    1    4    4    0    0 -0.37184614102E-01  0.37854924920E-01 -0.31213742518E-01  0.61565003935E-01  0.51100000000E-03 0. -1.
         11    1    4    4    0    0 -0.41061446552E-01  0.53675707210E-01 -0.16595137994E-01  0.69590111823E-01  0.51100000000E-03 0.  1.
</event>
<event>
 8    1  0.1119901E+005  0.1043930E+01  0.7957747E-01            NaN
         13   -1    0    0    0    0  0.00000000000E+00  0.00000000000E+00  0.74505805969E-08  0.10566000000E+00  0.10566000000E+00 0.  1.
     999900   -1    0    0    0    0 -0.00000000000E+00 -0.00000000000E+00 -0.74505805969E-08  0.93827000000E+00  0.93827000000E+00 0.  1.
     999902    2    1    2    0    0  0.38063276028E-02  0.22679234390E-01  0.46124363356E-02  0.10204755682E+01  0.10202059963E+01 0.  0.
     999903    2    3    3    0    0  0.43458113005E-01 -0.10746588955E+00  0.52325246733E-01  0.12874324869E+00  0.19984184626E-01 0.  0.
         14    1    1    2    0    0 -0.38063276028E-02 -0.22679234390E-01 -0.46124363356E-02  0.23454431804E-01  0.00000000000E+00 0.  1.
     999901    1    3    3    0    0 -0.39651785403E-01  0.13014512394E+00 -0.47712810397E-01  0.89173231950E+00  0.88000000000E+00 0. -1.
        -11    1    4    4    0    0  0.20497649977E-01 -0.75187773560E-01  0.32403611913E-01  0.84401481820E-01  0.51100000000E-03 0.  1.
         11    1    4    4    0    0  0.22960463028E-01 -0.32278115991E-01  0.19921634820E-01  0.44341766872E-01  0.51100000000E-03 0. -1.
</event>
<event>
 8    1  0.1119901E+005  0.1043930E+01  0.7957747E-01            NaN
         13   -1    0    0    0    0  0.00000000000E+00  0.00000000000E+00  0.74505805969E-08  0.10566000000E+00  0.10566000000E+00 0.  1.
     999900   -1    0    0    0    0 -0.00000000000E+00 -0.00000000000E+00 -0.74505805969E-08  0.93827000000E+00  0.93827000000E+00 0.  1.
     999902    2    1    2    0    0  0.28806348685E-02  0.83347778675E-02 -0.23031773038E-01  0.10192676978E+01  0.10189692884E+01 0.  0.
     999903    2    3    3    0    0 -0.93017508095E-01  0.82363386596E-01 -0.35580577994E-01  0.13087917851E+00  0.20673596070E-01 0.  0.
         14    1    1    2    0    0 -0.28806348685E-02 -0.83347778675E-02  0.23031773038E-01  0.24662302176E-01  0.00000000000E+00 0.  1.
     999901    1    3    3    0    0  0.95898142964E-01 -0.74028608728E-01  0.12548804955E-01  0.88838851931E+00  0.88000000000E+00 0.  1.
        -11    1    4    4    0    0 -0.31800947704E-01  0.41394536849E-01 -0.12390399686E-01  0.53652503028E-01  0.51100000000E-03 0.  1.
         11    1    4    4    0    0 -0.61216560391E-01  0.40968849747E-01 -0.23190178308E-01  0.77226675486E-01  0.51100000000E-03 0. -1.
</event>
<event>
 8    1  0.1119901E+005  0.1043930E+01  0.7957747E-01            NaN
         13   -1    0    0    0    0  0.00000000000E+00  0.00000000000E+00  0.74505805969E-08  0.10566000000E+00  0.10566000000E+00 0. -1.
     999900   -1    0    0    0    0 -0.00000000000E+00 -0.00000000000E+00 -0.74505805969E-08  0.93827000000E+00  0.93827000000E+00 0.  1.
     999902    2    1    2    0    0 -0.11087219332E-01  0.19746908581E-01  0.62834018413E-02  0.10204279156E+01  0.10201572345E+01 0.  0.
     999903    2    3    3    0    0 -0.83146406639E-01  0.77427335665E-01 -0.65573538827E-01  0.13268753800E+00  0.19944335093E-01 0.  0.
         14    1    1    2    0    0  0.11087219332E-01 -0.19746908581E-01 -0.62834018413E-02  0.23502084370E-01  0.00000000000E+00 0.  1.
     999901    1    3    3    0    0  0.72059187307E-01 -0.57680427083E-01  0.71856940668E-01  0.88774037763E+00  0.88000000000E+00 0. -1.
        -11    1    4    4    0    0 -0.84942939384E-02  0.76423683850E-02 -0.14427771441E-01  0.18411424003E-01  0.51100000000E-03 0. -1.
         11    1    4    4    0    0 -0.74652112701E-01  0.69784967280E-01 -0.51145767385E-01  0.11427611400E+00  0.51100000000E-03 0.  1.
</event>
<event>
 8    1  0.1119901E+005  0.1043930E+01  0.7957747E-01            NaN
         13   -1    0    0    0    0  0.00000000000E+00  0.00000000000E+00  0.74505805969E-08  0.10566000000E+00  0.10566000000E+00 0.  1.
     999900   -1    0    0    0    0 -0.00000000000E+00 -0.00000000000E+00 -0.74505805969E-08  0.93827000000E+00  0.93827000000E+00 0. -1.
     999902    2    1    2    0    0  0.23300886613E-01 -0.69734877322E-02  0.44704164002E-02  0.10192005546E+01  0.10189004981E+01 0.  0.
     999903    2    3    3    0    0 -0.34527945259E-01  0.12054863008E+00  0.16095606538E-01  0.12805454557E+00  0.20365335065E-01 0.  0.
         14    1    1    2    0    0 -0.23300886613E-01  0.69734877322E-02 -0.44704164002E-02  0.24729445422E-01  0.00000000000E+00 0. -1.
     999901    1    3    3    0    0  0.57828831871E-01 -0.12752211782E+00 -0.11625190138E-01  0.89114600901E+00  0.88000000000E+00 0.  1.
        -11    1    4    4    0    0  0.11993501358E-03  0.31216982341E-01  0.41333765008E-02  0.31493813570E-01  0.51100000000E-03 0. -1.
         11    1    4    4    0    0 -0.34647880272E-01  0.89331647742E-01  0.11962230037E-01  0.96560731999E-01  0.51100000000E-03 0.  1.
</event>
<event>
 8    1  0.1119901E+005  0.1043930E+01  0.7957747E-01            NaN
         13   -1    0    0    0    0  0.00000000000E+00  0.00000000000E+00  0.74505805969E-08  0.10566000000E+00  0.10566000000E+00 0.  1.
     999900   -1    0    0    0    0 -0.00000000000E+00 -0.00000000000E+00 -0.74505805969E-08  0.93827000000E+00  0.93827000000E+00 0. -1.
     999902    2    1    2    0    0  0.15546886413E-01 -0.18814726077E-01 -0.62169918193E-02  0.10187436826E+01  0.10184322954E+01 0.  0.
     999903    2    3    3    0    0  0.14728406354E-01 -0.38703957898E-01  0.12051307458E+00  0.12944240570E+00  0.22737918493E-01 0.  0.
         14    1    1    2    0    0 -0.15546886413E-01  0.18814726077E-01  0.62169918193E-02  0.25186317352E-01  0.00000000000E+00 0. -1.
     999901    1    3    3    0    0  0.81848005871E-03  0.19889231821E-01 -0.12673006640E+00  0.88930127695E+00  0.88000000000E+00 0. -1.
        -11    1    4    4    0    0  0.15905227133E-01 -0.10636337291E-01  0.49818854900E-01  0.53369348372E-01  0.51100000000E-03 0.  1.
         11    1    4    4    0    0 -0.11768207794E-02 -0.28067620608E-01  0.70694219681E-01  0.76073057327E-01  0.51100000000E-03 0. -1.
</event>
<event>
 8    1  0.1119901E+005  0.1043930E+01  0.7957747E-01            NaN
         13   -1    0    0    0    0  0.00000000000E+00  0.00000000000E+00  0.74505805969E-08  0.10566000000E+00  0.10566000000E+00 0. -1.
     999900   -1    0    0    0    0 -0.00000000000E+00 -0.00000000000E+00 -0.74505805969E-08  0.93827000000E+00  0.93827000000E+00 0. -1.
     999902    2    1    2    0    0  0.12724941494E-01 -0.18309511176E-01  0.45814092936E-02  0.10211670554E+01  0.10209133183E+01 0.  0.
     999903    2    3    3    0    0 -0.98667107912E-01  0.74394171487E-01  0.31336135393E-01  0.12891262038E+00  0.19152529269E-01 0.  0.
         14    1    1    2    0    0 -0.12724941494E-01  0.18309511176E-01 -0.45814092936E-02  0.22762944595E-01  0.00000000000E+00 0.  1.
     999901    1    3    3    0    0  0.11139204941E+00 -0.92703682663E-01 -0.26754726100E-01  0.89225443502E+00  0.88000000000E+00 0. -1.
        -11    1    4    4    0    0 -0.52762857002E-01  0.39155603172E-01  0.68128114101E-02  0.66058730378E-01  0.51100000000E-03 0. -1.
         11    1    4    4    0    0 -0.45904250910E-01  0.35238568315E-01  0.24523323983E-01  0.62853890004E-01  0.51100000000E-03 0.  1.
</event>
<event>
 8    1  0.1119901E+005  0.1043930E+01  0.7957747E-01            NaN
         13   -1    0    0    0    0  0.00000000000E+00  0.00000000000E+00  0.74505805969E-08  0.10566000000E+00  0.10566000000E+00 0. -1.
     999900   -1    0    0    0    0 -0.00000000000E+00 -0.00000000000E+00 -0.74505805969E-08  0.93827000000E+00  0.93827000000E+00 0.  1.
     999902    2    1    2    0    0  0.11365039277E-01  0.13155589985E-01 -0.15872325325E-01  0.10203893038E+01  0.10201177221E+01 0.  0.
     999903    2    3    3    0    0  0.67947621059E-01 -0.43543814311E-01  0.98905410980E-01  0.12932794804E+00  0.20748369822E-01 0.  0.
         14    1    1    2    0    0 -0.11365039277E-01 -0.13155589985E-01  0.15872325325E-01  0.23540696185E-01  0.00000000000E+00 0. -1.
     999901    1    3    3    0    0 -0.56582581782E-01  0.56699404296E-01 -0.11477773630E+00  0.89106135578E+00  0.88000000000E+00 0.  1.
        -11    1    4    4    0    0  0.62208771499E-02  0.81673367483E-03  0.14096690719E-01  0.15438399419E-01  0.51100000000E-03 0.  1.
         11    1    4    4    0    0  0.61726743909E-01 -0.44360547986E-01  0.84808720261E-01  0.11388954862E+00  0.51100000000E-03 0. -1.
</event>
<event>
 8    1  0.1119901E+005  0.1043930E+01  0.7957747E-01            NaN
         13   -1    0    0    0    0  0.00000000000E+00  0.00000000000E+00  0.74505805969E-08  0.10566000000E+00  0.10566000000E+00 0.  1.
     999900   -1    0    0    0    0 -0.00000000000E+00 -0.00000000000E+00 -0.74505805969E-08  0.93827000000E+00  0.93827000000E+00 0.  1.
     999902    2    1    2    0    0 -0.70923028345E-02  0.17146080243E-01 -0.15017282510E-01  0.10200593569E+01  0.10197800175E+01 0.  0.
     999903    2    3    3    0    0  0.12533734131E+00  0.24798450301E-01 -0.15195790220E-01  0.13011767272E+00  0.19372259785E-01 0.  0.
         14    1    1    2    0    0  0.70923028345E-02 -0.17146080243E-01  0.15017282510E-01  0.23870643083E-01  0.00000000000E+00 0. -1.
     999901    1    3    3    0    0 -0.13242964414E+00 -0.76523700576E-02  0.17850770968E-03  0.88994168420E+00  0.88000000000E+00 0.  1.
        -11    1    4    4    0    0  0.72553370796E-01  0.22529104963E-01 -0.37996240758E-02  0.76067407268E-01  0.51100000000E-03 0. -1.
         11    1    4    4    0    0  0.52783970511E-01  0.22693453379E-02 -0.11396166144E-01  0.54050265447E-01  0.51100000000E-03 0.  1.
</event>
<event>
 8    1  0.1119901E+005  0.1043930E+01  0.7957747E-01            NaN
         13   -1    0    0    0    0  0.00000000000E+00  0.00000000000E+00  0.74505805969E-08  0.10566000000E+00  0.10566000000E+00 0. -1.
     999900   -1    0    0    0    0 -0.00000000000E+00 -0.00000000000E+00 -0.74505805969E-08  0.93827000000E+00  0.93827000000E+00 0.  1.
     999902    2    1    2    0    0  0.21969392381E-02 -0.11029467357E-01  0.20511200222E-01  0.10205380136E+01  0.10202698919E+01 0.  0.
     999903    2    3    3    0    0  0.97505281508E-01 -0.68367891115E-01  0.55526980899E-01  0.13284579227E+00  0.19578316056E-01 0.  0.
         14    1    1    2    0    0 -0.21969392381E-02  0.11029467357E-01 -0.20511200222E-01  0.23391986379E-01  0.00000000000E+00 0.  1.
     999901    1    3    3    0    0 -0.95308342270E-01  0.57338423758E-01 -0.35015780677E-01  0.88769222135E+00  0.88000000000E+00 0. -1.
        -11    1    4    4    0    0  0.82543648893E-01 -0.64831527207E-01  0.44969045372E-01  0.11418869057E+00  0.51100000000E-03 0.  1.
         11    1    4    4    0    0  0.14961632615E-01 -0.35363639078E-02  0.10557935527E-01  0.18657101698E-01  0.51100000000E-03 0. -1.
</event>
<event>
 8    1  0.1119901E+005  0.1043930E+01  0.7957747E-01            NaN
         13   -1    0    0    0    0  0.00000000000E+00  0.00000000000E+00  0.74505805969E-08  0.10566000000E+00  0.10566000000E+00 0. -1.
     999900   -1    0    0    0    0 -0.00000000000E+00 -0.00000000000E+00 -0.74505805969E-08  0.93827000000E+00  0.93827000000E+00 0. -1.
     999902    2    1    2    0    0  0.68676535145E-02 -0.13993831581E-01 -0.18732437425E-01  0.10195600144E+01  0.10192687215E+01 0.  0.
     999903    2    3    3    0    0 -0.10327334004E+00 -0.52685246433E-01  0.52788676139E-01  0.12897406472E+00  0.20163012872E-01 0.  0.
         14    1    1    2    0    0 -0.68676535145E-02  0.13993831581E-01  0.18732437425E-01  0.24369985618E-01  0.00000000000E+00 0. -1.
     999901    1    3    3    0    0  0.11014099355E+00  0.38691414852E-01 -0.71521113564E-01  0.89058594966E+00  0.88000000000E+00 0. -1.
        -11    1    4    4    0    0 -0.65113422575E-01 -0.25005062160E-01  0.38704882708E-01  0.79770545939E-01  0.51100000000E-03 0. -1.
         11    1    4    4    0    0 -0.38159917465E-01 -0.27680184273E-01  0.14083793431E-01  0.49203518784E-01  0.51100000000E-03 0.  1.
</event>
<event>
 8    1  0.1382574E+005  0.1043930E+01  0.7957747E-01            NaN
         13   -1    0    0    0    0  0.00000000000E+00  0.00000000000E+00  0.74505805969E-08  0.10566000000E+00  0.10566000000E+00 0. -1.
     999900   -1    0    0    0    0 -0.00000000000E+00 -0.00000000000E+00 -0.74505805969E-08  0.93827000000E+00  0.93827000000E+00 0.  1.
     999902    2    1    2    0    0  0.15999124728E-01  0.11317185095E-01  0.13509982723E-01  0.10201272627E+01  0.10198495290E+01 0.  0.
     999903    2    3    3    0    0 -0.95263957327E-01  0.59003235808E-01 -0.60514459238E-01  0.12876142821E+00  0.18997426570E-01 0.  0.
         14    1    1    2    0    0 -0.15999124728E-01 -0.11317185095E-01 -0.13509982723E-01  0.23802737316E-01  0.00000000000E+00 0. -1.
     999901    1    3    3    0    0  0.11126308206E+00 -0.47686050713E-01  0.74024441961E-01  0.89136583447E+00  0.88000000000E+00 0. -1.
        -11    1    4    4    0    0 -0.54691507986E-01  0.22869985840E-01 -0.33282252378E-01  0.67986518829E-01  0.51100000000E-03 0.  1.
         11    1    4    4    0    0 -0.40572449341E-01  0.36133249968E-01 -0.27232206860E-01  0.60774909381E-01  0.51100000000E-03 0. -1.
</event>
<event>
 8    1  0.1119901E+005  0.1043930E+01  0.7957747E-01            NaN
         13   -1    0    0    0    0  0.00000000000E+00  0.00000000000E+00  0.74505805969E-08  0.10566000000E+00  0.10566000000E+00 0.  1.
     999900   -1    0    0    0    0 -0.00000000000E+00 -0.00000000000E+00 -0.74505805969E-08  0.93827000000E+00  0.93827000000E+00 0.  1.
     999902    2    1    2    0    0 -0.27513801140E-02  0.26856752520E-01  0.20002566020E-02  0.10168586817E+01  0.10164982648E+01 0.  0.
     999903    2    3    3    0    0  0.24569067610E-01  0.12090991770E+00 -0.37524622143E-01  0.13054348901E+00  0.20264697713E-01 0.  0.
         14    1    1    2    0    0  0.27513801140E-02 -0.26856752520E-01 -0.20002566020E-02  0.27071318308E-01  0.00000000000E+00 0.  1.
     999901    1    3    3    0    0 -0.27320447724E-01 -0.94053165181E-01  0.39524878745E-01  0.88631519268E+00  0.88000000000E+00 0.  1.
        -11    1    4    4    0    0  0.22396100472E-01  0.11871289107E+00 -0.33354307152E-01  0.12532799667E+00  0.51100000000E-03 0.  1.
         11    1    4    4    0    0  0.21729671377E-02  0.21970266304E-02 -0.41703149901E-02  0.52154923366E-02  0.51100000000E-03 0. -1.
</event>
<event>
 8    1  0.1119901E+005  0.1043930E+01  0.7957747E-01            NaN
         13   -1    0    0    0    0  0.00000000000E+00  0.00000000000E+00  0.74505805969E-08  0.10566000000E+00  0.10566000000E+00 0.  1.
     999900   -1    0    0    0    0 -0.00000000000E+00 -0.00000000000E+00 -0.74505805969E-08  0.93827000000E+00  0.93827000000E+00 0.  1.
     999902    2    1    2    0    0  0.80409050036E-02 -0.21709189157E-01  0.64300484560E-02  0.10199031282E+01  0.10196200764E+01 0.  0.
     999903    2    3    3    0    0  0.11258577130E+00 -0.14153093669E-01 -0.62526284864E-01  0.13100397778E+00  0.19407213463E-01 0.  0.
         14    1    1    2    0    0 -0.80409050036E-02  0.21709189157E-01 -0.64300484560E-02  0.24026871837E-01  0.00000000000E+00 0. -1.
     999901    1    3    3    0    0 -0.10454486630E+00 -0.75560954881E-02  0.68956333320E-01  0.88889915038E+00  0.88000000000E+00 0. -1.
        -11    1    4    4    0    0  0.17021572116E-01 -0.74388430009E-02 -0.49448540685E-02  0.19229742724E-01  0.51100000000E-03 0. -1.
         11    1    4    4    0    0  0.95564199188E-01 -0.67142506684E-02 -0.57581430795E-01  0.11177423505E+00  0.51100000000E-03 0.  1.
</event>
<event>
 8    1  0.1119901E+005  0.1043930E+01  0.7957747E-01            NaN
         13   -1    0    0    0    0  0.00000000000E+00  0.00000000000E+00  0.74505805969E-08  0.10566000000E+00  0.10566000000E+00 0. -1.
     999900   -1    0    0    0    0 -0.00000000000E+00 -0.00000000000E+00 -0.74505805969E-08  0.93827000000E+00  0.93827000000E+00 0. -1.
     999902    2    1    2    0    0  0.14189301915E-01 -0.18783193033E-01 -0.49789882375E-02  0.10198689328E+01  0.10195850652E+01 0.  0.
     999903    2    3    3    0    0  0.54270410243E-01  0.18625467096E-02  0.11697917911E+00  0.13031481059E+00  0.18683549086E-01 0.  0.
         14    1    1    2    0    0 -0.14189301915E-01  0.18783193033E-01  0.49789882375E-02  0.24061067167E-01  0.00000000000E+00 0.  1.
     999901    1    3    3    0    0 -0.40081108328E-01 -0.20645739743E-01 -0.12195816735E+00  0.88955412224E+00  0.88000000000E+00 0.  1.
        -11    1    4    4    0    0  0.17233739021E-01 -0.72865420266E-02  0.30378769012E-01  0.35682295092E-01  0.51100000000E-03 0.  1.
         11    1    4    4    0    0  0.37036671223E-01  0.91490887362E-02  0.86600410096E-01  0.94632515500E-01  0.51100000000E-03 0. -1.
</event>
<event>
 8    1  0.1119901E+005  0.1043930E+01  0.7957747E-01            NaN
         13   -1    0    0    0    0  0.00000000000E+00  0.00000000000E+00  0.74505805969E-08  0.10566000000E+00  0.10566000000E+00 0.  1.
     999900   -1    0    0    0    0 -0.00000000000E+00 -0.00000000000E+00 -0.74505805969E-08  0.93827000000E+00  0.93827000000E+00 0.  1.
     999902    2    1    2    0    0  0.19931597193E-01 -0.11346081921E-01  0.33026225307E-02  0.10207586932E+01  0.10204956641E+01 0.  0.
     999903    2    3    3    0    0  0.12001157804E+00 -0.54526713099E-01 -0.12174493322E-01  0.13389900276E+00  0.20119228323E-01 0.  0.
         14    1    1    2    0    0 -0.19931597193E-01  0.11346081921E-01 -0.33026225307E-02  0.23171306765E-01  0.00000000000E+00 0. -1.
     999901    1    3    3    0    0 -0.10007998084E+00  0.43180631177E-01  0.15477115853E-01  0.88685969048E+00  0.88000000000E+00 0. -1.
        -11    1    4    4    0    0  0.14415369664E-01 -0.14033094221E-01 -0.39216945859E-02  0.20502961381E-01  0.51100000000E-03 0.  1.
         11    1    4    4    0    0  0.10559620837E+00 -0.40493618877E-01 -0.82527987363E-02  0.11339604138E+00  0.51100000000E-03 0. -1.
</event>
<event>
 8    1  0.1119901E+005  0.1043930E+01  0.7957747E-01            NaN
         13   -1    0    0    0    0  0.00000000000E+00  0.00000000000E+00  0.74505805969E-08  0.10566000000E+00  0.10566000000E+00 0.  1.
     999900   -1    0    0    0    0 -0.00000000000E+00 -0.00000000000E+00 -0.74505805969E-08  0.93827000000E+00  0.93827000000E+00 0. -1.
     999902    2    1    2    0    0 -0.19181496883E-01 -0.13117182392E-01 -0.38968626101E-02  0.10203678304E+01  0.10200957472E+01 0.  0.
     999903    2    3    3    0    0  0.11859720677E-01 -0.12135528007E+00  0.45851977491E-01  0.13179932431E+00  0.20022514169E-01 0.  0.
         14    1    1    2    0    0  0.19181496883E-01  0.13117182392E-01  0.38968626101E-02  0.23562169569E-01  0.00000000000E+00 0.  1.
     999901    1    3    3    0    0 -0.31041217560E-01  0.10823809768E+00 -0.49748840101E-01  0.88856850612E+00  0.88000000000E+00 0. -1.
        -11    1    4    4    0    0  0.50613097273E-02 -0.69333770022E-01  0.36453573637E-01  0.78497851394E-01  0.51100000000E-03 0. -1.
         11    1    4    4    0    0  0.67984109494E-02 -0.52021510048E-01  0.93984038543E-02  0.53301472917E-01  0.51100000000E-03 0.  1.
</event>
<event>
 8    1  0.1119901E+005  0.1043930E+01  0.7957747E-01            NaN
         13   -1    0    0    0    0  0.00000000000E+00  0.00000000000E+00  0.74505805969E-08  0.10566000000E+00  0.10566000000E+00 0.  1.
     999900   -1    0    0    0    0 -0.00000000000E+00 -0.00000000000E+00 -0.74505805969E-08  0.93827000000E+00  0.93827000000E+00 0.  1.
     999902    2    1    2    0    0 -0.78106143689E-02 -0.23089649987E-01  0.22808017854E-02  0.10194485848E+01  0.10191545895E+01 0.  0.
     999903    2    3    3    0    0 -0.85958588208E-01  0.43728179934E-01 -0.83709790078E-01  0.12929909730E+00  0.20245863785E-01 0.  0.
         14    1    1    2    0    0  0.78106143689E-02  0.23089649987E-01 -0.22808017854E-02  0.24481415199E-01  0.00000000000E+00 0. -1.
     999901    1    3    3    0    0  0.78147973839E-01 -0.66817829921E-01  0.85990591864E-01  0.89014948750E+00  0.88000000000E+00 0.  1.
        -11    1    4    4    0    0 -0.64274999870E-01  0.22426978888E-01 -0.55652484157E-01  0.87930114888E-01  0.51100000000E-03 0.  1.
         11    1    4    4    0    0 -0.21683588338E-01  0.21301201046E-01 -0.28057305921E-01  0.41368982412E-01  0.51100000000E-03 0. -1.
</event>
<event>
 8    1  0.1119901E+005  0.1043930E+01  0.7957747E-01            NaN
         13   -1    0    0    0    0  0.00000000000E+00  0.00000000000E+00  0.74505805969E-08  0.10566000000E+00  0.10566000000E+00 0.  1.
     999900   -1    0    0    0    0 -0.00000000000E+00 -0.00000000000E+00 -0.74505805969E-08  0.93827000000E+00  0.93827000000E+00 0.  1.
     999902    2    1    2    0    0  0.77352024078E-02  0.21174858367E-01  0.69570365201E-02  0.10203374516E+01  0.10200646581E+01 0.  0.
     999903    2    3    3    0    0  0.97538836236E-01  0.62799820280E-02  0.86473163416E-01  0.13207546072E+00  0.20323793580E-01 0.  0.
         14    1    1    2    0    0 -0.77352024078E-02 -0.21174858367E-01 -0.69570365201E-02  0.23592548406E-01  0.00000000000E+00 0. -1.
     999901    1    3    3    0    0 -0.89803633828E-01  0.14894876339E-01 -0.79516126896E-01  0.88826199087E+00  0.88000000000E+00 0.  1.
        -11    1    4    4    0    0  0.93690794514E-01  0.42062835822E-02  0.75996651523E-01  0.12071209534E+00  0.51100000000E-03 0. -1.
         11    1    4    4    0    0  0.38480417226E-02  0.20736984458E-02  0.10476511892E-01  0.11363365381E-01  0.51100000000E-03 0.  1.
</event>
<event>
 8    1  0.1119901E+005  0.1043930E+01  0.7957747E-01            NaN
         13   -1    0    0    0    0  0.00000000000E+00  0.00000000000E+00  0.74505805969E-08  0.10566000000E+00  0.10566000000E+00 0. -1.
     999900   -1    0    0    0    0 -0.00000000000E+00 -0.00000000000E+00 -0.74505805969E-08  0.93827000000E+00  0.93827000000E+00 0. -1.
     999902    2    1    2    0    0  0.39068229048E-02  0.19494233738E-01  0.13374043067E-01  0.10199685008E+01  0.10196870055E+01 0.  0.
     999903    2    3    3    0    0 -0.59457065831E-01 -0.11122816860E+00 -0.76643333724E-02  0.12781047551E+00  0.19233498826E-01 0.  0.
         14    1    1    2    0    0 -0.39068229048E-02 -0.19494233738E-01 -0.13374043067E-01  0.23961499164E-01  0.00000000000E+00 0.  1.
     999901    1    3    3    0    0  0.63363888736E-01  0.13072240234E+00  0.21038376439E-01  0.89215802532E+00  0.88000000000E+00 0.  1.
        -11    1    4    4    0    0 -0.31004379183E-01 -0.55589388583E-01 -0.13419020931E-01  0.65052155194E-01  0.51100000000E-03 0. -1.
         11    1    4    4    0    0 -0.28452686649E-01 -0.55638780016E-01  0.57546875583E-02  0.62758320317E-01  0.51100000000E-03 0.  1.
</event>
<event>
 8    1  0.1119901E+005  0.1043930E+01  0.7957747E-01            NaN
         13   -1    0    0    0    0  0.00000000000E+00  0.00000000000E+00  0.74505805969E-08  0.10566000000E+00  0.10566000000E+00 0. -1.
     999900   -1    0    0    0    0 -0.00000000000E+00 -0.00000000000E+00 -0.74505805969E-08  0.93827000000E+00  0.93827000000E+00 0.  1.
     999902    2    1    2    0    0  0.11639206684E-01  0.77736563500E-02  0.19008895094E-01  0.10203240906E+01  0.10200509845E+01 0.  0.
     999903    2    3    3    0    0  0.12779888330E+00  0.24736091642E-01  0.13870702766E-01  0.13251375293E+00  0.20568653730E-01 0.  0.
         14    1    1    2    0    0 -0.11639206684E-01 -0.77736563500E-02 -0.19008895094E-01  0.23605909387E-01  0.00000000000E+00 0.  1.
     999901    1    3    3    0    0 -0.11615967662E+00 -0.16962435292E-01  0.51381923282E-02  0.88781033769E+00  0.88000000000E+00 0.  1.
        -11    1    4    4    0    0  0.11982095192E+00  0.27628082461E-01  0.15226136483E-01  0.12390507581E+00  0.51100000000E-03 0. -1.
         11    1    4    4    0    0  0.79779313841E-02 -0.28919908193E-02 -0.13554337173E-02  0.86086771127E-02  0.51100000000E-03 0.  1.
</event>
<event>
 8    1  0.1119901E+005  0.1043930E+01  0.7957747E-01            NaN
         13   -1    0    0    0    0  0.00000000000E+00  0.00000000000E+00  0.74505805969E-08  0.10566000000E+00  0.10566000000E+00 0.  1.
     999900   -1    0    0    0    0 -0.00000000000E+00 -0.00000000000E+00 -0.74505805969E-08  0.93827000000E+00  0.93827000000E+00 0.  1.
     999902    2    1    2    0    0  0.82249004758E-02  0.21216147914E-01  0.60125010314E-02  0.10203944080E+01  0.10201229455E+01 0.  0.
     999903    2    3    3    0    0  0.11911224419E+00  0.31341589859E-02 -0.51567792678E-01  0.13138459283E+00  0.20127700383E-01 0.  0.
         14    1    1    2    0    0 -0.82249004758E-02 -0.21216147914E-01 -0.60125010314E-02  0.23535591957E-01  0.00000000000E+00 0.  1.
     999901    1    3    3    0    0 -0.11088734372E+00  0.18081988928E-01  0.57580293709E-01  0.88900981521E+00  0.88000000000E+00 0.  1.
        -11    1    4    4    0    0  0.37196952579E-01  0.97165349255E-02 -0.12842136024E-01  0.40536476300E-01  0.51100000000E-03 0. -1.
         11    1    4    4    0    0  0.81915291612E-01 -0.65823759396E-02 -0.38725656654E-01  0.90848116531E-01  0.51100000000E-03 0.  1.
</event>
<event>
 8    1  0.1119901E+005  0.1043930E+01  0.7957747E-01            NaN
         13   -1    0    0    0    0  0.00000000000E+00  0.00000000000E+00  0.74505805969E-08  0.10566000000E+00  0.10566000000E+00 0.  1.
     999900   -1    0    0    0    0 -0.00000000000E+00 -0.00000000000E+00 -0.74505805969E-08  0.93827000000E+00  0.93827000000E+00 0. -1.
     999902    2    1    2    0    0  0.17321999411E-01 -0.68770191136E-02  0.14738480146E-01  0.10201693634E+01  0.10198926228E+01 0.  0.
     999903    2    3    3    0    0 -0.37427777742E-01 -0.12175810965E+00 -0.19179406978E-01  0.13036847210E+00  0.20055249984E-01 0.  0.
         14    1    1    2    0    0 -0.17321999411E-01  0.68770191136E-02 -0.14738480146E-01  0.23760636618E-01  0.00000000000E+00 0. -1.
     999901    1    3    3    0    0  0.54749777152E-01  0.11488109054E+00  0.33917887124E-01  0.88980089128E+00  0.88000000000E+00 0. -1.
        -11    1    4    4    0    0 -0.28546589781E-01 -0.10846793395E+00 -0.11884215148E-01  0.11279049683E+00  0.51100000000E-03 0.  1.
         11    1    4    4    0    0 -0.88811879602E-02 -0.13290175703E-01 -0.72951918298E-02  0.17577975271E-01  0.51100000000E-03 0. -1.
</event>
<event>
 8    1  0.1119901E+005  0.1043930E+01  0.7957747E-01            NaN
         13   -1    0    0    0    0  0.00000000000E+00  0.00000000000E+00  0.74505805969E-08  0.10566000000E+00  0.10566000000E+00 0.  1.
     999900   -1    0    0    0    0 -0.00000000000E+00 -0.00000000000E+00 -0.74505805969E-08  0.93827000000E+00  0.93827000000E+00 0.  1.
     999902    2    1    2    0    0  0.15068820615E-01 -0.15744142790E-01  0.94522200539E-02  0.10201751721E+01  0.10198985684E+01 0.  0.
     999903    2    3    3    0    0  0.63361316729E-01  0.55226278110E-01 -0.96626458455E-01  0.12965754064E+00  0.20243693325E-01 0.  0.
         14    1    1    2    0    0 -0.15068820615E-01  0.15744142790E-01 -0.94522200539E-02  0.23754827948E-01  0.00000000000E+00 0.  1.
     999901    1    3    3    0    0 -0.48292496114E-01 -0.70970420900E-01  0.10607867851E+00  0.89051763141E+00  0.88000000000E+00 0. -1.
        -11    1    4    4    0    0  0.60777391142E-01  0.50479331080E-01 -0.81161445197E-01  0.11326736268E+00  0.51100000000E-03 0. -1.
         11    1    4    4    0    0  0.25839255866E-02  0.47469470300E-02 -0.15465013258E-01  0.16390177962E-01  0.51100000000E-03 0.  1.
</event>
<event>
 8    1  0.1119901E+005  0.1043930E+01  0.7957747E-01            NaN
         13   -1    0    0    0    0  0.00000000000E+00  0.00000000000E+00  0.74505805969E-08  0.10566000000E+00  0.10566000000E+00 0.  1.
     999900   -1    0    0    0    0 -0.00000000000E+00 -0.00000000000E+00 -0.74505805969E-08  0.93827000000E+00  0.93827000000E+00 0. -1.
     999902    2    1    2    0    0  0.12939972652E-01  0.94074985361E-02  0.18197762310E-01  0.10196998024E+01  0.10194118817E+01 0.  0.
     999903    2    3    3    0    0 -0.50358550223E-01 -0.97708026786E-01 -0.61324035647E-01  0.12739707627E+00  0.19660509056E-01 0.  0.
         14    1    1    2    0    0 -0.12939972652E-01 -0.94074985361E-02 -0.18197762310E-01  0.24230197565E-01  0.00000000000E+00 0. -1.
     999901    1    3    3    0    0  0.63298522876E-01  0.10711552532E+00  0.79521797956E-01  0.89230272616E+00  0.88000000000E+00 0.  1.
        -11    1    4    4    0    0 -0.40638512088E-01 -0.67833541558E-01 -0.51925996996E-01  0.94601523825E-01  0.51100000000E-03 0. -1.
         11    1    4    4    0    0 -0.97200381350E-02 -0.29874485228E-01 -0.93980386508E-02  0.32795552449E-01  0.51100000000E-03 0.  1.
</event>
<event>
 8    1  0.1119901E+005  0.1043930E+01  0.7957747E-01            NaN
         13   -1    0    0    0    0  0.00000000000E+00  0.00000000000E+00  0.74505805969E-08  0.10566000000E+00  0.10566000000E+00 0.  1.
     999900   -1    0    0    0    0 -0.00000000000E+00 -0.00000000000E+00 -0.74505805969E-08  0.93827000000E+00  0.93827000000E+00 0. -1.
     999902    2    1    2    0    0  0.17628782166E-01  0.71782358915E-02 -0.11930180610E-01  0.10214660235E+01  0.10212189809E+01 0.  0.
     999903    2    3    3    0    0  0.88057739802E-01 -0.83536544232E-01  0.47578808425E-01  0.13201072434E+00  0.20750146247E-01 0.  0.
         14    1    1    2    0    0 -0.17628782166E-01 -0.71782358915E-02  0.11930180610E-01  0.22463976508E-01  0.00000000000E+00 0.  1.
     999901    1    3    3    0    0 -0.70428957636E-01  0.90714780124E-01 -0.59508989035E-01  0.88945529915E+00  0.88000000000E+00 0.  1.
        -11    1    4    4    0    0  0.73665330613E-01 -0.78928691712E-01  0.42980727608E-01  0.11620638268E+00  0.51100000000E-03 0.  1.
         11    1    4    4    0    0  0.14392409189E-01 -0.46078525207E-02  0.45980808170E-02  0.15804341660E-01  0.51100000000E-03 0. -1.
</event>
<event>
 8    1  0.1119901E+005  0.1043930E+01  0.7957747E-01            NaN
         13   -1    0    0    0    0  0.00000000000E+00  0.00000000000E+00  0.74505805969E-08  0.10566000000E+00  0.10566000000E+00 0. -1.
     999900   -1    0    0    0    0 -0.00000000000E+00 -0.00000000000E+00 -0.74505805969E-08  0.93827000000E+00  0.93827000000E+00 0. -1.
     999902    2    1    2    0    0  0.14834623875E-01 -0.62853505983E-02 -0.18527078856E-01  0.10193775185E+01  0.10190817930E+01 0.  0.
     999903    2    3    3    0    0 -0.39363842759E-01 -0.12021178569E+00 -0.22053330219E-01  0.13037293984E+00  0.22591337554E-01 0.  0.
         14    1    1    2    0    0 -0.14834623875E-01  0.62853505983E-02  0.18527078856E-01  0.24552481516E-01  0.00000000000E+00 0. -1.
     999901    1    3    3    0    0  0.54198466634E-01  0.11392643510E+00  0.35262513632E-02  0.88900457864E+00  0.88000000000E+00 0.  1.
        -11    1    4    4    0    0 -0.17015687712E-02 -0.38000184595E-01 -0.54007833002E-02  0.38423156387E-01  0.51100000000E-03 0. -1.
         11    1    4    4    0    0 -0.37662273988E-01 -0.82211601100E-01 -0.16652546919E-01  0.91949783454E-01  0.51100000000E-03 0.  1.
</event>
<event>
 8    1  0.1119901E+005  0.1043930E+01  0.7957747E-01            NaN
         13   -1    0    0    0    0  0.00000000000E+00  0.00000000000E+00  0.74505805969E-08  0.10566000000E+00  0.10566000000E+00 0. -1.
     999900   -1    0    0    0    0 -0.00000000000E+00 -0.00000000000E+00 -0.74505805969E-08  0.93827000000E+00  0.93827000000E+00 0. -1.
     999902    2    1    2    0    0 -0.14742983113E-01  0.18715718022E-01  0.39107176154E-02  0.10197861112E+01  0.10195002625E+01 0.  0.
     999903    2    3    3    0    0 -0.11383948175E-02 -0.12565260336E+00 -0.11664391916E-01  0.12778281468E+00  0.20062826718E-01 0.  0.
         14    1    1    2    0    0  0.14742983113E-01 -0.18715718022E-01 -0.39107176154E-02  0.24143888759E-01  0.00000000000E+00 0.  1.
     999901    1    3    3    0    0 -0.13604588295E-01  0.14436832138E+00  0.15575109531E-01  0.89200329656E+00  0.88000000000E+00 0.  1.
        -11    1    4    4    0    0 -0.69575326537E-02 -0.23419445624E-01 -0.63354250252E-02  0.25244334517E-01  0.51100000000E-03 0. -1.
         11    1    4    4    0    0  0.58191378362E-02 -0.10223315773E+00 -0.53289668908E-02  0.10253848016E+00  0.51100000000E-03 0.  1.
</event>
<event>
 8    1  0.1119901E+005  0.1043930E+01  0.7957747E-01            NaN
         13   -1    0    0    0    0  0.00000000000E+00  0.00000000000E+00  0.74505805969E-08  0.10566000000E+00  0.10566000000E+00 0. -1.
     999900   -1    0    0    0    0 -0.00000000000E+00 -0.00000000000E+00 -0.74505805969E-08  0.93827000000E+00  0.93827000000E+00 0.  1.
     999902    2    1    2    0    0  0.27227026664E-01 -0.12501970713E-01 -0.10489521507E-01  0.10121866493E+01  0.10116887726E+01 0.  0.
     999903    2    3    3    0    0 -0.68848363677E-01 -0.96386083137E-01  0.24433354692E-01  0.12230652690E+00  0.18207786728E-01 0.  0.
         14    1    1    2    0    0 -0.27227026664E-01  0.12501970713E-01  0.10489521507E-01  0.31743350707E-01  0.00000000000E+00 0.  1.
     999901    1    3    3    0    0  0.96075390341E-01  0.83884112424E-01 -0.34922876199E-01  0.88988012239E+00  0.88000000000E+00 0.  1.
        -11    1    4    4    0    0 -0.26728066554E-01 -0.28485074751E-01  0.15001364122E-01  0.41846040097E-01  0.51100000000E-03 0. -1.
         11    1    4    4    0    0 -0.42120297123E-01 -0.67901008386E-01  0.94319905699E-02  0.80460486804E-01  0.51100000000E-03 0.  1.
</event>
<event>
 7    1  0.1119901E+005  0.1043930E+01  0.7957747E-01            NaN
         13   -1    0    0    0    0  0.00000000000E+00  0.00000000000E+00  0.74505805969E-08  0.10566000000E+00  0.10566000000E+00 0.  1.
     999900   -1    0    0    0    0 -0.00000000000E+00 -0.00000000000E+00 -0.74505805969E-08  0.93827000000E+00  0.93827000000E+00 0. -1.
     999903    2    1    2    0    0 -0.80558460665E-01  0.55187989379E-01 -0.60747017468E-01  0.11676857772E+00  0.20231679482E-01 0.  0.
         14    1    1    2    0    0  0.12463241440E-01 -0.27571408943E-01  0.31407801354E-01  0.43611523296E-01  0.00000000000E+00 0.  1.
     999901    1    1    2    0    0  0.68095219224E-01 -0.27616580436E-01  0.29339216115E-01  0.88354989899E+00  0.88000000000E+00 0.  1.
        -11    1    3    3    0    0 -0.14281517230E-01  0.15430293939E-01 -0.21537408673E-01  0.30102770616E-01  0.51100000000E-03 0.  1.
         11    1    3    3    0    0 -0.66276943435E-01  0.39757695440E-01 -0.39209608796E-01  0.86665807102E-01  0.51100000000E-03 0. -1.
</event>
<event>
 8    1  0.1119901E+005  0.1043930E+01  0.7957747E-01            NaN
         13   -1    0    0    0    0  0.00000000000E+00  0.00000000000E+00  0.74505805969E-08  0.10566000000E+00  0.10566000000E+00 0.  1.
     999900   -1    0    0    0    0 -0.00000000000E+00 -0.00000000000E+00 -0.74505805969E-08  0.93827000000E+00  0.93827000000E+00 0.  1.
     999902    2    1    2    0    0  0.15167256523E-01  0.16940249970E-01  0.87853731662E-02  0.10195537714E+01  0.10192623275E+01 0.  0.
     999903    2    3    3    0    0  0.15592921835E-01  0.72661507466E-01  0.10750147134E+00  0.13228272613E+00  0.20477290170E-01 0.  0.
         14    1    1    2    0    0 -0.15167256523E-01 -0.16940249970E-01 -0.87853731662E-02  0.24376228608E-01  0.00000000000E+00 0. -1.
     999901    1    3    3    0    0 -0.42566531138E-03 -0.55721257495E-01 -0.98716098173E-01  0.88727104527E+00  0.88000000000E+00 0.  1.
        -11    1    4    4    0    0  0.52326050214E-02  0.54099978921E-01  0.64786284059E-01  0.84567792910E-01  0.51100000000E-03 0. -1.
         11    1    4    4    0    0  0.10360316813E-01  0.18561528545E-01  0.42715187280E-01  0.47714933216E-01  0.51100000000E-03 0.  1.
</event>
<event>
 8    1  0.1119901E+005  0.1043930E+01  0.7957747E-01            NaN
         13   -1    0    0    0    0  0.00000000000E+00  0.00000000000E+00  0.74505805969E-08  0.10566000000E+00  0.10566000000E+00 0. -1.
     999900   -1    0    0    0    0 -0.00000000000E+00 -0.00000000000E+00 -0.74505805969E-08  0.93827000000E+00  0.93827000000E+00 0. -1.
     999902    2    1    2    0    0  0.32919365207E-02  0.42371220097E-02 -0.22809425837E-01  0.10204979716E+01  0.10202289204E+01 0.  0.
     999903    2    3    3    0    0 -0.25679905352E-01 -0.77623299209E-01  0.96702483131E-01  0.12818435375E+00  0.19875215281E-01 0.  0.
         14    1    1    2    0    0 -0.32919365207E-02 -0.42371220097E-02  0.22809425837E-01  0.23432028422E-01  0.00000000000E+00 0. -1.
     999901    1    3    3    0    0  0.28971841873E-01  0.81860421219E-01 -0.11951190897E+00  0.89231361783E+00  0.88000000000E+00 0. -1.
        -11    1    4    4    0    0 -0.33889381920E-02 -0.28099766007E-01  0.22136002730E-01  0.35935295874E-01  0.51100000000E-03 0. -1.
         11    1    4    4    0    0 -0.22290967160E-01 -0.49523533203E-01  0.74566480401E-01  0.92249057871E-01  0.51100000000E-03 0.  1.
</event>
<event>
 8    1  0.1119901E+005  0.1043930E+01  0.7957747E-01            NaN
         13   -1    0    0    0    0  0.00000000000E+00  0.00000000000E+00  0.74505805969E-08  0.10566000000E+00  0.10566000000E+00 0.  1.
     999900   -1    0    0    0    0 -0.00000000000E+00 -0.00000000000E+00 -0.74505805969E-08  0.93827000000E+00  0.93827000000E+00 0. -1.
     999902    2    1    2    0    0 -0.35064605121E-02  0.38491734102E-02 -0.18942586793E-01  0.10242848226E+01  0.10240964138E+01 0.  0.
     999903    2    3    3    0    0  0.57222100437E-01 -0.86630912549E-01  0.79218879237E-01  0.13214678535E+00  0.20195501054E-01 0.  0.
         14    1    1    2    0    0  0.35064605121E-02 -0.38491734102E-02  0.18942586793E-01  0.19645177415E-01  0.00000000000E+00 0.  1.
     999901    1    3    3    0    0 -0.60728560949E-01  0.90480085959E-01 -0.98161466031E-01  0.89213803724E+00  0.88000000000E+00 0. -1.
        -11    1    4    4    0    0  0.15659504986E-01 -0.13584157801E-01  0.23339403155E-01  0.31220799160E-01  0.51100000000E-03 0.  1.
         11    1    4    4    0    0  0.41562595451E-01 -0.73046754748E-01  0.55879476083E-01  0.10092598619E+00  0.51100000000E-03 0. -1.
</event>
<event>
 8    1  0.1119901E+005  0.1043930E+01  0.7957747E-01            NaN
         13   -1    0    0    0    0  0.00000000000E+00  0.00000000000E+00  0.74505805969E-08  0.10566000000E+00  0.10566000000E+00 0. -1.
     999900   -1    0    0    0    0 -0.00000000000E+00 -0.00000000000E+00 -0.74505805969E-08  0.93827000000E+00  0.93827000000E+00 0. -1.
     999902    2    1    2    0    0 -0.58040333035E-02  0.14616093524E-01  0.17391354295E-01  0.10204826932E+01  0.10202132870E+01 0.  0.
     999903    2    3    3    0    0 -0.33895356010E-01  0.10061283605E+00 -0.74562203197E-01  0.13107838756E+00  0.18713193278E-01 0.  0.
         14    1    1    2    0    0  0.58040333035E-02 -0.14616093524E-01 -0.17391354295E-01  0.23447306812E-01  0.00000000000E+00 0. -1.
     999901    1    3    3    0    0  0.28091322706E-01 -0.85996742525E-01  0.91953557492E-01  0.88940430563E+00  0.88000000000E+00 0.  1.
        -11    1    4    4    0    0 -0.10398397986E-01  0.43880280554E-01 -0.21682143477E-01  0.50039805844E-01  0.51100000000E-03 0.  1.
         11    1    4    4    0    0 -0.23496958024E-01  0.56732555495E-01 -0.52880059720E-01  0.81038581715E-01  0.51100000000E-03 0. -1.
</event>
<event>
 8    1  0.1119901E+005  0.1043930E+01  0.7957747E-01            NaN
         13   -1    0    0    0    0  0.00000000000E+00  0.00000000000E+00  0.74505805969E-08  0.10566000000E+00  0.10566000000E+00 0. -1.
     999900   -1    0    0    0    0 -0.00000000000E+00 -0.00000000000E+00 -0.74505805969E-08  0.93827000000E+00  0.93827000000E+00 0. -1.
     999902    2    1    2    0    0  0.15996848652E-01 -0.12372002800E-01  0.12897356482E-01  0.10199444330E+01  0.10196623652E+01 0.  0.
     999903    2    3    3    0    0 -0.48133047759E-01  0.10244462474E-01  0.11968318465E+00  0.13088461431E+00  0.19620863287E-01 0.  0.
         14    1    1    2    0    0 -0.15996848652E-01  0.12372002800E-01 -0.12897356482E-01  0.23985567000E-01  0.00000000000E+00 0.  1.
     999901    1    3    3    0    0  0.64129896411E-01 -0.22616465274E-01 -0.10678582817E+00  0.88905981869E+00  0.88000000000E+00 0. -1.
        -11    1    4    4    0    0 -0.45469336015E-01  0.49816552868E-02  0.94157553085E-01  0.10468134185E+00  0.51100000000E-03 0.  1.
         11    1    4    4    0    0 -0.26637117444E-02  0.52628071872E-02  0.25525631567E-01  0.26203272461E-01  0.51100000000E-03 0. -1.
</event>
<event>
 8    1  0.1119901E+005  0.1043930E+01  0.7957747E-01            NaN
         13   -1    0    0    0    0  0.00000000000E+00  0.00000000000E+00  0.74505805969E-08  0.10566000000E+00  0.10566000000E+00 0. -1.
     999900   -1    0    0    0    0 -0.00000000000E+00 -0.00000000000E+00 -0.74505805969E-08  0.93827000000E+00  0.93827000000E+00 0.  1.
     999902    2    1    2    0    0 -0.11799146036E-01  0.20863859460E-01  0.77739766772E-02  0.10187316828E+01  0.10184199950E+01 0.  0.
     999903    2    3    3    0    0  0.38927106556E-01 -0.89180532089E-01  0.79833891942E-01  0.12751030049E+00  0.20419096451E-01 0.  0.
         14    1    1    2    0    0  0.11799146036E-01 -0.20863859460E-01 -0.77739766772E-02  0.25198317248E-01  0.00000000000E+00 0. -1.
     999901    1    3    3    0    0 -0.50726252592E-01  0.11004439155E+00 -0.72059915265E-01  0.89122138226E+00  0.88000000000E+00 0. -1.
        -11    1    4    4    0    0  0.23325526461E-02 -0.24580925469E-01  0.14682021364E-01  0.28731264697E-01  0.51100000000E-03 0. -1.
         11    1    4    4    0    0  0.36594553910E-01 -0.64599606620E-01  0.65151870578E-01  0.98779035793E-01  0.51100000000E-03 0.  1.
</event>
<event>
 8    1  0.1119901E+005  0.1043930E+01  0.7957747E-01            NaN
         13   -1    0    0    0    0  0.00000000000E+00  0.00000000000E+00  0.74505805969E-08  0.10566000000E+00  0.10566000000E+00 0. -1.
     999900   -1    0    0    0    0 -0.00000000000E+00 -0.00000000000E+00 -0.74505805969E-08  0.93827000000E+00  0.93827000000E+00 0. -1.
     999902    2    1    2    0    0 -0.92722140727E-02 -0.90449242445E-02  0.20492925440E-01  0.10196865555E+01  0.10193983161E+01 0.  0.
     999903    2    3    3    0    0  0.74461775966E-01  0.80149559994E-01 -0.61791894670E-01  0.12742099596E+00  0.21198205540E-01 0.  0.
         14    1    1    2    0    0  0.92722140727E-02  0.90449242445E-02 -0.20492925440E-01  0.24243444505E-01  0.00000000000E+00 0.  1.
     999901    1    3    3    0    0 -0.83733990039E-01 -0.89194484239E-01  0.82284820109E-01  0.89226555953E+00  0.88000000000E+00 0.  1.
        -11    1    4    4    0    0  0.40551394842E-01  0.55761191900E-01 -0.31401580715E-01  0.75763094829E-01  0.51100000000E-03 0.  1.
         11    1    4    4    0    0  0.33910381124E-01  0.24388368094E-01 -0.30390313954E-01  0.51657901133E-01  0.51100000000E-03 0. -1.
</event>
<event>
 8    1  0.1119901E+005  0.1043930E+01  0.7957747E-01            NaN
         13   -1    0    0    0    0  0.00000000000E+00  0.00000000000E+00  0.74505805969E-08  0.10566000000E+00  0.10566000000E+00 0.  1.
     999900   -1    0    0    0    0 -0.00000000000E+00 -0.00000000000E+00 -0.74505805969E-08  0.93827000000E+00  0.93827000000E+00 0.  1.
     999902    2    1    2    0    0 -0.20878241795E-01  0.63437777639E-02  0.11131717588E-01  0.10194338853E+01  0.10191395326E+01 0.  0.
     999903    2    3    3    0    0  0.76237551926E-01  0.91296807141E-01  0.46775141663E-01  0.12931088920E+00  0.19649958512E-01 0.  0.
         14    1    1    2    0    0  0.20878241795E-01 -0.63437777639E-02 -0.11131717588E-01  0.24496114655E-01  0.00000000000E+00 0.  1.
     999901    1    3    3    0    0 -0.97115793721E-01 -0.84953029377E-01 -0.35643424076E-01  0.89012299615E+00  0.88000000000E+00 0. -1.
        -11    1    4    4    0    0  0.78446790458E-02  0.19551023076E-01  0.12093730120E-01  0.24296109192E-01  0.51100000000E-03 0.  1.
         11    1    4    4    0    0  0.68392872880E-01  0.71745784066E-01  0.34681411543E-01  0.10501478001E+00  0.51100000000E-03 0. -1.
</event>
<event>
 8    1  0.1119901E+005  0.1043930E+01  0.7957747E-01            NaN
         13   -1    0    0    0    0  0.00000000000E+00  0.00000000000E+00  0.74505805969E-08  0.10566000000E+00  0.10566000000E+00 0. -1.
     999900   -1    0    0    0    0 -0.00000000000E+00 -0.00000000000E+00 -0.74505805969E-08  0.93827000000E+00  0.93827000000E+00 0.  1.
     999902    2    1    2    0    0  0.18984395127E-01 -0.15652333411E-01 -0.34370881665E-03  0.10193226650E+01  0.10190256005E+01 0.  0.
     999903    2    3    3    0    0 -0.41808086650E-01 -0.94461384814E-01  0.76877982728E-01  0.13035147196E+00  0.20258644678E-01 0.  0.
         14    1    1    2    0    0 -0.18984395127E-01  0.15652333411E-01  0.34370881665E-03  0.24607334990E-01  0.00000000000E+00 0. -1.
     999901    1    3    3    0    0  0.60792481777E-01  0.78809051404E-01 -0.77221691544E-01  0.88897119305E+00  0.88000000000E+00 0.  1.
        -11    1    4    4    0    0 -0.24228791818E-01 -0.64879640297E-01  0.40303754674E-01  0.80131490937E-01  0.51100000000E-03 0.  1.
         11    1    4    4    0    0 -0.17579294832E-01 -0.29581744518E-01  0.36574228053E-01  0.50219981026E-01  0.51100000000E-03 0. -1.
</event>
<event>
 8    1  0.1119901E+005  0.1043930E+01  0.7957747E-01            NaN
         13   -1    0    0    0    0  0.00000000000E+00  0.00000000000E+00  0.74505805969E-08  0.10566000000E+00  0.10566000000E+00 0. -1.
     999900   -1    0    0    0    0 -0.00000000000E+00 -0.00000000000E+00 -0.74505805969E-08  0.93827000000E+00  0.93827000000E+00 0.  1.
     999902    2    1    2    0    0 -0.55344772430E-02 -0.91772489186E-03 -0.22955937623E-01  0.10202985013E+01  0.10200247958E+01 0.  0.
     999903    2    3    3    0    0  0.31585628102E-01 -0.29642632003E-01 -0.12438429138E+00  0.13322988309E+00  0.20060216197E-01 0.  0.
         14    1    1    2    0    0  0.55344772430E-02  0.91772489186E-03  0.22955937623E-01  0.23631498672E-01  0.00000000000E+00 0. -1.
     999901    1    3    3    0    0 -0.37120105345E-01  0.28724907111E-01  0.10142835375E+00  0.88706861823E+00  0.88000000000E+00 0. -1.
        -11    1    4    4    0    0  0.35267940327E-02 -0.75122773182E-02 -0.82198305575E-02  0.11691848530E-01  0.51100000000E-03 0.  1.
         11    1    4    4    0    0  0.28058834070E-01 -0.22130354684E-01 -0.11616446082E+00  0.12153803456E+00  0.51100000000E-03 0. -1.
</event>
<event>
 8    1  0.1119901E+005  0.1043930E+01  0.7957747E-01            NaN
         13   -1    0    0    0    0  0.00000000000E+00  0.00000000000E+00  0.74505805969E-08  0.10566000000E+00  0.10566000000E+00 0.  1.
     999900   -1    0    0    0    0 -0.00000000000E+00 -0.00000000000E+00 -0.74505805969E-08  0.93827000000E+00  0.93827000000E+00 0.  1.
     999902    2    1    2    0    0 -0.15911757690E-01 -0.16019401181E-01 -0.30594153321E-02  0.10211448015E+01  0.10208905624E+01 0.  0.
     999903    2    3    3    0    0  0.99923066102E-01 -0.58931929174E-01  0.56316142869E-01  0.13053565697E+00  0.20259772421E-01 0.  0.
         14    1    1    2    0    0  0.15911757690E-01  0.16019401181E-01  0.30594153321E-02  0.22785198466E-01  0.00000000000E+00 0. -1.
     999901    1    3    3    0    0 -0.11583482379E+00  0.42912527993E-01 -0.59375558201E-01  0.89060914456E+00  0.88000000000E+00 0.  1.
        -11    1    4    4    0    0  0.29949172130E-01 -0.90045087661E-02  0.20585867258E-01  0.37444267133E-01  0.51100000000E-03 0.  1.
         11    1    4    4    0    0  0.69973893973E-01 -0.49927420408E-01  0.35730275611E-01  0.93091389841E-01  0.51100000000E-03 0. -1.
</event>
<event>
 8    1  0.1119901E+005  0.1043930E+01  0.7957747E-01            NaN
         13   -1    0    0    0    0  0.00000000000E+00  0.00000000000E+00  0.74505805969E-08  0.10566000000E+00  0.10566000000E+00 0. -1.
     999900   -1    0    0    0    0 -0.00000000000E+00 -0.00000000000E+00 -0.74505805969E-08  0.93827000000E+00  0.93827000000E+00 0.  1.
     999902    2    1    2    0    0  0.24035259882E-01 -0.67753083203E-02  0.78763783104E-02  0.10177453508E+01  0.10174084544E+01 0.  0.
     999903    2    3    3    0    0  0.52191327268E-01  0.31873722559E-01  0.11313982086E+00  0.13018301264E+00  0.20177435026E-01 0.  0.
         14    1    1    2    0    0 -0.24035259882E-01  0.67753083203E-02 -0.78763783104E-02  0.26184649238E-01  0.00000000000E+00 0.  1.
     999901    1    3    3    0    0 -0.28156067386E-01 -0.38649030879E-01 -0.10526344255E+00  0.88756233812E+00  0.88000000000E+00 0.  1.
        -11    1    4    4    0    0  0.13521016372E-01  0.20066699887E-02  0.39540177425E-01  0.41839351811E-01  0.51100000000E-03 0. -1.
         11    1    4    4    0    0  0.38670310896E-01  0.29867052570E-01  0.73599643433E-01  0.88343660828E-01  0.51100000000E-03 0.  1.
</event>
<event>
 8    1  0.1119901E+005  0.1043930E+01  0.7957747E-01            NaN
         13   -1    0    0    0    0  0.00000000000E+00  0.00000000000E+00  0.74505805969E-08  0.10566000000E+00  0.10566000000E+00 0. -1.
     999900   -1    0    0    0    0 -0.00000000000E+00 -0.00000000000E+00 -0.74505805969E-08  0.93827000000E+00  0.93827000000E+00 0.  1.
     999902    2    1    2    0    0 -0.35436786892E-02 -0.22270636789E-01  0.83954911433E-02  0.10198670992E+01  0.10195831878E+01 0.  0.
     999903    2    3    3    0    0  0.12811985834E+00 -0.43602020636E-02  0.42814636158E-02  0.12988227022E+00  0.20429481755E-01 0.  0.
         14    1    1    2    0    0  0.35436786892E-02  0.22270636789E-01 -0.83954911433E-02  0.24062900764E-01  0.00000000000E+00 0.  1.
     999901    1    3    3    0    0 -0.13166353703E+00 -0.17910434725E-01  0.41140275276E-02  0.88998482902E+00  0.88000000000E+00 0.  1.
        -11    1    4    4    0    0  0.66013306755E-01 -0.65897591104E-02  0.11440756409E-01  0.67322608551E-01  0.51100000000E-03 0. -1.
         11    1    4    4    0    0  0.62106551582E-01  0.22295570468E-02 -0.71592927928E-02  0.62559661671E-01  0.51100000000E-03 0.  1.
</event>
<event>
 8    1  0.1119901E+005  0.1043930E+01  0.7957747E-01            NaN
         13   -1    0    0    0    0  0.00000000000E+00  0.00000000000E+00  0.74505805969E-08  0.10566000000E+00  0.10566000000E+00 0.  1.
     999900   -1    0    0    0    0 -0.00000000000E+00 -0.00000000000E+00 -0.74505805969E-08  0.93827000000E+00  0.93827000000E+00 0. -1.
     999902    2    1    2    0    0  0.60819259359E-02 -0.11683046942E-02  0.23048235213E-01  0.10200642106E+01  0.10197849860E+01 0.  0.
     999903    2    3    3    0    0  0.11735990197E+00 -0.19274648927E-01 -0.48471333904E-01  0.12999360864E+00  0.20099984947E-01 0.  0.
         14    1    1    2    0    0 -0.60819259359E-02  0.11683046942E-02 -0.23048235213E-01  0.23865789436E-01  0.00000000000E+00 0. -1.
     999901    1    3    3    0    0 -0.11127797603E+00  0.18106344233E-01  0.71519569117E-01  0.89007060193E+00  0.88000000000E+00 0.  1.
        -11    1    4    4    0    0  0.75401945842E-01 -0.96709497592E-02 -0.40771066906E-01  0.86264255191E-01  0.51100000000E-03 0. -1.
         11    1    4    4    0    0  0.41957956124E-01 -0.96036991681E-02 -0.77002669979E-02  0.43729353445E-01  0.51100000000E-03 0.  1.
</event>
<event>
 8    1  0.1119901E+005  0.1043930E+01  0.7957747E-01            NaN
         13   -1    0    0    0    0  0.00000000000E+00  0.00000000000E+00  0.74505805969E-08  0.10566000000E+00  0.10566000000E+00 0.  1.
     999900   -1    0    0    0    0 -0.00000000000E+00 -0.00000000000E+00 -0.74505805969E-08  0.93827000000E+00  0.93827000000E+00 0. -1.
     999902    2    1    2    0    0 -0.15204877885E-01  0.11639396237E-01  0.12057111717E-01  0.10213017478E+01  0.10210510380E+01 0.  0.
     999903    2    3    3    0    0 -0.62581882817E-01  0.11552537972E+00  0.10794635426E-01  0.13392444807E+00  0.23592969766E-01 0.  0.
         14    1    1    2    0    0  0.15204877885E-01 -0.11639396237E-01 -0.12057111717E-01  0.22628252235E-01  0.00000000000E+00 0.  1.
     999901    1    3    3    0    0  0.47377004932E-01 -0.10388598348E+00  0.12624762906E-02  0.88737729969E+00  0.88000000000E+00 0. -1.
        -11    1    4    4    0    0 -0.40202957835E-01  0.52031817505E-01  0.10570333501E-01  0.66600157079E-01  0.51100000000E-03 0. -1.
         11    1    4    4    0    0 -0.22378924982E-01  0.63493562212E-01  0.22430192470E-03  0.67324290996E-01  0.51100000000E-03 0.  1.
</event>
<event>
 8    1  0.1119901E+005  0.1043930E+01  0.7957747E-01            NaN
         13   -1    0    0    0    0  0.00000000000E+00  0.00000000000E+00  0.74505805969E-08  0.10566000000E+00  0.10566000000E+00 0.  1.
     999900   -1    0    0    0    0 -0.00000000000E+00 -0.00000000000E+00 -0.74505805969E-08  0.93827000000E+00  0.93827000000E+00 0. -1.
     999902    2    1    2    0    0  0.42256459741E-02 -0.16315052090E-02  0.22923637968E-01  0.10205631202E+01  0.10202955803E+01 0.  0.
     999903    2    3    3    0    0 -0.12015293930E+00  0.33900721674E-01  0.33996694363E-01  0.13103786245E+00  0.20716138996E-01 0.  0.
         14    1    1    2    0    0 -0.42256459741E-02  0.16315052090E-02 -0.22923637968E-01  0.23366879784E-01  0.00000000000E+00 0. -1.
     999901    1    3    3    0    0  0.12437858528E+00 -0.35532226883E-01 -0.11073056395E-01  0.88952525776E+00  0.88000000000E+00 0. -1.
        -11    1    4    4    0    0 -0.74916352930E-01  0.10612703097E-01  0.20789387318E-01  0.78470052564E-01  0.51100000000E-03 0. -1.
         11    1    4    4    0    0 -0.45236586373E-01  0.23288018576E-01  0.13207307046E-01  0.52567809887E-01  0.51100000000E-03 0.  1.
</event>
<event>
 8    1  0.1119901E+005  0.1043930E+01  0.7957747E-01            NaN
         13   -1    0    0    0    0  0.00000000000E+00  0.00000000000E+00  0.74505805969E-08  0.10566000000E+00  0.10566000000E+00 0. -1.
     999900   -1    0    0    0    0 -0.00000000000E+00 -0.00000000000E+00 -0.74505805969E-08  0.93827000000E+00  0.93827000000E+00 0.  1.
     999902    2    1    2    0    0  0.21613679698E-01  0.92239843922E-02 -0.23164588253E-02  0.10203164653E+01  0.10200431807E+01 0.  0.
     999903    2    3    3    0    0  0.99537890214E-01 -0.73740182926E-01 -0.41336204489E-01  0.13212854817E+00  0.20096399493E-01 0.  0.
         14    1    1    2    0    0 -0.21613679698E-01 -0.92239843922E-02  0.23164588253E-02  0.23613534671E-01  0.00000000000E+00 0.  1.
     999901    1    3    3    0    0 -0.77924210516E-01  0.82964167318E-01  0.39019745664E-01  0.88818791716E+00  0.88000000000E+00 0.  1.
        -11    1    4    4    0    0  0.62965201511E-01 -0.48450312715E-01 -0.16326976625E-01  0.81110299532E-01  0.51100000000E-03 0. -1.
         11    1    4    4    0    0  0.36572688703E-01 -0.25289870210E-01 -0.25009227864E-01  0.51018248633E-01  0.51100000000E-03 0.  1.
</event>
<event>
 8    1  0.1119901E+005  0.1043930E+01  0.7957747E-01            NaN
         13   -1    0    0    0    0  0.00000000000E+00  0.00000000000E+00  0.74505805969E-08  0.10566000000E+00  0.10566000000E+00 0. -1.
     999900   -1    0    0    0    0 -0.00000000000E+00 -0.00000000000E+00 -0.74505805969E-08  0.93827000000E+00  0.93827000000E+00 0.  1.
     999902    2    1    2    0    0 -0.68927454474E-02  0.20063869648E-01  0.10397989838E-01  0.10203040186E+01  0.10200304424E+01 0.  0.
     999903    2    3    3    0    0 -0.77030730820E-01  0.96670684356E-01  0.46818799484E-01  0.13344753841E+00  0.18365478998E-01 0.  0.
         14    1    1    2    0    0  0.68927454474E-02 -0.20063869648E-01 -0.10397989838E-01  0.23625981412E-01  0.00000000000E+00 0.  1.
     999901    1    3    3    0    0  0.70137985373E-01 -0.76606814709E-01 -0.36420809647E-01  0.88685648017E+00  0.88000000000E+00 0.  1.
        -11    1    4    4    0    0 -0.17156558953E-01  0.32091735754E-01  0.19227617635E-01  0.41160532306E-01  0.51100000000E-03 0. -1.
         11    1    4    4    0    0 -0.59874171867E-01  0.64578948602E-01  0.27591181849E-01  0.92287006107E-01  0.51100000000E-03 0.  1.
</event>
<event>
 8    1  0.1119901E+005  0.1043930E+01  0.7957747E-01            NaN
         13   -1    0    0    0    0  0.00000000000E+00  0.00000000000E+00  0.74505805969E-08  0.10566000000E+00  0.10566000000E+00 0. -1.
     999900   -1    0    0    0    0 -0.00000000000E+00 -0.00000000000E+00 -0.74505805969E-08  0.93827000000E+00  0.93827000000E+00 0. -1.
     999902    2    1    2    0    0  0.40243657833E-02 -0.14613116255E-01  0.18650814027E-01  0.10198968656E+01  0.10196136645E+01 0.  0.
     999903    2    3    3    0    0 -0.24223630192E-01  0.93202881024E-01  0.85386260241E-01  0.13035998701E+00  0.20720798327E-01 0.  0.
         14    1    1    2    0    0 -0.40243657833E-02  0.14613116255E-01 -0.18650814027E-01  0.24033134429E-01  0.00000000000E+00 0.  1.
     999901    1    3    3    0    0  0.28247995975E-01 -0.10781599728E+00 -0.66735446214E-01  0.88953687857E+00  0.88000000000E+00 0. -1.
        -11    1    4    4    0    0 -0.10268000986E-01  0.10750569236E-01  0.12619898103E-01  0.19507166177E-01  0.51100000000E-03 0. -1.
         11    1    4    4    0    0 -0.13955629206E-01  0.82452311788E-01  0.72766362138E-01  0.11085282083E+00  0.51100000000E-03 0.  1.
</event>
<event>
 8    1  0.1119901E+005  0.1043930E+01  0.7957747E-01            NaN
         13   -1    0    0    0    0  0.00000000000E+00  0.00000000000E+00  0.74505805969E-08  0.10566000000E+00  0.10566000000E+00 0. -1.
     999900   -1    0    0    0    0 -0.00000000000E+00 -0.00000000000E+00 -0.74505805969E-08  0.93827000000E+00  0.93827000000E+00 0.  1.
     999902    2    1    2    0    0 -0.22665456838E-01 -0.62619624326E-02 -0.25535029233E-02  0.10202771887E+01  0.10200029834E+01 0.  0.
     999903    2    3    3    0    0 -0.82821285259E-01 -0.95748930019E-01  0.35357933304E-01  0.13288555130E+00  0.19523406576E-01 0.  0.
         14    1    1    2    0    0  0.22665456838E-01  0.62619624326E-02  0.25535029233E-02  0.23652811342E-01  0.00000000000E+00 0. -1.
     999901    1    3    3    0    0  0.60155828421E-01  0.89486967587E-01 -0.37911436227E-01  0.88739163736E+00  0.88000000000E+00 0.  1.
        -11    1    4    4    0    0 -0.19637482132E-01 -0.35871038547E-01  0.83494803079E-02  0.41741311112E-01  0.51100000000E-03 0.  1.
         11    1    4    4    0    0 -0.63183803128E-01 -0.59877891472E-01  0.27008452996E-01  0.91144240186E-01  0.51100000000E-03 0. -1.
</event>
<event>
 8    1  0.1119901E+005  0.1043930E+01  0.7957747E-01            NaN
         13   -1    0    0    0    0  0.00000000000E+00  0.00000000000E+00  0.74505805969E-08  0.10566000000E+00  0.10566000000E+00 0. -1.
     999900   -1    0    0    0    0 -0.00000000000E+00 -0.00000000000E+00 -0.74505805969E-08  0.93827000000E+00  0.93827000000E+00 0.  1.
     999902    2    1    2    0    0 -0.21000713354E-01 -0.10783401679E-01  0.40211418805E-03  0.10203191252E+01  0.10200459028E+01 0.  0.
     999903    2    3    3    0    0 -0.12433034536E+00 -0.21942396647E-01  0.37697029236E-01  0.13341865349E+00  0.20975403182E-01 0.  0.
         14    1    1    2    0    0  0.21000713354E-01  0.10783401679E-01 -0.40211418805E-03  0.23610874803E-01  0.00000000000E+00 0.  1.
     999901    1    3    3    0    0  0.10332963201E+00  0.11158994967E-01 -0.37294915048E-01  0.88690047170E+00  0.88000000000E+00 0.  1.
        -11    1    4    4    0    0 -0.82465086691E-01 -0.97222610052E-02  0.33717399393E-01  0.89622190471E-01  0.51100000000E-03 0.  1.
         11    1    4    4    0    0 -0.41865258670E-01 -0.12220135641E-01  0.39796298432E-02  0.43796463023E-01  0.51100000000E-03 0. -1.
</event>
<event>
 8    1  0.1119901E+005  0.1043930E+01  0.7957747E-01            NaN
         13   -1    0    0    0    0  0.00000000000E+00  0.00000000000E+00  0.74505805969E-08  0.10566000000E+00  0.10566000000E+00 0.  1.
     999900   -1    0    0    0    0 -0.00000000000E+00 -0.00000000000E+00 -0.74505805969E-08  0.93827000000E+00  0.93827000000E+00 0. -1.
     999902    2    1    2    0    0 -0.64199099622E-02  0.67239461892E-02 -0.21486944887E-01  0.10205181334E+01  0.10202495504E+01 0.  0.
     999903    2    3    3    0    0  0.10367229034E+00 -0.53295454050E-01 -0.56429109146E-01  0.13094319233E+00  0.19326822074E-01 0.  0.
         14    1    1    2    0    0  0.64199099622E-02 -0.67239461892E-02  0.21486944887E-01  0.23411866582E-01  0.00000000000E+00 0.  1.
     999901    1    3    3    0    0 -0.11009220030E+00  0.60019400239E-01  0.34942164260E-01  0.88957494109E+00  0.88000000000E+00 0.  1.
        -11    1    4    4    0    0  0.31691211274E-01 -0.68120999887E-02 -0.13727828025E-01  0.35205851241E-01  0.51100000000E-03 0.  1.
         11    1    4    4    0    0  0.71981079065E-01 -0.46483354061E-01 -0.42701281121E-01  0.95737341088E-01  0.51100000000E-03 0. -1.
</event>
<event>
 8    1  0.1119901E+005  0.1043930E+01  0.7957747E-01            NaN
         13   -1    0    0    0    0  0.00000000000E+00  0.00000000000E+00  0.74505805969E-08  0.10566000000E+00  0.10566000000E+00 0.  1.
     999900   -1    0    0    0    0 -0.00000000000E+00 -0.00000000000E+00 -0.74505805969E-08  0.93827000000E+00  0.93827000000E+00 0. -1.
     999902    2    1    2    0    0  0.17166762731E-01 -0.67830785470E-02 -0.13979635370E-01  0.10207753438E+01  0.10205126969E+01 0.  0.
     999903    2    3    3    0    0 -0.47610328580E-01  0.11766282632E+00  0.11684591279E-01  0.12929258610E+00  0.21650844391E-01 0.  0.
         14    1    1    2    0    0 -0.17166762731E-01  0.67830785470E-02  0.13979635370E-01  0.23154656169E-01  0.00000000000E+00 0.  1.
     999901    1    3    3    0    0  0.64777091311E-01 -0.12444590487E+00 -0.25664226649E-01  0.89148275773E+00  0.88000000000E+00 0. -1.
        -11    1    4    4    0    0 -0.33580800225E-01  0.54423750052E-01  0.43466771681E-02  0.64099683594E-01  0.51100000000E-03 0.  1.
         11    1    4    4    0    0 -0.14029528355E-01  0.63239076267E-01  0.73379141112E-02  0.65192902509E-01  0.51100000000E-03 0. -1.
</event>
<event>
 8    1  0.1119901E+005  0.1043930E+01  0.7957747E-01            NaN
         13   -1    0    0    0    0  0.00000000000E+00  0.00000000000E+00  0.74505805969E-08  0.10566000000E+00  0.10566000000E+00 0.  1.
     999900   -1    0    0    0    0 -0.00000000000E+00 -0.00000000000E+00 -0.74505805969E-08  0.93827000000E+00  0.93827000000E+00 0. -1.
     999902    2    1    2    0    0 -0.74968481651E-02 -0.27124527748E-02 -0.22408825303E-01  0.10201452237E+01  0.10198679139E+01 0.  0.
     999903    2    3    3    0    0 -0.70679572220E-01 -0.10425111710E+00  0.28617258244E-01  0.13059150515E+00  0.19269052964E-01 0.  0.
         14    1    1    2    0    0  0.74968481651E-02  0.27124527748E-02  0.22408825303E-01  0.23784776306E-01  0.00000000000E+00 0.  1.
     999901    1    3    3    0    0  0.63182724055E-01  0.10153866433E+00 -0.51026083548E-01  0.88955371854E+00  0.88000000000E+00 0.  1.
        -11    1    4    4    0    0 -0.37497300181E-01 -0.42777669088E-01  0.19513462964E-01  0.60141606657E-01  0.51100000000E-03 0. -1.
         11    1    4    4    0    0 -0.33182272039E-01 -0.61473448012E-01  0.91037952803E-02  0.70449898493E-01  0.51100000000E-03 0.  1.
</event>
<event>
 8    1  0.1119901E+005  0.1043930E+01  0.7957747E-01            NaN
         13   -1    0    0    0    0  0.00000000000E+00  0.00000000000E+00  0.74505805969E-08  0.10566000000E+00  0.10566000000E+00 0. -1.
     999900   -1    0    0    0    0 -0.00000000000E+00 -0.00000000000E+00 -0.74505805969E-08  0.93827000000E+00  0.93827000000E+00 0. -1.
     999902    2    1    2    0    0 -0.10220469759E-01  0.14571487207E-01 -0.15565840094E-01  0.10202850932E+01  0.10200110733E+01 0.  0.
     999903    2    3    3    0    0 -0.59803259645E-01 -0.81671388919E-01 -0.81382730372E-01  0.13121085144E+00  0.18614325115E-01 0.  0.
         14    1    1    2    0    0  0.10220469759E-01 -0.14571487207E-01  0.15565840094E-01  0.23644906837E-01  0.00000000000E+00 0. -1.
     999901    1    3    3    0    0  0.49582789885E-01  0.96242876125E-01  0.65816890278E-01  0.88907424173E+00  0.88000000000E+00 0. -1.
        -11    1    4    4    0    0 -0.31499728406E-01 -0.52037108613E-01 -0.57883645776E-01  0.83969465473E-01  0.51100000000E-03 0. -1.
         11    1    4    4    0    0 -0.28303531238E-01 -0.29634280305E-01 -0.23499084596E-01  0.47241385962E-01  0.51100000000E-03 0.  1.
</event>
<event>
 8    1  0.1119901E+005  0.1043930E+01  0.7957747E-01            NaN
         13   -1    0    0    0    0  0.00000000000E+00  0.00000000000E+00  0.74505805969E-08  0.10566000000E+00  0.10566000000E+00 0. -1.
     999900   -1    0    0    0    0 -0.00000000000E+00 -0.00000000000E+00 -0.74505805969E-08  0.93827000000E+00  0.93827000000E+00 0.  1.
     999902    2    1    2    0    0 -0.56326113993E-02  0.36510962773E-02 -0.22143163010E-01  0.10207917960E+01  0.10205295264E+01 0.  0.
     999903    2    3    3    0    0  0.22928633456E-01  0.11797691795E+00  0.46283982155E-01  0.13030405753E+00  0.19815776637E-01 0.  0.
         14    1    1    2    0    0  0.56326113993E-02 -0.36510962773E-02  0.22143163010E-01  0.23138203977E-01  0.00000000000E+00 0. -1.
     999901    1    3    3    0    0 -0.28561244856E-01 -0.11432582167E+00 -0.68427145165E-01  0.89048773849E+00  0.88000000000E+00 0.  1.
        -11    1    4    4    0    0  0.81343064432E-02  0.43689247548E-01  0.27494762130E-01  0.52260313415E-01  0.51100000000E-03 0. -1.
         11    1    4    4    0    0  0.14794327013E-01  0.74287670402E-01  0.18789220025E-01  0.78043744116E-01  0.51100000000E-03 0.  1.
</event>
<event>
 8    1  0.1119901E+005  0.1043930E+01  0.7957747E-01            NaN
         13   -1    0    0    0    0  0.00000000000E+00  0.00000000000E+00  0.74505805969E-08  0.10566000000E+00  0.10566000000E+00 0.  1.
     999900   -1    0    0    0    0 -0.00000000000E+00 -0.00000000000E+00 -0.74505805969E-08  0.93827000000E+00  0.93827000000E+00 0.  1.
     999902    2    1    2    0    0 -0.20442343524E-01 -0.48797539356E-02 -0.69370082380E-02  0.10217980437E+01  0.10215583285E+01 0.  0.
     999903    2    3    3    0    0 -0.21830798225E-01  0.12259566496E+00  0.36591853292E-01  0.13154713971E+00  0.21433744885E-01 0.  0.
         14    1    1    2    0    0  0.20442343524E-01  0.48797539356E-02  0.69370082380E-02  0.22131956320E-01  0.00000000000E+00 0. -1.
     999901    1    3    3    0    0  0.13884547004E-02 -0.12747541890E+00 -0.43528861530E-01  0.89025090397E+00  0.88000000000E+00 0.  1.
        -11    1    4    4    0    0 -0.53201013451E-02  0.83764102605E-01  0.28006772083E-01  0.88483720350E-01  0.51100000000E-03 0. -1.
         11    1    4    4    0    0 -0.16510696880E-01  0.38831562360E-01  0.85850812094E-02  0.43063419362E-01  0.51100000000E-03 0.  1.
</event>
<event>
 8    1  0.1119901E+005  0.1043930E+01  0.7957747E-01            NaN
         13   -1    0    0    0    0  0.00000000000E+00  0.00000000000E+00  0.74505805969E-08  0.10566000000E+00  0.10566000000E+00 0. -1.
     999900   -1    0    0    0    0 -0.00000000000E+00 -0.00000000000E+00 -0.74505805969E-08  0.93827000000E+00  0.93827000000E+00 0.  1.
     999902    2    1    2    0    0  0.22520394351E-01 -0.59285289545E-02  0.61870607690E-03  0.10206341116E+01  0.10203682137E+01 0.  0.
     999903    2    3    3    0    0 -0.10463189023E+00  0.71080750749E-01  0.51515129695E-02  0.12815516008E+00  0.19922384116E-01 0.  0.
         14    1    1    2    0    0 -0.22520394351E-01  0.59285289545E-02 -0.61870607690E-03  0.23295888360E-01  0.00000000000E+00 0. -1.
     999901    1    3    3    0    0  0.12715228458E+00 -0.77009279703E-01 -0.45328068926E-02  0.89247895156E+00  0.88000000000E+00 0.  1.
        -11    1    4    4    0    0 -0.30987086412E-01  0.18177989768E-01  0.10162572318E-01  0.37338690837E-01  0.51100000000E-03 0. -1.
         11    1    4    4    0    0 -0.73644803822E-01  0.52902760981E-01 -0.50110593481E-02  0.90816469245E-01  0.51100000000E-03 0.  1.
</event>
<event>
 8    1  0.1119901E+005  0.1043930E+01  0.7957747E-01            NaN
         13   -1    0    0    0    0  0.00000000000E+00  0.00000000000E+00  0.74505805969E-08  0.10566000000E+00  0.10566000000E+00 0.  1.
     999900   -1    0    0    0    0 -0.00000000000E+00 -0.00000000000E+00 -0.74505805969E-08  0.93827000000E+00  0.93827000000E+00 0. -1.
     999902    2    1    2    0    0 -0.10217570922E-01  0.21310377311E-01 -0.23745146057E-02  0.10201777526E+01  0.10199012098E+01 0.  0.
     999903    2    3    3    0    0 -0.39012805263E-01  0.12207862179E+00  0.30852367743E-01  0.13333648703E+00  0.20038994607E-01 0.  0.
         14    1    1    2    0    0  0.10217570922E-01 -0.21310377311E-01  0.23745146057E-02  0.23752247395E-01  0.00000000000E+00 0. -1.
     999901    1    3    3    0    0  0.28795234341E-01 -0.10076824448E+00 -0.33226882349E-01  0.88684126558E+00  0.88000000000E+00 0. -1.
        -11    1    4    4    0    0 -0.15763840307E-01  0.27412555887E-01  0.13201940197E-01  0.34270967705E-01  0.51100000000E-03 0.  1.
         11    1    4    4    0    0 -0.23248964957E-01  0.94666065905E-01  0.17650427546E-01  0.99065519324E-01  0.51100000000E-03 0. -1.
</event>
<event>
 8    1  0.1119901E+005  0.1043930E+01  0.7957747E-01            NaN
         13   -1    0    0    0    0  0.00000000000E+00  0.00000000000E+00  0.74505805969E-08  0.10566000000E+00  0.10566000000E+00 0. -1.
     999900   -1    0    0    0    0 -0.00000000000E+00 -0.00000000000E+00 -0.74505805969E-08  0.93827000000E+00  0.93827000000E+00 0.  1.
     999902    2    1    2    0    0  0.47785663019E-02  0.19817036495E-02 -0.23018611928E-01  0.10203372397E+01  0.10200644412E+01 0.  0.
     999903    2    3    3    0    0  0.12224600101E+00  0.43648324736E-01  0.27600390902E-03  0.13124931113E+00  0.19417633234E-01 0.  0.
         14    1    1    2    0    0 -0.47785663019E-02 -0.19817036495E-02  0.23018611928E-01  0.23592760338E-01  0.00000000000E+00 0. -1.
     999901    1    3    3    0    0 -0.11746743470E+00 -0.41666621086E-01 -0.23294615837E-01  0.88908792853E+00  0.88000000000E+00 0.  1.
        -11    1    4    4    0    0  0.11622210097E+00  0.41454162972E-01 -0.41124382204E-02  0.12346334537E+00  0.51100000000E-03 0.  1.
         11    1    4    4    0    0  0.60239000379E-02  0.21941617638E-02  0.43884421294E-02  0.77859657613E-02  0.51100000000E-03 0. -1.
</event>
<event>
 8    1  0.1119901E+005  0.1043930E+01  0.7957747E-01            NaN
         13   -1    0    0    0    0  0.00000000000E+00  0.00000000000E+00  0.74505805969E-08  0.10566000000E+00  0.10566000000E+00 0. -1.
     999900   -1    0    0    0    0 -0.00000000000E+00 -0.00000000000E+00 -0.74505805969E-08  0.93827000000E+00  0.93827000000E+00 0.  1.
     999902    2    1    2    0    0  0.55969533034E-02 -0.23381481908E-01  0.17108318475E-02  0.10198271676E+01  0.10195423019E+01 0.  0.
     999903    2    3    3    0    0  0.98849357040E-01 -0.75638346392E-01 -0.41249820620E-01  0.13231806439E+00  0.17724774447E-01 0.  0.
         14    1    1    2    0    0 -0.55969533034E-02  0.23381481908E-01 -0.17108318475E-02  0.24102832367E-01  0.00000000000E+00 0.  1.
     999901    1    3    3    0    0 -0.93252403737E-01  0.52256864485E-01  0.42960652467E-01  0.88750910325E+00  0.88000000000E+00 0. -1.
        -11    1    4    4    0    0  0.74355146592E-01 -0.51388196550E-01 -0.36677239537E-01  0.97544428802E-01  0.51100000000E-03 0. -1.
         11    1    4    4    0    0  0.24494210449E-01 -0.24250149842E-01 -0.45725810828E-02  0.34773635583E-01  0.51100000000E-03 0.  1.
</event>
<event>
 8    1  0.1119901E+005  0.1043930E+01  0.7957747E-01            NaN
         13   -1    0    0    0    0  0.00000000000E+00  0.00000000000E+00  0.74505805969E-08  0.10566000000E+00  0.10566000000E+00 0.  1.
     999900   -1    0    0    0    0 -0.00000000000E+00 -0.00000000000E+00 -0.74505805969E-08  0.93827000000E+00  0.93827000000E+00 0.  1.
     999902    2    1    2    0    0  0.17863381376E-01 -0.14326814484E-01  0.34490473455E-02  0.10207728427E+01  0.10205101383E+01 0.  0.
     999903    2    3    3    0    0 -0.51160009962E-01 -0.31901793354E-01  0.11455392501E+00  0.13093161961E+00  0.19632020768E-01 0.  0.
         14    1    1    2    0    0 -0.17863381376E-01  0.14326814484E-01 -0.34490473455E-02  0.23157157318E-01  0.00000000000E+00 0.  1.
     999901    1    3    3    0    0  0.69023391338E-01  0.17574978870E-01 -0.11110487767E+00  0.88984122307E+00  0.88000000000E+00 0.  1.
        -11    1    4    4    0    0 -0.13598428427E-01 -0.43990050722E-02  0.45131891297E-01  0.47343608167E-01  0.51100000000E-03 0.  1.
         11    1    4    4    0    0 -0.37561581535E-01 -0.27502788282E-01  0.69422033718E-01  0.83588011444E-01  0.51100000000E-03 0. -1.
</event>
<event>
 8    1  0.1119901E+005  0.1043930E+01  0.7957747E-01            NaN
         13   -1    0    0    0    0  0.00000000000E+00  0.00000000000E+00  0.74505805969E-08  0.10566000000E+00  0.10566000000E+00 0.  1.
     999900   -1    0    0    0    0 -0.00000000000E+00 -0.00000000000E+00 -0.74505805969E-08  0.93827000000E+00  0.93827000000E+00 0. -1.
     999902    2    1    2    0    0  0.17197824652E-01 -0.12755626288E-01  0.92010446018E-02  0.10206248418E+01  0.10203587298E+01 0.  0.
     999903    2    3    3    0    0  0.62890865342E-01  0.35121707330E-01 -0.10693446743E+00  0.13053071750E+00  0.20359091757E-01 0.  0.
         14    1    1    2    0    0 -0.17197824652E-01  0.12755626288E-01 -0.92010446018E-02  0.23305158153E-01  0.00000000000E+00 0. -1.
     999901    1    3    3    0    0 -0.45693040691E-01 -0.47877333618E-01  0.11613551203E+00  0.89009412435E+00  0.88000000000E+00 0.  1.
        -11    1    4    4    0    0  0.28897163853E-01  0.23385667138E-01 -0.40440271954E-01  0.54932797335E-01  0.51100000000E-03 0. -1.
         11    1    4    4    0    0  0.33993701489E-01  0.11736040192E-01 -0.66494195477E-01  0.75597920166E-01  0.51100000000E-03 0.  1.
</event>
<event>
 8    1  0.1119901E+005  0.1043930E+01  0.7957747E-01            NaN
         13   -1    0    0    0    0  0.00000000000E+00  0.00000000000E+00  0.74505805969E-08  0.10566000000E+00  0.10566000000E+00 0.  1.
     999900   -1    0    0    0    0 -0.00000000000E+00 -0.00000000000E+00 -0.74505805969E-08  0.93827000000E+00  0.93827000000E+00 0. -1.
     999902    2    1    2    0    0 -0.14932325947E-01 -0.33710436276E-01 -0.68838413492E-02  0.10064232654E+01  0.10057241341E+01 0.  0.
     999903    2    3    3    0    0 -0.40375601630E-01  0.37910927758E-01  0.10070390557E+00  0.11661873437E+00  0.19779407460E-01 0.  0.
         14    1    1    2    0    0  0.14932325947E-01  0.33710436276E-01  0.68838413492E-02  0.37506734646E-01  0.00000000000E+00 0. -1.
     999901    1    3    3    0    0  0.25443275683E-01 -0.71621364034E-01 -0.10758774692E+00  0.88980453098E+00  0.88000000000E+00 0.  1.
        -11    1    4    4    0    0 -0.89811928997E-02  0.14013095769E-02  0.78505021961E-02  0.12021522373E-01  0.51100000000E-03 0.  1.
         11    1    4    4    0    0 -0.31394408730E-01  0.36509618181E-01  0.92853403374E-01  0.10459721200E+00  0.51100000000E-03 0. -1.
</event>
<event>
 8    1  0.1119901E+005  0.1043930E+01  0.7957747E-01            NaN
         13   -1    0    0    0    0  0.00000000000E+00  0.00000000000E+00  0.74505805969E-08  0.10566000000E+00  0.10566000000E+00 0.  1.
     999900   -1    0    0    0    0 -0.00000000000E+00 -0.00000000000E+00 -0.74505805969E-08  0.93827000000E+00  0.93827000000E+00 0.  1.
     999902    2    1    2    0    0 -0.71167190932E-02 -0.25944140836E-01  0.14726439727E-01  0.10132605663E+01  0.10127963078E+01 0.  0.
     999903    2    3    3    0    0  0.66940759309E-01 -0.33709879010E-01 -0.95813437269E-01  0.12322467874E+00  0.19664320222E-01 0.  0.
         14    1    1    2    0    0  0.71167190932E-02  0.25944140836E-01 -0.14726439727E-01  0.30669433666E-01  0.00000000000E+00 0. -1.
     999901    1    3    3    0    0 -0.74057478403E-01  0.77657381739E-02  0.11053987700E+00  0.89003588759E+00  0.88000000000E+00 0. -1.
        -11    1    4    4    0    0  0.24782827586E-01 -0.24309182819E-02 -0.28214948596E-01  0.37635652673E-01  0.51100000000E-03 0.  1.
         11    1    4    4    0    0  0.42157931723E-01 -0.31278960728E-01 -0.67598488673E-01  0.85589026068E-01  0.51100000000E-03 0. -1.
</event>
<event>
 8    1  0.1119901E+005  0.1043930E+01  0.7957747E-01            NaN
         13   -1    0    0    0    0  0.00000000000E+00  0.00000000000E+00  0.74505805969E-08  0.10566000000E+00  0.10566000000E+00 0. -1.
     999900   -1    0    0    0    0 -0.00000000000E+00 -0.00000000000E+00 -0.74505805969E-08  0.93827000000E+00  0.93827000000E+00 0. -1.
     999902    2    1    2    0    0 -0.54124901811E-02  0.12281791234E-01  0.18413859833E-01  0.10211438709E+01  0.10208896108E+01 0.  0.
     999903    2    3    3    0    0  0.74236485190E-02  0.12224940393E+00 -0.44839846713E-01  0.13195397346E+00  0.20030275556E-01 0.  0.
         14    1    1    2    0    0  0.54124901811E-02 -0.12281791234E-01 -0.18413859833E-01  0.22786129110E-01  0.00000000000E+00 0.  1.
     999901    1    3    3    0    0 -0.12836138700E-01 -0.10996761270E+00  0.63253706546E-01  0.88918989743E+00  0.88000000000E+00 0. -1.
        -11    1    4    4    0    0  0.12053631677E-01  0.64141200779E-01 -0.29818897159E-01  0.71755218784E-01  0.51100000000E-03 0. -1.
         11    1    4    4    0    0 -0.46299831575E-02  0.58108203156E-01 -0.15020949554E-01  0.60198754676E-01  0.51100000000E-03 0.  1.
</event>
<event>
 8    1  0.1119901E+005  0.1043930E+01  0.7957747E-01            NaN
         13   -1    0    0    0    0  0.00000000000E+00  0.00000000000E+00  0.74505805969E-08  0.10566000000E+00  0.10566000000E+00 0. -1.
     999900   -1    0    0    0    0 -0.00000000000E+00 -0.00000000000E+00 -0.74505805969E-08  0.93827000000E+00  0.93827000000E+00 0.  1.
     999902    2    1    2    0    0 -0.13694038979E-01  0.18978572500E-01  0.33770539200E-02  0.10202843363E+01  0.10200102987E+01 0.  0.
     999903    2    3    3    0    0  0.72988505096E-01 -0.64151352252E-01 -0.80970866737E-01  0.12813019070E+00  0.20453523792E-01 0.  0.
         14    1    1    2    0    0  0.13694038979E-01 -0.18978572500E-01 -0.33770539200E-02  0.23645663680E-01  0.00000000000E+00 0. -1.
     999901    1    3    3    0    0 -0.86682544074E-01  0.83129924752E-01  0.84347920657E-01  0.89215414562E+00  0.88000000000E+00 0. -1.
        -11    1    4    4    0    0  0.32575014240E-01 -0.16543541468E-01 -0.34869422630E-01  0.50507010133E-01  0.51100000000E-03 0. -1.
         11    1    4    4    0    0  0.40413490856E-01 -0.47607810784E-01 -0.46101444108E-01  0.77623180563E-01  0.51100000000E-03 0.  1.
</event>
<event>
 8    1  0.1119901E+005  0.1043930E+01  0.7957747E-01            NaN
         13   -1    0    0    0    0  0.00000000000E+00  0.00000000000E+00  0.74505805969E-08  0.10566000000E+00  0.10566000000E+00 0.  1.
     999900   -1    0    0    0    0 -0.00000000000E+00 -0.00000000000E+00 -0.74505805969E-08  0.93827000000E+00  0.93827000000E+00 0. -1.
     999902    2    1    2    0    0 -0.18811889454E-01 -0.63678704584E-02 -0.22562275383E-01  0.10138718359E+01  0.10134261721E+01 0.  0.
     999903    2    3    3    0    0 -0.24349933776E-01 -0.10776686921E+00 -0.59998140909E-01  0.12724120767E+00  0.19594148132E-01 0.  0.
         14    1    1    2    0    0  0.18811889454E-01  0.63678704584E-02  0.22562275383E-01  0.30058164106E-01  0.00000000000E+00 0.  1.
     999901    1    3    3    0    0  0.55380443227E-02  0.10139899875E+00  0.37435865526E-01  0.88663062823E+00  0.88000000000E+00 0.  1.
        -11    1    4    4    0    0 -0.24281824274E-01 -0.73846223165E-01 -0.47423796659E-01  0.91061239154E-01  0.51100000000E-03 0. -1.
         11    1    4    4    0    0 -0.68109502797E-04 -0.33920646048E-01 -0.12574344251E-01  0.36179968513E-01  0.51100000000E-03 0.  1.
</event>
<event>
 8    1  0.1119901E+005  0.1043930E+01  0.7957747E-01            NaN
         13   -1    0    0    0    0  0.00000000000E+00  0.00000000000E+00  0.74505805969E-08  0.10566000000E+00  0.10566000000E+00 0.  1.
     999900   -1    0    0    0    0 -0.00000000000E+00 -0.00000000000E+00 -0.74505805969E-08  0.93827000000E+00  0.93827000000E+00 0. -1.
     999902    2    1    2    0    0 -0.49572844019E-02 -0.19632051303E-01  0.11640971841E-01  0.10205739658E+01  0.10203066771E+01 0.  0.
     999903    2    3    3    0    0  0.44746602601E-01 -0.88156405653E-01 -0.84032171698E-01  0.13134991424E+00  0.20434866984E-01 0.  0.
         14    1    1    2    0    0  0.49572844019E-02  0.19632051303E-01 -0.11640971841E-01  0.23356034175E-01  0.00000000000E+00 0. -1.
     999901    1    3    3    0    0 -0.49703887003E-01  0.68524354350E-01  0.95673143538E-01  0.88922405158E+00  0.88000000000E+00 0.  1.
        -11    1    4    4    0    0  0.16733570784E-01 -0.38024525688E-01 -0.22766519799E-01  0.47375652922E-01  0.51100000000E-03 0. -1.
         11    1    4    4    0    0  0.28013031818E-01 -0.50131879964E-01 -0.61265651899E-01  0.83974261318E-01  0.51100000000E-03 0.  1.
</event>
<event>
 8    1  0.1119901E+005  0.1043930E+01  0.7957747E-01            NaN
         13   -1    0    0    0    0  0.00000000000E+00  0.00000000000E+00  0.74505805969E-08  0.10566000000E+00  0.10566000000E+00 0. -1.
     999900   -1    0    0    0    0 -0.00000000000E+00 -0.00000000000E+00 -0.74505805969E-08  0.93827000000E+00  0.93827000000E+00 0. -1.
     999902    2    1    2    0    0  0.13423278632E-01 -0.18133367747E-01 -0.48984153910E-02  0.10208432525E+01  0.10205821615E+01 0.  0.
     999903    2    3    3    0    0  0.10136815229E+00  0.12452840949E-01  0.80812741388E-01  0.13178969995E+00  0.20180443431E-01 0.  0.
         14    1    1    2    0    0 -0.13423278632E-01  0.18133367747E-01  0.48984153910E-02  0.23086747463E-01  0.00000000000E+00 0. -1.
     999901    1    3    3    0    0 -0.87944873656E-01 -0.30586208696E-01 -0.85711156779E-01  0.88905355258E+00  0.88000000000E+00 0. -1.
        -11    1    4    4    0    0  0.49475670385E-01 -0.40095984174E-02  0.39858229235E-01  0.63662064043E-01  0.51100000000E-03 0. -1.
         11    1    4    4    0    0  0.51892481904E-01  0.16462439367E-01  0.40954512153E-01  0.68127635910E-01  0.51100000000E-03 0.  1.
</event>
<event>
 8    1  0.1119901E+005  0.1043930E+01  0.7957747E-01            NaN
         13   -1    0    0    0    0  0.00000000000E+00  0.00000000000E+00  0.74505805969E-08  0.10566000000E+00  0.10566000000E+00 0.  1.
     999900   -1    0    0    0    0 -0.00000000000E+00 -0.00000000000E+00 -0.74505805969E-08  0.93827000000E+00  0.93827000000E+00 0. -1.
     999902    2    1    2    0    0  0.80331748389E-02 -0.54415684735E-02 -0.14106316222E-01  0.10268089392E+01  0.10266661906E+01 0.  0.
     999903    2    3    3    0    0 -0.12402143680E+00  0.20399702407E-01  0.44141586895E-01  0.13467721689E+00  0.19799202340E-01 0.  0.
         14    1    1    2    0    0 -0.80331748389E-02  0.54415684735E-02  0.14106316222E-01  0.17121060797E-01  0.00000000000E+00 0.  1.
     999901    1    3    3    0    0  0.13205461163E+00 -0.25841270881E-01 -0.58247903117E-01  0.89213172231E+00  0.88000000000E+00 0.  1.
        -11    1    4    4    0    0 -0.39040293910E-01  0.66173183417E-02  0.43674142752E-02  0.39840543157E-01  0.51100000000E-03 0. -1.
         11    1    4    4    0    0 -0.84981142886E-01  0.13782384065E-01  0.39774172620E-01  0.94836673736E-01  0.51100000000E-03 0.  1.
</event>
<event>
 8    1  0.1119901E+005  0.1043930E+01  0.7957747E-01            NaN
         13   -1    0    0    0    0  0.00000000000E+00  0.00000000000E+00  0.74505805969E-08  0.10566000000E+00  0.10566000000E+00 0.  1.
     999900   -1    0    0    0    0 -0.00000000000E+00 -0.00000000000E+00 -0.74505805969E-08  0.93827000000E+00  0.93827000000E+00 0.  1.
     999902    2    1    2    0    0  0.54101332568E-02 -0.11122277398E-02 -0.23441586055E-01  0.10198465088E+01  0.10195621055E+01 0.  0.
     999903    2    3    3    0    0 -0.62135209824E-01  0.11119499196E+00  0.11448034698E-01  0.12945750919E+00  0.20076818719E-01 0.  0.
         14    1    1    2    0    0 -0.54101332568E-02  0.11122277398E-02  0.23441586055E-01  0.24083491217E-01  0.00000000000E+00 0.  1.
     999901    1    3    3    0    0  0.67545343081E-01 -0.11230721970E+00 -0.34889620754E-01  0.89038899960E+00  0.88000000000E+00 0.  1.
        -11    1    4    4    0    0 -0.73572055787E-02  0.30619851966E-01  0.38152406859E-02  0.31725714977E-01  0.51100000000E-03 0.  1.
         11    1    4    4    0    0 -0.54778004245E-01  0.80575139991E-01  0.76327940125E-02  0.97731794208E-01  0.51100000000E-03 0. -1.
</event>
<event>
 8    1  0.1119901E+005  0.1043930E+01  0.7957747E-01            NaN
         13   -1    0    0    0    0  0.00000000000E+00  0.00000000000E+00  0.74505805969E-08  0.10566000000E+00  0.10566000000E+00 0. -1.
     999900   -1    0    0    0    0 -0.00000000000E+00 -0.00000000000E+00 -0.74505805969E-08  0.93827000000E+00  0.93827000000E+00 0.  1.
     999902    2    1    2    0    0  0.73924178969E-02 -0.66388013861E-02 -0.21890999275E-01  0.10198896719E+01  0.10196062992E+01 0.  0.
     999903    2    3    3    0    0  0.78284107674E-01 -0.47737911582E-01 -0.94427302389E-01  0.13311107280E+00  0.19867877319E-01 0.  0.
         14    1    1    2    0    0 -0.73924178969E-02  0.66388013861E-02  0.21890999275E-01  0.24040328107E-01  0.00000000000E+00 0. -1.
     999901    1    3    3    0    0 -0.70891689777E-01  0.41099110196E-01  0.72536303114E-01  0.88677859909E+00  0.88000000000E+00 0. -1.
        -11    1    4    4    0    0  0.29553524935E-01 -0.16625154163E-01 -0.21947415795E-01  0.40395009198E-01  0.51100000000E-03 0.  1.
         11    1    4    4    0    0  0.48730582740E-01 -0.31112757419E-01 -0.72479886595E-01  0.92716063603E-01  0.51100000000E-03 0. -1.
</event>
<event>
 8    1  0.1119901E+005  0.1043930E+01  0.7957747E-01            NaN
         13   -1    0    0    0    0  0.00000000000E+00  0.00000000000E+00  0.74505805969E-08  0.10566000000E+00  0.10566000000E+00 0. -1.
     999900   -1    0    0    0    0 -0.00000000000E+00 -0.00000000000E+00 -0.74505805969E-08  0.93827000000E+00  0.93827000000E+00 0.  1.
     999902    2    1    2    0    0 -0.94454662149E-02  0.20914562322E-01  0.64838962645E-02  0.10200830576E+01  0.10198042792E+01 0.  0.
     999903    2    3    3    0    0 -0.22855293693E-01 -0.24093794880E-01 -0.12351034001E+00  0.12929459950E+00  0.18958216397E-01 0.  0.
         14    1    1    2    0    0  0.94454662149E-02 -0.20914562322E-01 -0.64838962645E-02  0.23846942359E-01  0.00000000000E+00 0. -1.
     999901    1    3    3    0    0  0.13409827478E-01  0.45008357202E-01  0.12999423628E+00  0.89078845814E+00  0.88000000000E+00 0. -1.
        -11    1    4    4    0    0 -0.21355385235E-01 -0.97097791052E-02 -0.68255011676E-01  0.72175757902E-01  0.51100000000E-03 0. -1.
         11    1    4    4    0    0 -0.14999084572E-02 -0.14384015775E-01 -0.55255328335E-01  0.57118841599E-01  0.51100000000E-03 0.  1.
</event>
<event>
 8    1  0.1119901E+005  0.1043930E+01  0.7957747E-01            NaN
         13   -1    0    0    0    0  0.00000000000E+00  0.00000000000E+00  0.74505805969E-08  0.10566000000E+00  0.10566000000E+00 0. -1.
     999900   -1    0    0    0    0 -0.00000000000E+00 -0.00000000000E+00 -0.74505805969E-08  0.93827000000E+00  0.93827000000E+00 0. -1.
     999902    2    1    2    0    0 -0.14790500189E-01 -0.18153390656E-01  0.11800985092E-02  0.10204843795E+01  0.10202150125E+01 0.  0.
     999903    2    3    3    0    0  0.11672823154E+00  0.46848085521E-01  0.15993873236E-01  0.12821658527E+00  0.19064773815E-01 0.  0.
         14    1    1    2    0    0  0.14790500189E-01  0.18153390656E-01 -0.11800985092E-02  0.23445620500E-01  0.00000000000E+00 0.  1.
     999901    1    3    3    0    0 -0.13151873173E+00 -0.65001476177E-01 -0.14813774727E-01  0.89226779423E+00  0.88000000000E+00 0.  1.
        -11    1    4    4    0    0  0.85359577629E-02  0.15502016500E-02 -0.33975051349E-02  0.93311233101E-02  0.51100000000E-03 0. -1.
         11    1    4    4    0    0  0.10819227378E+00  0.45297883871E-01  0.19391378371E-01  0.11888546196E+00  0.51100000000E-03 0.  1.
</event>
<event>
 8    1  0.1119901E+005  0.1043930E+01  0.7957747E-01            NaN
         13   -1    0    0    0    0  0.00000000000E+00  0.00000000000E+00  0.74505805969E-08  0.10566000000E+00  0.10566000000E+00 0.  1.
     999900   -1    0    0    0    0 -0.00000000000E+00 -0.00000000000E+00 -0.74505805969E-08  0.93827000000E+00  0.93827000000E+00 0. -1.
     999902    2    1    2    0    0  0.30663206202E-02  0.23960871424E-01 -0.12935908525E-02  0.10197391121E+01  0.10194521360E+01 0.  0.
     999903    2    3    3    0    0 -0.55511146498E-01  0.72328263582E-01  0.92546565924E-01  0.13149550849E+00  0.20330685930E-01 0.  0.
         14    1    1    2    0    0 -0.30663206202E-02 -0.23960871424E-01  0.12935908525E-02  0.24190887930E-01  0.00000000000E+00 0.  1.
     999901    1    3    3    0    0  0.58577467118E-01 -0.48367392157E-01 -0.93840156776E-01  0.88824360358E+00  0.88000000000E+00 0. -1.
        -11    1    4    4    0    0 -0.27198965587E-01  0.21413055753E-01  0.41422472205E-01  0.53985044320E-01  0.51100000000E-03 0.  1.
         11    1    4    4    0    0 -0.28312180911E-01  0.50915207829E-01  0.51124093719E-01  0.77510464169E-01  0.51100000000E-03 0. -1.
</event>
<event>
 8    1  0.1119901E+005  0.1043930E+01  0.7957747E-01            NaN
         13   -1    0    0    0    0  0.00000000000E+00  0.00000000000E+00  0.74505805969E-08  0.10566000000E+00  0.10566000000E+00 0. -1.
     999900   -1    0    0    0    0 -0.00000000000E+00 -0.00000000000E+00 -0.74505805969E-08  0.93827000000E+00  0.93827000000E+00 0.  1.
     999902    2    1    2    0    0  0.44310152353E-02 -0.50439419110E-02 -0.20915232919E-01  0.10219636117E+01  0.10217275084E+01 0.  0.
     999903    2    3    3    0    0  0.66461175228E-01  0.99381384653E-01 -0.54421820669E-01  0.13298943830E+00  0.20753522772E-01 0.  0.
         14    1    1    2    0    0 -0.44310152353E-02  0.50439419110E-02  0.20915232919E-01  0.21966388280E-01  0.00000000000E+00 0. -1.
     999901    1    3    3    0    0 -0.62030159993E-01 -0.10442532656E+00  0.33506587750E-01  0.88897417342E+00  0.88000000000E+00 0. -1.
        -11    1    4    4    0    0  0.37190417381E-01  0.37345039098E-01 -0.25346994153E-01  0.58485129083E-01  0.51100000000E-03 0. -1.
         11    1    4    4    0    0  0.29270757847E-01  0.62036345555E-01 -0.29074826515E-01  0.74504309222E-01  0.51100000000E-03 0.  1.
</event>
<event>
 8    1  0.1119901E+005  0.1043930E+01  0.7957747E-01            NaN
         13   -1    0    0    0    0  0.00000000000E+00  0.00000000000E+00  0.74505805969E-08  0.10566000000E+00  0.10566000000E+00 0. -1.
     999900   -1    0    0    0    0 -0.00000000000E+00 -0.00000000000E+00 -0.74505805969E-08  0.93827000000E+00  0.93827000000E+00 0. -1.
     999902    2    1    2    0    0 -0.64924324408E-02 -0.19601928152E-01 -0.10769893542E-01  0.10206409924E+01  0.10203752533E+01 0.  0.
     999903    2    3    3    0    0  0.32450356440E-01  0.10740228230E+00 -0.60810997471E-01  0.12926524543E+00  0.20573050000E-01 0.  0.
         14    1    1    2    0    0  0.64924324408E-02  0.19601928152E-01  0.10769893542E-01  0.23289007561E-01  0.00000000000E+00 0. -1.
     999901    1    3    3    0    0 -0.38942788881E-01 -0.12700421045E+00  0.50041103929E-01  0.89137574701E+00  0.88000000000E+00 0.  1.
        -11    1    4    4    0    0  0.59352761823E-02  0.44146485239E-01 -0.15991771276E-01  0.47330091188E-01  0.51100000000E-03 0.  1.
         11    1    4    4    0    0  0.26515080258E-01  0.63255797058E-01 -0.44819226196E-01  0.81935154240E-01  0.51100000000E-03 0. -1.
</event>
<event>
 8    1  0.1119901E+005  0.1043930E+01  0.7957747E-01            NaN
         13   -1    0    0    0    0  0.00000000000E+00  0.00000000000E+00  0.74505805969E-08  0.10566000000E+00  0.10566000000E+00 0.  1.
     999900   -1    0    0    0    0 -0.00000000000E+00 -0.00000000000E+00 -0.74505805969E-08  0.93827000000E+00  0.93827000000E+00 0.  1.
     999902    2    1    2    0    0 -0.10344453676E-01  0.20976516697E-01 -0.90564866976E-02  0.10188492918E+01  0.10185405428E+01 0.  0.
     999903    2    3    3    0    0  0.96977505452E-01 -0.78890063820E-01  0.21394644516E-02  0.12665161964E+00  0.20193482011E-01 0.  0.
         14    1    1    2    0    0  0.10344453676E-01 -0.20976516697E-01  0.90564866976E-02  0.25080708241E-01  0.00000000000E+00 0. -1.
     999901    1    3    3    0    0 -0.10732195913E+00  0.99866580516E-01 -0.11195951149E-01  0.89219767212E+00  0.88000000000E+00 0.  1.
        -11    1    4    4    0    0  0.21292832961E-01 -0.25868698023E-01  0.65209041105E-02  0.34137334172E-01  0.51100000000E-03 0.  1.
         11    1    4    4    0    0  0.75684672491E-01 -0.53021365797E-01 -0.43814396589E-02  0.92514285467E-01  0.51100000000E-03 0. -1.
</event>
<event>
 8    1  0.1119901E+005  0.1043930E+01  0.7957747E-01            NaN
         13   -1    0    0    0    0  0.00000000000E+00  0.00000000000E+00  0.74505805969E-08  0.10566000000E+00  0.10566000000E+00 0.  1.
     999900   -1    0    0    0    0 -0.00000000000E+00 -0.00000000000E+00 -0.74505805969E-08  0.93827000000E+00  0.93827000000E+00 0. -1.
     999902    2    1    2    0    0 -0.17011861229E-01  0.46203958936E-04 -0.13579324646E-01  0.10221629695E+01  0.10219311781E+01 0.  0.
     999903    2    3    3    0    0  0.66027651337E-01 -0.44825110194E-01  0.10037655812E+00  0.12980937443E+00  0.20151402570E-01 0.  0.
         14    1    1    2    0    0  0.17011861229E-01 -0.46203958936E-04  0.13579324646E-01  0.21767030462E-01  0.00000000000E+00 0. -1.
     999901    1    3    3    0    0 -0.83039512566E-01  0.44871314153E-01 -0.11395588277E+00  0.89235359511E+00  0.88000000000E+00 0. -1.
        -11    1    4    4    0    0  0.13278351219E-01 -0.17363264950E-01  0.36384705640E-01  0.42448857539E-01  0.51100000000E-03 0. -1.
         11    1    4    4    0    0  0.52749300118E-01 -0.27461845244E-01  0.63991852479E-01  0.87360516893E-01  0.51100000000E-03 0.  1.
</event>
<event>
 7    1  0.1119901E+005  0.1043930E+01  0.7957747E-01            NaN
         13   -1    0    0    0    0  0.00000000000E+00  0.00000000000E+00  0.74505805969E-08  0.10566000000E+00  0.10566000000E+00 0. -1.
     999900   -1    0    0    0    0 -0.00000000000E+00 -0.00000000000E+00 -0.74505805969E-08  0.93827000000E+00  0.93827000000E+00 0.  1.
     999903    2    1    2    0    0  0.48355058514E-01 -0.92928155363E-01 -0.87342525504E-02  0.10703635570E+00  0.20165329927E-01 0.  0.
         14    1    1    2    0    0  0.42886080852E-02 -0.18464960528E-01  0.43688011889E-01  0.47623411359E-01  0.00000000000E+00 0. -1.
     999901    1    1    2    0    0 -0.52643666600E-01  0.11139311589E+00 -0.34953759339E-01  0.88927023294E+00  0.88000000000E+00 0.  1.
        -11    1    3    3    0    0  0.32946704433E-01 -0.43334186408E-01 -0.85155566409E-02  0.55100933482E-01  0.51100000000E-03 0.  1.
         11    1    3    3    0    0  0.15408354081E-01 -0.49593968955E-01 -0.21869590949E-03  0.51935422220E-01  0.51100000000E-03 0. -1.
</event>
<event>
 8    1  0.1119901E+005  0.1043930E+01  0.7957747E-01            NaN
         13   -1    0    0    0    0  0.00000000000E+00  0.00000000000E+00  0.74505805969E-08  0.10566000000E+00  0.10566000000E+00 0. -1.
     999900   -1    0    0    0    0 -0.00000000000E+00 -0.00000000000E+00 -0.74505805969E-08  0.93827000000E+00  0.93827000000E+00 0. -1.
     999902    2    1    2    0    0 -0.52217310763E-02 -0.11189195006E-01  0.21100914630E-01  0.10194818271E+01  0.10191886394E+01 0.  0.
     999903    2    3    3    0    0  0.39607668498E-01 -0.10570583683E+00  0.66221636516E-01  0.13213806609E+00  0.18239298890E-01 0.  0.
         14    1    1    2    0    0  0.52217310763E-02  0.11189195006E-01 -0.21100914630E-01  0.24448172908E-01  0.00000000000E+00 0.  1.
     999901    1    3    3    0    0 -0.44829399575E-01  0.94516641820E-01 -0.45120721886E-01  0.88734376100E+00  0.88000000000E+00 0. -1.
        -11    1    4    4    0    0  0.20537161490E-01 -0.40614252052E-01  0.35268331394E-01  0.57579586592E-01  0.51100000000E-03 0.  1.
         11    1    4    4    0    0  0.19070507008E-01 -0.65091584774E-01  0.30953305122E-01  0.74558479497E-01  0.51100000000E-03 0. -1.
</event>
<event>
 8    1  0.1119901E+005  0.1043930E+01  0.7957747E-01            NaN
         13   -1    0    0    0    0  0.00000000000E+00  0.00000000000E+00  0.74505805969E-08  0.10566000000E+00  0.10566000000E+00 0.  1.
     999900   -1    0    0    0    0 -0.00000000000E+00 -0.00000000000E+00 -0.74505805969E-08  0.93827000000E+00  0.93827000000E+00 0.  1.
     999902    2    1    2    0    0 -0.10697371574E-01 -0.56266665569E-02  0.19104700861E-01  0.10213228611E+01  0.10210726242E+01 0.  0.
     999903    2    3    3    0    0  0.34105128603E-01  0.11394980942E+00  0.52391170261E-01  0.13148366961E+00  0.19884712427E-01 0.  0.
         14    1    1    2    0    0  0.10697371574E-01  0.56266665569E-02 -0.19104700861E-01  0.22607138920E-01  0.00000000000E+00 0. -1.
     999901    1    3    3    0    0 -0.44802500177E-01 -0.11957647598E+00 -0.33286469399E-01  0.88983919147E+00  0.88000000000E+00 0.  1.
        -11    1    4    4    0    0  0.26908269112E-01  0.55816508014E-01  0.28812390629E-01  0.68337050625E-01  0.51100000000E-03 0. -1.
         11    1    4    4    0    0  0.71968594914E-02  0.58133301410E-01  0.23578779631E-01  0.63146618985E-01  0.51100000000E-03 0.  1.
</event>
<event>
 8    1  0.1119901E+005  0.1043930E+01  0.7957747E-01            NaN
         13   -1    0    0    0    0  0.00000000000E+00  0.00000000000E+00  0.74505805969E-08  0.10566000000E+00  0.10566000000E+00 0.  1.
     999900   -1    0    0    0    0 -0.00000000000E+00 -0.00000000000E+00 -0.74505805969E-08  0.93827000000E+00  0.93827000000E+00 0. -1.
     999902    2    1    2    0    0 -0.12382552233E-01  0.98181992096E-02 -0.23014788102E-01  0.10160121722E+01  0.10156285389E+01 0.  0.
     999903    2    3    3    0    0 -0.73426791575E-02  0.71168777149E-01  0.10099922681E+00  0.12518740292E+00  0.18765187323E-01 0.  0.
         14    1    1    2    0    0  0.12382552233E-01 -0.98181992096E-02  0.23014788102E-01  0.27917827761E-01  0.00000000000E+00 0.  1.
     999901    1    3    3    0    0 -0.50398730753E-02 -0.61350577939E-01 -0.12401401492E+00  0.89082476932E+00  0.88000000000E+00 0. -1.
        -11    1    4    4    0    0  0.98690399147E-03  0.27455799452E-01  0.53208335928E-01  0.59884747944E-01  0.51100000000E-03 0.  1.
         11    1    4    4    0    0 -0.83295831490E-02  0.43712977697E-01  0.47790890885E-01  0.65302654978E-01  0.51100000000E-03 0. -1.
</event>
<event>
 8    1  0.1119901E+005  0.1043930E+01  0.7957747E-01            NaN
         13   -1    0    0    0    0  0.00000000000E+00  0.00000000000E+00  0.74505805969E-08  0.10566000000E+00  0.10566000000E+00 0.  1.
     999900   -1    0    0    0    0 -0.00000000000E+00 -0.00000000000E+00 -0.74505805969E-08  0.93827000000E+00  0.93827000000E+00 0.  1.
     999902    2    1    2    0    0 -0.21314554393E-01  0.15273973550E-01  0.25740785437E-02  0.10175817481E+01  0.10172405732E+01 0.  0.
     999903    2    3    3    0    0 -0.65083546601E-01 -0.41680593342E-01 -0.10091711948E+00  0.12861044631E+00  0.19576567501E-01 0.  0.
         14    1    1    2    0    0  0.21314554393E-01 -0.15273973550E-01 -0.25740785437E-02  0.26348251884E-01  0.00000000000E+00 0. -1.
     999901    1    3    3    0    0  0.43768992208E-01  0.56954566892E-01  0.10349119803E+00  0.88897130181E+00  0.88000000000E+00 0. -1.
        -11    1    4    4    0    0 -0.43867541759E-01 -0.30500769861E-01 -0.54277536161E-01  0.76164100696E-01  0.51100000000E-03 0.  1.
         11    1    4    4    0    0 -0.21216004841E-01 -0.11179823480E-01 -0.46639583324E-01  0.52446345612E-01  0.51100000000E-03 0. -1.
</event>
<event>
 8    1  0.1119901E+005  0.1043930E+01  0.7957747E-01            NaN
         13   -1    0    0    0    0  0.00000000000E+00  0.00000000000E+00  0.74505805969E-08  0.10566000000E+00  0.10566000000E+00 0. -1.
     999900   -1    0    0    0    0 -0.00000000000E+00 -0.00000000000E+00 -0.74505805969E-08  0.93827000000E+00  0.93827000000E+00 0. -1.
     999902    2    1    2    0    0  0.11481936387E-01  0.19251821061E-01  0.48579167702E-02  0.10209938531E+01  0.10207361958E+01 0.  0.
     999903    2    3    3    0    0  0.43641026792E-01 -0.11164495131E+00 -0.44090427460E-01  0.12938625306E+00  0.20680965042E-01 0.  0.
         14    1    1    2    0    0 -0.11481936387E-01 -0.19251821061E-01 -0.48579167702E-02  0.22936146858E-01  0.00000000000E+00 0. -1.
     999901    1    3    3    0    0 -0.32159090404E-01  0.13089677237E+00  0.48948344230E-01  0.89160760008E+00  0.88000000000E+00 0.  1.
        -11    1    4    4    0    0  0.11789864081E-01 -0.54519786938E-01 -0.25868981290E-01  0.61488806923E-01  0.51100000000E-03 0.  1.
         11    1    4    4    0    0  0.31851162710E-01 -0.57125164376E-01 -0.18221446170E-01  0.67897446141E-01  0.51100000000E-03 0. -1.
</event>
<event>
 8    1  0.1119901E+005  0.1043930E+01  0.7957747E-01            NaN
         13   -1    0    0    0    0  0.00000000000E+00  0.00000000000E+00  0.74505805969E-08  0.10566000000E+00  0.10566000000E+00 0.  1.
     999900   -1    0    0    0    0 -0.00000000000E+00 -0.00000000000E+00 -0.74505805969E-08  0.93827000000E+00  0.93827000000E+00 0. -1.
     999902    2    1    2    0    0 -0.20698967638E-01 -0.28823390156E-02  0.17037054671E-01  0.10169667589E+01  0.10166092525E+01 0.  0.
     999903    2    3    3    0    0  0.10362479910E+00  0.28710555668E-01  0.62525712875E-01  0.12650411060E+00  0.23052770631E-01 0.  0.
         14    1    1    2    0    0  0.20698967638E-01  0.28823390156E-02 -0.17037054671E-01  0.26963241114E-01  0.00000000000E+00 0. -1.
     999901    1    3    3    0    0 -0.12432376673E+00 -0.31592894683E-01 -0.45488658204E-01  0.89046264829E+00  0.88000000000E+00 0.  1.
        -11    1    4    4    0    0  0.83597492705E-01  0.23950712688E-01  0.39197847273E-01  0.95388205648E-01  0.51100000000E-03 0.  1.
         11    1    4    4    0    0  0.20027306390E-01  0.47598429795E-02  0.23327865602E-01  0.31115904952E-01  0.51100000000E-03 0. -1.
</event>
<event>
 7    1  0.1119901E+005  0.1043930E+01  0.7957747E-01            NaN
         13   -1    0    0    0    0  0.00000000000E+00  0.00000000000E+00  0.74505805969E-08  0.10566000000E+00  0.10566000000E+00 0. -1.
     999900   -1    0    0    0    0 -0.00000000000E+00 -0.00000000000E+00 -0.74505805969E-08  0.93827000000E+00  0.93827000000E+00 0.  1.
     999903    2    1    2    0    0  0.26875183361E-01 -0.37570713709E-02  0.10730714002E+00  0.11317076947E+00  0.23588338164E-01 0.  0.
         14    1    1    2    0    0  0.28363103634E-01  0.50014062474E-02 -0.36063941178E-01  0.46152871693E-01  0.00000000000E+00 0.  1.
     999901    1    1    2    0    0 -0.55238286995E-01 -0.12443348765E-02 -0.71243198839E-01  0.88460635884E+00  0.88000000000E+00 0.  1.
        -11    1    3    3    0    0  0.15300447372E-01  0.87054139132E-02  0.39272053265E-01  0.43040018702E-01  0.51100000000E-03 0.  1.
         11    1    3    3    0    0  0.11574735988E-01 -0.12462485284E-01  0.68035086751E-01  0.70130750765E-01  0.51100000000E-03 0. -1.
</event>
<event>
 8    1  0.1119901E+005  0.1043930E+01  0.7957747E-01            NaN
         13   -1    0    0    0    0  0.00000000000E+00  0.00000000000E+00  0.74505805969E-08  0.10566000000E+00  0.10566000000E+00 0. -1.
     999900   -1    0    0    0    0 -0.00000000000E+00 -0.00000000000E+00 -0.74505805969E-08  0.93827000000E+00  0.93827000000E+00 0. -1.
     999902    2    1    2    0    0 -0.27671161887E-01 -0.74369943597E-02  0.28223815304E-02  0.10151381970E+01  0.10147298118E+01 0.  0.
     999903    2    3    3    0    0  0.75601382627E-01 -0.92625769755E-01  0.28849852906E-01  0.12463284875E+00  0.20147721903E-01 0.  0.
         14    1    1    2    0    0  0.27671161887E-01  0.74369943597E-02 -0.28223815304E-02  0.28791803048E-01  0.00000000000E+00 0.  1.
     999901    1    3    3    0    0 -0.10327254451E+00  0.85188775396E-01 -0.26027471375E-01  0.89050534820E+00  0.88000000000E+00 0. -1.
        -11    1    4    4    0    0  0.67047105661E-01 -0.78548093230E-01  0.31432642219E-01  0.10795086589E+00  0.51100000000E-03 0.  1.
         11    1    4    4    0    0  0.85542769658E-02 -0.14077676526E-01 -0.25827893136E-02  0.16681982868E-01  0.51100000000E-03 0. -1.
</event>
<event>
 8    1  0.1119901E+005  0.1043930E+01  0.7957747E-01            NaN
         13   -1    0    0    0    0  0.00000000000E+00  0.00000000000E+00  0.74505805969E-08  0.10566000000E+00  0.10566000000E+00 0.  1.
     999900   -1    0    0    0    0 -0.00000000000E+00 -0.00000000000E+00 -0.74505805969E-08  0.93827000000E+00  0.93827000000E+00 0. -1.
     999902    2    1    2    0    0 -0.83301876484E-02  0.21071310218E-01 -0.61705331233E-02  0.10204466523E+01  0.10201764076E+01 0.  0.
     999903    2    3    3    0    0  0.11237178112E+00 -0.20018198243E-01  0.56424543686E-01  0.12905703119E+00  0.21067574975E-01 0.  0.
         14    1    1    2    0    0  0.83301876484E-02 -0.21071310218E-01  0.61705331233E-02  0.23483347709E-01  0.00000000000E+00 0. -1.
     999901    1    3    3    0    0 -0.12070196877E+00  0.41089508461E-01 -0.62595076809E-01  0.89138962110E+00  0.88000000000E+00 0. -1.
        -11    1    4    4    0    0  0.88125927489E-01 -0.66806130873E-02  0.42185429612E-01  0.97932023770E-01  0.51100000000E-03 0.  1.
         11    1    4    4    0    0  0.24245853633E-01 -0.13337585155E-01  0.14239114073E-01  0.31125007418E-01  0.51100000000E-03 0. -1.
</event>
<event>
 8    1  0.1119901E+005  0.1043930E+01  0.7957747E-01            NaN
         13   -1    0    0    0    0  0.00000000000E+00  0.00000000000E+00  0.74505805969E-08  0.10566000000E+00  0.10566000000E+00 0.  1.
     999900   -1    0    0    0    0 -0.00000000000E+00 -0.00000000000E+00 -0.74505805969E-08  0.93827000000E+00  0.93827000000E+00 0.  1.
     999902    2    1    2    0    0  0.74091165116E-02  0.22263478812E-01  0.17603675420E-02  0.10204000958E+01  0.10201287660E+01 0.  0.
     999903    2    3    3    0    0 -0.12587385271E+00  0.59524718569E-03 -0.24260724006E-01  0.12972004141E+00  0.19852589172E-01 0.  0.
         14    1    1    2    0    0 -0.74091165116E-02 -0.22263478812E-01 -0.17603675420E-02  0.23529904168E-01  0.00000000000E+00 0. -1.
     999901    1    3    3    0    0  0.13328296922E+00  0.21668231626E-01  0.26021091548E-01  0.89068005443E+00  0.88000000000E+00 0. -1.
        -11    1    4    4    0    0 -0.17416519019E-01  0.29922021864E-02  0.28287430980E-02  0.17903946972E-01  0.51100000000E-03 0.  1.
         11    1    4    4    0    0 -0.10845733369E+00 -0.23969550008E-02 -0.27089467104E-01  0.11181609443E+00  0.51100000000E-03 0. -1.
</event>
<event>
 8    1  0.1119901E+005  0.1043930E+01  0.7957747E-01            NaN
         13   -1    0    0    0    0  0.00000000000E+00  0.00000000000E+00  0.74505805969E-08  0.10566000000E+00  0.10566000000E+00 0.  1.
     999900   -1    0    0    0    0 -0.00000000000E+00 -0.00000000000E+00 -0.74505805969E-08  0.93827000000E+00  0.93827000000E+00 0.  1.
     999902    2    1    2    0    0  0.88036532980E-02 -0.15374125106E-01  0.15546478266E-01  0.10203596580E+01  0.10200873839E+01 0.  0.
     999903    2    3    3    0    0  0.32108193322E-01 -0.10038117010E+00 -0.75657230030E-01  0.13126606583E+00  0.19986200047E-01 0.  0.
         14    1    1    2    0    0 -0.88036532980E-02  0.15374125106E-01 -0.15546478266E-01  0.23570341971E-01  0.00000000000E+00 0. -1.
     999901    1    3    3    0    0 -0.23304540024E-01  0.85007044998E-01  0.91203708296E-01  0.88909359220E+00  0.88000000000E+00 0. -1.
        -11    1    4    4    0    0  0.13968932009E-02 -0.22157301424E-01 -0.23625831896E-01  0.32424348425E-01  0.51100000000E-03 0.  1.
         11    1    4    4    0    0  0.30711300121E-01 -0.78223868681E-01 -0.52031398134E-01  0.98841717404E-01  0.51100000000E-03 0. -1.
</event>
<event>
 8    1  0.1119901E+005  0.1043930E+01  0.7957747E-01            NaN
         13   -1    0    0    0    0  0.00000000000E+00  0.00000000000E+00  0.74505805969E-08  0.10566000000E+00  0.10566000000E+00 0. -1.
     999900   -1    0    0    0    0 -0.00000000000E+00 -0.00000000000E+00 -0.74505805969E-08  0.93827000000E+00  0.93827000000E+00 0. -1.
     999902    2    1    2    0    0 -0.12555208020E-01  0.13853354443E-01  0.17330842081E-01  0.10184367310E+01  0.10181176102E+01 0.  0.
     999903    2    3    3    0    0 -0.16852687639E-01 -0.49476799675E-01  0.11773902114E+00  0.13045532399E+00  0.20594845751E-01 0.  0.
         14    1    1    2    0    0  0.12555208020E-01 -0.13853354443E-01 -0.17330842081E-01  0.25493269013E-01  0.00000000000E+00 0. -1.
     999901    1    3    3    0    0  0.42974796190E-02  0.63330154118E-01 -0.10040817906E+00  0.88798140700E+00  0.88000000000E+00 0.  1.
        -11    1    4    4    0    0 -0.40879238857E-02 -0.21541228839E-01  0.72716705512E-01  0.75952064113E-01  0.51100000000E-03 0. -1.
         11    1    4    4    0    0 -0.12764763753E-01 -0.27935570836E-01  0.45022315627E-01  0.54503259876E-01  0.51100000000E-03 0.  1.
</event>
<event>
 8    1  0.1119901E+005  0.1043930E+01  0.7957747E-01            NaN
         13   -1    0    0    0    0  0.00000000000E+00  0.00000000000E+00  0.74505805969E-08  0.10566000000E+00  0.10566000000E+00 0. -1.
     999900   -1    0    0    0    0 -0.00000000000E+00 -0.00000000000E+00 -0.74505805969E-08  0.93827000000E+00  0.93827000000E+00 0. -1.
     999902    2    1    2    0    0  0.14728650138E-01 -0.62174221449E-02 -0.16918185980E-01  0.10206530911E+01  0.10203876311E+01 0.  0.
     999903    2    3    3    0    0 -0.77899293129E-01 -0.23051771153E-01 -0.10162975775E+00  0.13158651224E+00  0.19665160069E-01 0.  0.
         14    1    1    2    0    0 -0.14728650138E-01  0.62174221449E-02  0.16918185980E-01  0.23276908941E-01  0.00000000000E+00 0. -1.
     999901    1    3    3    0    0  0.92627943267E-01  0.16834349008E-01  0.84711571768E-01  0.88906657882E+00  0.88000000000E+00 0.  1.
        -11    1    4    4    0    0 -0.18651307761E-01 -0.14690312887E-01 -0.28945620116E-01  0.37440440954E-01  0.51100000000E-03 0.  1.
         11    1    4    4    0    0 -0.59247985368E-01 -0.83614582664E-02 -0.72684137631E-01  0.94146071286E-01  0.51100000000E-03 0. -1.
</event>
<event>
 8    1  0.1124315E+005  0.1043930E+01  0.7957747E-01            NaN
         13   -1    0    0    0    0  0.00000000000E+00  0.00000000000E+00  0.74505805969E-08  0.10566000000E+00  0.10566000000E+00 0.  1.
     999900   -1    0    0    0    0 -0.00000000000E+00 -0.00000000000E+00 -0.74505805969E-08  0.93827000000E+00  0.93827000000E+00 0. -1.
     999902    2    1    2    0    0  0.42444053589E-02  0.21967322532E-01  0.73938472540E-02  0.10203663158E+01  0.10200941972E+01 0.  0.
     999903    2    3    3    0    0  0.34423442830E-01 -0.31219821551E-01  0.12092669642E+00  0.13096800545E+00  0.19227632997E-01 0.  0.
         14    1    1    2    0    0 -0.42444053589E-02 -0.21967322532E-01 -0.73938472540E-02  0.23563684204E-01  0.00000000000E+00 0. -1.
     999901    1    3    3    0    0 -0.30179037471E-01  0.53187144083E-01 -0.11353284917E+00  0.88939831034E+00  0.88000000000E+00 0. -1.
        -11    1    4    4    0    0  0.22708417459E-01 -0.79163194552E-02  0.52958656872E-01  0.58165460506E-01  0.51100000000E-03 0.  1.
         11    1    4    4    0    0  0.11715025371E-01 -0.23303502096E-01  0.67968039551E-01  0.72802544947E-01  0.51100000000E-03 0. -1.
</event>
<event>
 8    1  0.1119901E+005  0.1043930E+01  0.7957747E-01            NaN
         13   -1    0    0    0    0  0.00000000000E+00  0.00000000000E+00  0.74505805969E-08  0.10566000000E+00  0.10566000000E+00 0. -1.
     999900   -1    0    0    0    0 -0.00000000000E+00 -0.00000000000E+00 -0.74505805969E-08  0.93827000000E+00  0.93827000000E+00 0.  1.
     999902    2    1    2    0    0 -0.11783492140E-02 -0.21496391729E-01  0.21761074351E-02  0.10222916357E+01  0.10220626056E+01 0.  0.
     999903    2    3    3    0    0  0.85546172492E-01  0.42002881200E-01 -0.86944127340E-01  0.13128337732E+00  0.24365020511E-01 0.  0.
         14    1    1    2    0    0  0.11783492140E-02  0.21496391729E-01 -0.21761074351E-02  0.21638364259E-01  0.00000000000E+00 0.  1.
     999901    1    3    3    0    0 -0.86724521706E-01 -0.63499272929E-01  0.89120234776E-01  0.89100825842E+00  0.88000000000E+00 0. -1.
        -11    1    4    4    0    0  0.26855262410E-01  0.25300760644E-01 -0.38897060333E-01  0.53615072805E-01  0.51100000000E-03 0. -1.
         11    1    4    4    0    0  0.58690910082E-01  0.16702120556E-01 -0.48047067007E-01  0.77668304516E-01  0.51100000000E-03 0.  1.
</event>
<event>
 8    1  0.1119901E+005  0.1043930E+01  0.7957747E-01            NaN
         13   -1    0    0    0    0  0.00000000000E+00  0.00000000000E+00  0.74505805969E-08  0.10566000000E+00  0.10566000000E+00 0.  1.
     999900   -1    0    0    0    0 -0.00000000000E+00 -0.00000000000E+00 -0.74505805969E-08  0.93827000000E+00  0.93827000000E+00 0. -1.
     999902    2    1    2    0    0 -0.15709654840E-01 -0.11032378186E-01  0.13130838277E-01  0.10206721941E+01  0.10204071747E+01 0.  0.
     999903    2    3    3    0    0 -0.11421989434E+00 -0.55301818156E-01 -0.33942083404E-01  0.13282090552E+00  0.19617659444E-01 0.  0.
         14    1    1    2    0    0  0.15709654840E-01  0.11032378186E-01 -0.13130838277E-01  0.23257805947E-01  0.00000000000E+00 0. -1.
     999901    1    3    3    0    0  0.98510239499E-01  0.44269439970E-01  0.47072921681E-01  0.88785128854E+00  0.88000000000E+00 0.  1.
        -11    1    4    4    0    0 -0.22150805244E-01 -0.12540865792E-01  0.94620884264E-03  0.25477203927E-01  0.51100000000E-03 0.  1.
         11    1    4    4    0    0 -0.92069089095E-01 -0.42760952364E-01 -0.34888292246E-01  0.10734370159E+00  0.51100000000E-03 0. -1.
</event>
<event>
 8    1  0.1119901E+005  0.1043930E+01  0.7957747E-01            NaN
         13   -1    0    0    0    0  0.00000000000E+00  0.00000000000E+00  0.74505805969E-08  0.10566000000E+00  0.10566000000E+00 0.  1.
     999900   -1    0    0    0    0 -0.00000000000E+00 -0.00000000000E+00 -0.74505805969E-08  0.93827000000E+00  0.93827000000E+00 0.  1.
     999902    2    1    2    0    0 -0.13129699928E-01 -0.13995831434E-02 -0.19188340922E-01  0.10206375059E+01  0.10203716863E+01 0.  0.
     999903    2    3    3    0    0 -0.76671957833E-02 -0.78164050605E-01  0.10040973591E+00  0.12921935354E+00  0.21145249242E-01 0.  0.
         14    1    1    2    0    0  0.13129699928E-01  0.13995831434E-02  0.19188340922E-01  0.23292494081E-01  0.00000000000E+00 0.  1.
     999901    1    3    3    0    0 -0.54625041448E-02  0.76764467461E-01 -0.11959807683E+00  0.89141815238E+00  0.88000000000E+00 0.  1.
        -11    1    4    4    0    0 -0.15061978935E-01 -0.52555998311E-01  0.67018915607E-01  0.86491573798E-01  0.51100000000E-03 0.  1.
         11    1    4    4    0    0  0.73947831516E-02 -0.25608052294E-01  0.33390820298E-01  0.42727779738E-01  0.51100000000E-03 0. -1.
</event>
<event>
 8    1  0.1119901E+005  0.1043930E+01  0.7957747E-01            NaN
         13   -1    0    0    0    0  0.00000000000E+00  0.00000000000E+00  0.74505805969E-08  0.10566000000E+00  0.10566000000E+00 0. -1.
     999900   -1    0    0    0    0 -0.00000000000E+00 -0.00000000000E+00 -0.74505805969E-08  0.93827000000E+00  0.93827000000E+00 0. -1.
     999902    2    1    2    0    0 -0.11893750920E-03 -0.59541709274E-02 -0.24240189518E-01  0.10189689687E+01  0.10186631956E+01 0.  0.
     999903    2    3    3    0    0 -0.69437912733E-01  0.92599744058E-01  0.50038234575E-01  0.12765797985E+00  0.19909760843E-01 0.  0.
         14    1    1    2    0    0  0.11893750920E-03  0.59541709274E-02  0.24240189518E-01  0.24961031338E-01  0.00000000000E+00 0. -1.
     999901    1    3    3    0    0  0.69318975224E-01 -0.98553914985E-01 -0.74278424093E-01  0.89131098881E+00  0.88000000000E+00 0. -1.
        -11    1    4    4    0    0 -0.11229219633E-01  0.17000280885E-01  0.17456406000E-01  0.26834532886E-01  0.51100000000E-03 0.  1.
         11    1    4    4    0    0 -0.58208693100E-01  0.75599463172E-01  0.32581828575E-01  0.10082344697E+00  0.51100000000E-03 0. -1.
</event>
<event>
 8    1  0.1119901E+005  0.1043930E+01  0.7957747E-01            NaN
         13   -1    0    0    0    0  0.00000000000E+00  0.00000000000E+00  0.74505805969E-08  0.10566000000E+00  0.10566000000E+00 0.  1.
     999900   -1    0    0    0    0 -0.00000000000E+00 -0.00000000000E+00 -0.74505805969E-08  0.93827000000E+00  0.93827000000E+00 0. -1.
     999902    2    1    2    0    0  0.14535925643E-01 -0.10818226122E-02 -0.19364141110E-01  0.10196929739E+01  0.10194048889E+01 0.  0.
     999903    2    3    3    0    0  0.57829873526E-01  0.10258646821E+00 -0.55411841505E-01  0.13181859247E+00  0.20913904753E-01 0.  0.
         14    1    1    2    0    0 -0.14535925643E-01  0.10818226122E-02  0.19364141110E-01  0.24237026125E-01  0.00000000000E+00 0.  1.
     999901    1    3    3    0    0 -0.43293947883E-01 -0.10366829082E+00  0.36047700395E-01  0.88787438140E+00  0.88000000000E+00 0.  1.
        -11    1    4    4    0    0  0.36205071136E-01  0.48192988587E-01 -0.20545031335E-01  0.63684619481E-01  0.51100000000E-03 0. -1.
         11    1    4    4    0    0  0.21624802391E-01  0.54393479619E-01 -0.34866810169E-01  0.68133972993E-01  0.51100000000E-03 0.  1.
</event>
<event>
 8    1  0.1119901E+005  0.1043930E+01  0.7957747E-01            NaN
         13   -1    0    0    0    0  0.00000000000E+00  0.00000000000E+00  0.74505805969E-08  0.10566000000E+00  0.10566000000E+00 0.  1.
     999900   -1    0    0    0    0 -0.00000000000E+00 -0.00000000000E+00 -0.74505805969E-08  0.93827000000E+00  0.93827000000E+00 0.  1.
     999902    2    1    2    0    0  0.11053634000E-01 -0.20745052704E-01  0.23280106669E-02  0.10203088300E+01  0.10200353665E+01 0.  0.
     999903    2    3    3    0    0 -0.11429555108E-01 -0.78846436702E-01  0.10378732466E+00  0.13229123055E+00  0.19538823174E-01 0.  0.
         14    1    1    2    0    0 -0.11053634000E-01  0.20745052704E-01 -0.23280106669E-02  0.23621169954E-01  0.00000000000E+00 0.  1.
     999901    1    3    3    0    0  0.22483189108E-01  0.58101383998E-01 -0.10145931399E+00  0.88801759949E+00  0.88000000000E+00 0.  1.
        -11    1    4    4    0    0 -0.75726911093E-02 -0.53925308325E-01  0.55164923116E-01  0.77515897672E-01  0.51100000000E-03 0.  1.
         11    1    4    4    0    0 -0.38568639990E-02 -0.24921128377E-01  0.48622401541E-01  0.54775332880E-01  0.51100000000E-03 0. -1.
</event>
<event>
 8    1  0.1119901E+005  0.1043930E+01  0.7957747E-01            NaN
         13   -1    0    0    0    0  0.00000000000E+00  0.00000000000E+00  0.74505805969E-08  0.10566000000E+00  0.10566000000E+00 0.  1.
     999900   -1    0    0    0    0 -0.00000000000E+00 -0.00000000000E+00 -0.74505805969E-08  0.93827000000E+00  0.93827000000E+00 0.  1.
     999902    2    1    2    0    0  0.15691266350E-01 -0.35624509268E-02 -0.30874975064E-01  0.10091137541E+01  0.10085129636E+01 0.  0.
     999903    2    3    3    0    0 -0.62098956774E-01 -0.13147119001E-01 -0.10195480342E+00  0.12277548530E+00  0.25493345771E-01 0.  0.
         14    1    1    2    0    0 -0.15691266350E-01  0.35624509268E-02  0.30874975064E-01  0.34816245941E-01  0.00000000000E+00 0.  1.
     999901    1    3    3    0    0  0.77790223124E-01  0.95846680740E-02  0.71079828356E-01  0.88633826876E+00  0.88000000000E+00 0. -1.
        -11    1    4    4    0    0 -0.26102469193E-01 -0.17571927203E-01 -0.38933569297E-01  0.50061916292E-01  0.51100000000E-03 0.  1.
         11    1    4    4    0    0 -0.35996487581E-01  0.44248082026E-02 -0.63021234123E-01  0.72713569003E-01  0.51100000000E-03 0. -1.
</event>
<event>
 8    1  0.1119901E+005  0.1043930E+01  0.7957747E-01            NaN
         13   -1    0    0    0    0  0.00000000000E+00  0.00000000000E+00  0.74505805969E-08  0.10566000000E+00  0.10566000000E+00 0.  1.
     999900   -1    0    0    0    0 -0.00000000000E+00 -0.00000000000E+00 -0.74505805969E-08  0.93827000000E+00  0.93827000000E+00 0. -1.
     999902    2    1    2    0    0 -0.15787507519E-02 -0.11497096900E-01 -0.20844390401E-01  0.10200728354E+01  0.10197938151E+01 0.  0.
     999903    2    3    3    0    0 -0.10491350753E+00  0.39422233243E-01  0.60398221280E-01  0.12885388807E+00  0.19860080590E-01 0.  0.
         14    1    1    2    0    0  0.15787507519E-02  0.11497096900E-01  0.20844390401E-01  0.23857164590E-01  0.00000000000E+00 0.  1.
     999901    1    3    3    0    0  0.10333475678E+00 -0.50919330143E-01 -0.81242611682E-01  0.89121894734E+00  0.88000000000E+00 0.  1.
        -11    1    4    4    0    0 -0.34546184595E-01  0.10659750138E-01  0.95549839329E-02  0.37398235013E-01  0.51100000000E-03 0.  1.
         11    1    4    4    0    0 -0.70367322937E-01  0.28762483104E-01  0.50843237348E-01  0.91455653060E-01  0.51100000000E-03 0. -1.
</event>
<event>
 8    1  0.1119901E+005  0.1043930E+01  0.7957747E-01            NaN
         13   -1    0    0    0    0  0.00000000000E+00  0.00000000000E+00  0.74505805969E-08  0.10566000000E+00  0.10566000000E+00 0.  1.
     999900   -1    0    0    0    0 -0.00000000000E+00 -0.00000000000E+00 -0.74505805969E-08  0.93827000000E+00  0.93827000000E+00 0. -1.
     999902    2    1    2    0    0 -0.77750204735E-02  0.22006160997E-01  0.48214119250E-03  0.10205857389E+01  0.10203187227E+01 0.  0.
     999903    2    3    3    0    0 -0.44246630432E-01  0.78238288640E-01  0.95974284393E-01  0.13288591357E+00  0.19199183502E-01 0.  0.
         14    1    1    2    0    0  0.77750204735E-02 -0.22006160997E-01 -0.48214119250E-03  0.23344261079E-01  0.00000000000E+00 0.  1.
     999901    1    3    3    0    0  0.36471609958E-01 -0.56232127643E-01 -0.95492143200E-01  0.88769982535E+00  0.88000000000E+00 0.  1.
        -11    1    4    4    0    0 -0.18883277640E-01  0.52204543194E-01  0.59995003583E-01  0.81740773672E-01  0.51100000000E-03 0.  1.
         11    1    4    4    0    0 -0.25363352792E-01  0.26033745446E-01  0.35979280810E-01  0.51145139900E-01  0.51100000000E-03 0. -1.
</event>
<event>
 8    1  0.1119901E+005  0.1043930E+01  0.7957747E-01            NaN
         13   -1    0    0    0    0  0.00000000000E+00  0.00000000000E+00  0.74505805969E-08  0.10566000000E+00  0.10566000000E+00 0. -1.
     999900   -1    0    0    0    0 -0.00000000000E+00 -0.00000000000E+00 -0.74505805969E-08  0.93827000000E+00  0.93827000000E+00 0. -1.
     999902    2    1    2    0    0 -0.12057750816E-01 -0.15782747281E-01 -0.13234294080E-01  0.10200630562E+01  0.10197838044E+01 0.  0.
     999903    2    3    3    0    0  0.11235402533E+00 -0.42341072287E-01  0.43035741079E-01  0.12913659935E+00  0.20198833408E-01 0.  0.
         14    1    1    2    0    0  0.12057750816E-01  0.15782747281E-01  0.13234294080E-01  0.23866943798E-01  0.00000000000E+00 0. -1.
     999901    1    3    3    0    0 -0.12441177614E+00  0.26558325006E-01 -0.56270035159E-01  0.89092645686E+00  0.88000000000E+00 0.  1.
        -11    1    4    4    0    0  0.85389644776E-01 -0.40183470772E-01  0.37315857677E-01  0.10148318636E+00  0.51100000000E-03 0. -1.
         11    1    4    4    0    0  0.26964380549E-01 -0.21576015156E-02  0.57198834019E-02  0.27653412987E-01  0.51100000000E-03 0.  1.
</event>
<event>
 8    1  0.1119901E+005  0.1043930E+01  0.7957747E-01            NaN
         13   -1    0    0    0    0  0.00000000000E+00  0.00000000000E+00  0.74505805969E-08  0.10566000000E+00  0.10566000000E+00 0.  1.
     999900   -1    0    0    0    0 -0.00000000000E+00 -0.00000000000E+00 -0.74505805969E-08  0.93827000000E+00  0.93827000000E+00 0. -1.
     999902    2    1    2    0    0  0.20235269500E-01  0.11078917524E-01  0.38503576001E-02  0.10205412463E+01  0.10202731995E+01 0.  0.
     999903    2    3    3    0    0 -0.12946993879E-01  0.12501153102E+00 -0.34714317618E-01  0.13173927895E+00  0.18832053289E-01 0.  0.
         14    1    1    2    0    0 -0.20235269500E-01 -0.11078917524E-01 -0.38503576001E-02  0.23388753684E-01  0.00000000000E+00 0.  1.
     999901    1    3    3    0    0  0.33182263379E-01 -0.11393261350E+00  0.38564675219E-01  0.88880196737E+00  0.88000000000E+00 0.  1.
        -11    1    4    4    0    0  0.30601093211E-02  0.29701288141E-01 -0.13597125431E-01  0.32812706796E-01  0.51100000000E-03 0. -1.
         11    1    4    4    0    0 -0.16007103200E-01  0.95310242881E-01 -0.21117192188E-01  0.98926572152E-01  0.51100000000E-03 0.  1.
</event>
<event>
 8    1  0.1119901E+005  0.1043930E+01  0.7957747E-01            NaN
         13   -1    0    0    0    0  0.00000000000E+00  0.00000000000E+00  0.74505805969E-08  0.10566000000E+00  0.10566000000E+00 0.  1.
     999900   -1    0    0    0    0 -0.00000000000E+00 -0.00000000000E+00 -0.74505805969E-08  0.93827000000E+00  0.93827000000E+00 0. -1.
     999902    2    1    2    0    0  0.13042881749E-01 -0.12898006047E-01 -0.16545790970E-01  0.10192269936E+01  0.10189275863E+01 0.  0.
     999903    2    3    3    0    0  0.42199039509E-01 -0.11737105368E+00 -0.40081434742E-01  0.13225538996E+00  0.18117493899E-01 0.  0.
         14    1    1    2    0    0 -0.13042881749E-01  0.12898006047E-01  0.16545790970E-01  0.24703006358E-01  0.00000000000E+00 0.  1.
     999901    1    3    3    0    0 -0.29156157761E-01  0.10447304763E+00  0.23535643773E-01  0.88697160369E+00  0.88000000000E+00 0.  1.
        -11    1    4    4    0    0  0.14941240519E-01 -0.60402110517E-01 -0.26624225500E-01  0.67681357312E-01  0.51100000000E-03 0.  1.
         11    1    4    4    0    0  0.27257798990E-01 -0.56968943159E-01 -0.13457209243E-01  0.64574032645E-01  0.51100000000E-03 0. -1.
</event>
<event>
 8    1  0.1720471E+005  0.1043930E+01  0.7957747E-01            NaN
         13   -1    0    0    0    0  0.00000000000E+00  0.00000000000E+00  0.74505805969E-08  0.10566000000E+00  0.10566000000E+00 0.  1.
     999900   -1    0    0    0    0 -0.00000000000E+00 -0.00000000000E+00 -0.74505805969E-08  0.93827000000E+00  0.93827000000E+00 0. -1.
     999902    2    1    2    0    0  0.12176498200E-01 -0.13681392845E-01  0.14346865673E-01  0.10206645713E+01  0.10203993762E+01 0.  0.
     999903    2    3    3    0    0 -0.40552438625E-01 -0.12324596357E+00  0.15757795122E-01  0.13230274936E+00  0.20533912582E-01 0.  0.
         14    1    1    2    0    0 -0.12176498200E-01  0.13681392845E-01 -0.14346865673E-01  0.23265428714E-01  0.00000000000E+00 0.  1.
     999901    1    3    3    0    0  0.52728936825E-01  0.10956457072E+00 -0.14109294497E-02  0.88836182193E+00  0.88000000000E+00 0. -1.
        -11    1    4    4    0    0 -0.20550887397E-01 -0.55933460420E-01  0.17335507590E-01  0.62061839416E-01  0.51100000000E-03 0.  1.
         11    1    4    4    0    0 -0.20001551228E-01 -0.67312503150E-01 -0.15777124673E-02  0.70240909942E-01  0.51100000000E-03 0. -1.
</event>
<event>
 8    1  0.1119901E+005  0.1043930E+01  0.7957747E-01            NaN
         13   -1    0    0    0    0  0.00000000000E+00  0.00000000000E+00  0.74505805969E-08  0.10566000000E+00  0.10566000000E+00 0. -1.
     999900   -1    0    0    0    0 -0.00000000000E+00 -0.00000000000E+00 -0.74505805969E-08  0.93827000000E+00  0.93827000000E+00 0. -1.
     999902    2    1    2    0    0 -0.10268559152E-01  0.10474682629E-01 -0.19425039549E-01  0.10195887912E+01  0.10192981942E+01 0.  0.
     999903    2    3    3    0    0 -0.46830884746E-01  0.11887608504E+00  0.21580885139E-01  0.13123686009E+00  0.20802006673E-01 0.  0.
         14    1    1    2    0    0  0.10268559152E-01 -0.10474682629E-01  0.19425039549E-01  0.24341208777E-01  0.00000000000E+00 0. -1.
     999901    1    3    3    0    0  0.36562325595E-01 -0.10840140241E+00 -0.41005924689E-01  0.88835193114E+00  0.88000000000E+00 0. -1.
        -11    1    4    4    0    0 -0.67938663355E-02  0.35627970276E-01 -0.42125650299E-03  0.36275990184E-01  0.51100000000E-03 0. -1.
         11    1    4    4    0    0 -0.40037018411E-01  0.83248114761E-01  0.22002141642E-01  0.94960869901E-01  0.51100000000E-03 0.  1.
</event>
<event>
 8    1  0.1119901E+005  0.1043930E+01  0.7957747E-01            NaN
         13   -1    0    0    0    0  0.00000000000E+00  0.00000000000E+00  0.74505805969E-08  0.10566000000E+00  0.10566000000E+00 0. -1.
     999900   -1    0    0    0    0 -0.00000000000E+00 -0.00000000000E+00 -0.74505805969E-08  0.93827000000E+00  0.93827000000E+00 0.  1.
     999902    2    1    2    0    0  0.11356202492E-01  0.14648908255E-01 -0.13457020142E-01  0.10210248643E+01  0.10207679111E+01 0.  0.
     999903    2    3    3    0    0 -0.23056582759E-01 -0.63337517887E-01  0.10770591713E+00  0.12864233437E+00  0.20125566494E-01 0.  0.
         14    1    1    2    0    0 -0.11356202492E-01 -0.14648908255E-01  0.13457020142E-01  0.22905135651E-01  0.00000000000E+00 0.  1.
     999901    1    3    3    0    0  0.34412785251E-01  0.77986426142E-01 -0.12116293727E+00  0.89238252998E+00  0.88000000000E+00 0.  1.
        -11    1    4    4    0    0 -0.96532396041E-02 -0.94777899667E-02  0.12435558029E-01  0.18382539596E-01  0.51100000000E-03 0. -1.
         11    1    4    4    0    0 -0.13403343155E-01 -0.53859727920E-01  0.95270359096E-01  0.11025979477E+00  0.51100000000E-03 0.  1.
</event>
<event>
 7    1  0.1119901E+005  0.1043930E+01  0.7957747E-01            NaN
         13   -1    0    0    0    0  0.00000000000E+00  0.00000000000E+00  0.74505805969E-08  0.10566000000E+00  0.10566000000E+00 0.  1.
     999900   -1    0    0    0    0 -0.00000000000E+00 -0.00000000000E+00 -0.74505805969E-08  0.93827000000E+00  0.93827000000E+00 0. -1.
     999903    2    1    2    0    0 -0.94902186787E-01  0.47041706944E-01  0.10838428108E-01  0.10813679010E+00  0.18887736788E-01 0.  0.
         14    1    1    2    0    0 -0.23179532437E-01 -0.23336409772E-01 -0.33975388949E-01  0.47288537716E-01  0.00000000000E+00 0. -1.
     999901    1    1    2    0    0  0.11808171922E+00 -0.23705297172E-01  0.23136960841E-01  0.88850467218E+00  0.88000000000E+00 0.  1.
        -11    1    3    3    0    0 -0.23433637498E-01  0.15436802460E-01  0.10568569982E-01  0.29989765405E-01  0.51100000000E-03 0. -1.
         11    1    3    3    0    0 -0.71468549289E-01  0.31604904483E-01  0.26985812650E-03  0.78147024699E-01  0.51100000000E-03 0.  1.
</event>
<event>
 8    1  0.1119901E+005  0.1043930E+01  0.7957747E-01            NaN
         13   -1    0    0    0    0  0.00000000000E+00  0.00000000000E+00  0.74505805969E-08  0.10566000000E+00  0.10566000000E+00 0. -1.
     999900   -1    0    0    0    0 -0.00000000000E+00 -0.00000000000E+00 -0.74505805969E-08  0.93827000000E+00  0.93827000000E+00 0.  1.
     999902    2    1    2    0    0  0.17387592937E-01 -0.14933269016E-01 -0.55224937947E-02  0.10203539772E+01  0.10200815703E+01 0.  0.
     999903    2    3    3    0    0 -0.53076087624E-01 -0.35872355451E-01 -0.11230040707E+00  0.13085687304E+00  0.20205019920E-01 0.  0.
         14    1    1    2    0    0 -0.17387592937E-01  0.14933269016E-01  0.55224937947E-02  0.23576022763E-01  0.00000000000E+00 0. -1.
     999901    1    3    3    0    0  0.70463680560E-01  0.20939086435E-01  0.10677791327E+00  0.88949710420E+00  0.88000000000E+00 0. -1.
        -11    1    4    4    0    0 -0.40383683872E-01 -0.36408280207E-01 -0.88377769198E-01  0.10376558196E+00  0.51100000000E-03 0. -1.
         11    1    4    4    0    0 -0.12692403751E-01  0.53592475515E-03 -0.23922637870E-01  0.27091291072E-01  0.51100000000E-03 0.  1.
</event>
<event>
 8    1  0.1119901E+005  0.1043930E+01  0.7957747E-01            NaN
         13   -1    0    0    0    0  0.00000000000E+00  0.00000000000E+00  0.74505805969E-08  0.10566000000E+00  0.10566000000E+00 0. -1.
     999900   -1    0    0    0    0 -0.00000000000E+00 -0.00000000000E+00 -0.74505805969E-08  0.93827000000E+00  0.93827000000E+00 0. -1.
     999902    2    1    2    0    0  0.21763184618E-01 -0.76927714119E-02  0.74152662552E-04  0.10208470965E+01  0.10205860933E+01 0.  0.
     999903    2    3    3    0    0 -0.63194363595E-01  0.52764004844E-02 -0.11120583819E+00  0.12968537109E+00  0.20740998897E-01 0.  0.
         14    1    1    2    0    0 -0.21763184618E-01  0.76927714119E-02 -0.74152662552E-04  0.23082903529E-01  0.00000000000E+00 0. -1.
     999901    1    3    3    0    0  0.84957548213E-01 -0.12969171896E-01  0.11127999085E+00  0.89116172538E+00  0.88000000000E+00 0.  1.
        -11    1    4    4    0    0 -0.24007706542E-01  0.86938889753E-02 -0.59226893492E-01  0.64498369845E-01  0.51100000000E-03 0.  1.
         11    1    4    4    0    0 -0.39186657053E-01 -0.34174884909E-02 -0.51978944699E-01  0.65187001247E-01  0.51100000000E-03 0. -1.
</event>
<event>
 8    1  0.1119901E+005  0.1043930E+01  0.7957747E-01            NaN
         13   -1    0    0    0    0  0.00000000000E+00  0.00000000000E+00  0.74505805969E-08  0.10566000000E+00  0.10566000000E+00 0.  1.
     999900   -1    0    0    0    0 -0.00000000000E+00 -0.00000000000E+00 -0.74505805969E-08  0.93827000000E+00  0.93827000000E+00 0. -1.
     999902    2    1    2    0    0  0.48939893438E-02 -0.17333014297E-01 -0.15886540131E-01  0.10199140329E+01  0.10196312411E+01 0.  0.
     999903    2    3    3    0    0 -0.75909328330E-01 -0.46042212244E-01 -0.95764606134E-01  0.13214497535E+00  0.20231739576E-01 0.  0.
         14    1    1    2    0    0 -0.48939893438E-02  0.17333014297E-01  0.15886540131E-01  0.24015967056E-01  0.00000000000E+00 0.  1.
     999901    1    3    3    0    0  0.80803317674E-01  0.28709197947E-01  0.79878066003E-01  0.88776905759E+00  0.88000000000E+00 0.  1.
        -11    1    4    4    0    0 -0.42449317521E-01 -0.28998973449E-01 -0.68918532623E-01  0.85982034629E-01  0.51100000000E-03 0.  1.
         11    1    4    4    0    0 -0.33460010809E-01 -0.17043238795E-01 -0.26846073511E-01  0.46162940720E-01  0.51100000000E-03 0. -1.
</event>
<event>
 8    1  0.1119901E+005  0.1043930E+01  0.7957747E-01            NaN
         13   -1    0    0    0    0  0.00000000000E+00  0.00000000000E+00  0.74505805969E-08  0.10566000000E+00  0.10566000000E+00 0.  1.
     999900   -1    0    0    0    0 -0.00000000000E+00 -0.00000000000E+00 -0.74505805969E-08  0.93827000000E+00  0.93827000000E+00 0. -1.
     999902    2    1    2    0    0  0.86078213174E-02 -0.21524755193E-01 -0.12057484214E-01  0.10177996996E+01  0.10174642185E+01 0.  0.
     999903    2    3    3    0    0  0.83783833574E-01 -0.60715424464E-01 -0.78156759523E-01  0.13125784746E+00  0.20348216751E-01 0.  0.
         14    1    1    2    0    0 -0.86078213174E-02  0.21524755193E-01  0.12057484214E-01  0.26130300411E-01  0.00000000000E+00 0.  1.
     999901    1    3    3    0    0 -0.75176012257E-01  0.39190669271E-01  0.66099275309E-01  0.88654185213E+00  0.88000000000E+00 0.  1.
        -11    1    4    4    0    0  0.72237890127E-01 -0.47873611267E-01 -0.56082259180E-01  0.10322633550E+00  0.51100000000E-03 0.  1.
         11    1    4    4    0    0  0.11545943447E-01 -0.12841813198E-01 -0.22074500343E-01  0.28031511958E-01  0.51100000000E-03 0. -1.
</event>
<event>
 8    1  0.1119901E+005  0.1043930E+01  0.7957747E-01            NaN
         13   -1    0    0    0    0  0.00000000000E+00  0.00000000000E+00  0.74505805969E-08  0.10566000000E+00  0.10566000000E+00 0. -1.
     999900   -1    0    0    0    0 -0.00000000000E+00 -0.00000000000E+00 -0.74505805969E-08  0.93827000000E+00  0.93827000000E+00 0. -1.
     999902    2    1    2    0    0 -0.26734227154E-01  0.66374931702E-02  0.47460343629E-02  0.10159782548E+01  0.10155936757E+01 0.  0.
     999903    2    3    3    0    0 -0.55392643084E-01 -0.17853932799E-01 -0.11223273626E+00  0.12743722169E+00  0.16029677507E-01 0.  0.
         14    1    1    2    0    0  0.26734227154E-01 -0.66374931702E-02 -0.47460343629E-02  0.27951745192E-01  0.00000000000E+00 0.  1.
     999901    1    3    3    0    0  0.28658415929E-01  0.24491425970E-01  0.11697877062E+00  0.88854103311E+00  0.88000000000E+00 0.  1.
        -11    1    4    4    0    0 -0.42588855618E-01 -0.17976529206E-01 -0.75457639063E-01  0.88493404495E-01  0.51100000000E-03 0. -1.
         11    1    4    4    0    0 -0.12803787466E-01  0.12259640633E-03 -0.36775097196E-01  0.38943817200E-01  0.51100000000E-03 0.  1.
</event>
<event>
 8    1  0.1119901E+005  0.1043930E+01  0.7957747E-01            NaN
         13   -1    0    0    0    0  0.00000000000E+00  0.00000000000E+00  0.74505805969E-08  0.10566000000E+00  0.10566000000E+00 0. -1.
     999900   -1    0    0    0    0 -0.00000000000E+00 -0.00000000000E+00 -0.74505805969E-08  0.93827000000E+00  0.93827000000E+00 0.  1.
     999902    2    1    2    0    0 -0.21649812171E-01 -0.10857294857E-01  0.27259072900E-03  0.10197087382E+01  0.10194210323E+01 0.  0.
     999903    2    3    3    0    0  0.56697550627E-01  0.11222510440E+00  0.98015245425E-02  0.12764462229E+00  0.19697548390E-01 0.  0.
         14    1    1    2    0    0  0.21649812171E-01  0.10857294857E-01 -0.27259072900E-03  0.24221261824E-01  0.00000000000E+00 0.  1.
     999901    1    3    3    0    0 -0.78347362798E-01 -0.12308239926E+00 -0.95289338135E-02  0.89206411588E+00  0.88000000000E+00 0. -1.
        -11    1    4    4    0    0  0.19524571585E-01  0.49533619487E-01  0.12561131636E-01  0.54706777497E-01  0.51100000000E-03 0. -1.
         11    1    4    4    0    0  0.37172979042E-01  0.62691484912E-01 -0.27596070933E-02  0.72937844797E-01  0.51100000000E-03 0.  1.
</event>
<event>
 8    1  0.1119901E+005  0.1043930E+01  0.7957747E-01            NaN
         13   -1    0    0    0    0  0.00000000000E+00  0.00000000000E+00  0.74505805969E-08  0.10566000000E+00  0.10566000000E+00 0. -1.
     999900   -1    0    0    0    0 -0.00000000000E+00 -0.00000000000E+00 -0.74505805969E-08  0.93827000000E+00  0.93827000000E+00 0. -1.
     999902    2    1    2    0    0  0.14519776760E-01  0.14752303603E-02 -0.19072635415E-01  0.10199140544E+01  0.10196312631E+01 0.  0.
     999903    2    3    3    0    0  0.51590062149E-03 -0.17905935919E-01  0.12516547104E+00  0.12785106922E+00  0.18937055415E-01 0.  0.
         14    1    1    2    0    0 -0.14519776760E-01 -0.14752303603E-02  0.19072635415E-01  0.24015945608E-01  0.00000000000E+00 0. -1.
     999901    1    3    3    0    0  0.14003876138E-01  0.19381166279E-01 -0.14423810645E+00  0.89206298517E+00  0.88000000000E+00 0. -1.
        -11    1    4    4    0    0  0.96773257059E-02 -0.87337117609E-02  0.58891275583E-01  0.60318917553E-01  0.51100000000E-03 0.  1.
         11    1    4    4    0    0 -0.91614250844E-02 -0.91722241577E-02  0.66274195452E-01  0.67532151672E-01  0.51100000000E-03 0. -1.
</event>
<event>
 8    1  0.1119901E+005  0.1043930E+01  0.7957747E-01            NaN
         13   -1    0    0    0    0  0.00000000000E+00  0.00000000000E+00  0.74505805969E-08  0.10566000000E+00  0.10566000000E+00 0.  1.
     999900   -1    0    0    0    0 -0.00000000000E+00 -0.00000000000E+00 -0.74505805969E-08  0.93827000000E+00  0.93827000000E+00 0. -1.
     999902    2    1    2    0    0  0.14110871586E-01 -0.41718514372E-02  0.19238948971E-01  0.10197089720E+01  0.10194212718E+01 0.  0.
     999903    2    3    3    0    0 -0.41582499099E-01 -0.23185355636E-01  0.12104935972E+00  0.13188656596E+00  0.21781961431E-01 0.  0.
         14    1    1    2    0    0 -0.14110871586E-01  0.41718514372E-02 -0.19238948971E-01  0.24221028030E-01  0.00000000000E+00 0. -1.
     999901    1    3    3    0    0  0.55693370685E-01  0.19013504199E-01 -0.10181041075E+00  0.88782240601E+00  0.88000000000E+00 0.  1.
        -11    1    4    4    0    0 -0.43325070999E-01 -0.19370779222E-01  0.10393768999E+00  0.11426107555E+00  0.51100000000E-03 0.  1.
         11    1    4    4    0    0  0.17425718994E-02 -0.38145764143E-02  0.17111669737E-01  0.17625490411E-01  0.51100000000E-03 0. -1.
</event>
<event>
 8    1  0.1119901E+005  0.1043930E+01  0.7957747E-01            NaN
         13   -1    0    0    0    0  0.00000000000E+00  0.00000000000E+00  0.74505805969E-08  0.10566000000E+00  0.10566000000E+00 0.  1.
     999900   -1    0    0    0    0 -0.00000000000E+00 -0.00000000000E+00 -0.74505805969E-08  0.93827000000E+00  0.93827000000E+00 0. -1.
     999902    2    1    2    0    0  0.50069382284E-02 -0.22095281851E-01 -0.69137007958E-02  0.10202430802E+01  0.10199680743E+01 0.  0.
     999903    2    3    3    0    0  0.99444053003E-01 -0.64319057064E-02  0.81700872628E-01  0.13062729088E+00  0.21400173968E-01 0.  0.
         14    1    1    2    0    0 -0.50069382284E-02  0.22095281851E-01  0.69137007958E-02  0.23686919791E-01  0.00000000000E+00 0.  1.
     999901    1    3    3    0    0 -0.94437114775E-01 -0.15663376144E-01 -0.88614573424E-01  0.88961578933E+00  0.88000000000E+00 0. -1.
        -11    1    4    4    0    0  0.91003541090E-01 -0.11694894613E-01  0.76067672283E-01  0.11918459187E+00  0.51100000000E-03 0.  1.
         11    1    4    4    0    0  0.84405119131E-02  0.52629889065E-02  0.56332003455E-02  0.11442699014E-01  0.51100000000E-03 0. -1.
</event>
<event>
 8    1  0.1119901E+005  0.1043930E+01  0.7957747E-01            NaN
         13   -1    0    0    0    0  0.00000000000E+00  0.00000000000E+00  0.74505805969E-08  0.10566000000E+00  0.10566000000E+00 0.  1.
     999900   -1    0    0    0    0 -0.00000000000E+00 -0.00000000000E+00 -0.74505805969E-08  0.93827000000E+00  0.93827000000E+00 0. -1.
     999902    2    1    2    0    0  0.17950725819E-01 -0.16155177082E-01 -0.50210436588E-03  0.10197748678E+01  0.10194887496E+01 0.  0.
     999903    2    3    3    0    0 -0.68107376527E-01 -0.45610364870E-01 -0.98469454563E-01  0.12967868939E+00  0.20035191034E-01 0.  0.
         14    1    1    2    0    0 -0.17950725819E-01  0.16155177082E-01  0.50210436588E-03  0.24155132224E-01  0.00000000000E+00 0. -1.
     999901    1    3    3    0    0  0.86058102346E-01  0.29455187788E-01  0.97967350197E-01  0.89009617838E+00  0.88000000000E+00 0.  1.
        -11    1    4    4    0    0 -0.64464939334E-01 -0.38003941949E-01 -0.81029634549E-01  0.11030000364E+00  0.51100000000E-03 0.  1.
         11    1    4    4    0    0 -0.36424371928E-02 -0.76064229213E-02 -0.17439820015E-01  0.19378685753E-01  0.51100000000E-03 0. -1.
</event>
<event>
 8    1  0.1119901E+005  0.1043930E+01  0.7957747E-01            NaN
         13   -1    0    0    0    0  0.00000000000E+00  0.00000000000E+00  0.74505805969E-08  0.10566000000E+00  0.10566000000E+00 0.  1.
     999900   -1    0    0    0    0 -0.00000000000E+00 -0.00000000000E+00 -0.74505805969E-08  0.93827000000E+00  0.93827000000E+00 0. -1.
     999902    2    1    2    0    0  0.41377964590E-02 -0.18015051885E-01  0.14823218571E-01  0.10202363033E+01  0.10199611381E+01 0.  0.
     999903    2    3    3    0    0  0.69409213152E-01 -0.87844485090E-01 -0.65519232002E-01  0.13142168994E+00  0.21085501973E-01 0.  0.
         14    1    1    2    0    0 -0.41377964590E-02  0.18015051885E-01 -0.14823218571E-01  0.23693696688E-01  0.00000000000E+00 0.  1.
     999901    1    3    3    0    0 -0.65271416693E-01  0.69829433205E-01  0.80342450573E-01  0.88881461337E+00  0.88000000000E+00 0.  1.
        -11    1    4    4    0    0  0.62915593061E-01 -0.86968146712E-01 -0.61296675565E-01  0.12360976478E+00  0.51100000000E-03 0. -1.
         11    1    4    4    0    0  0.64936200909E-02 -0.87633837810E-03 -0.42225564363E-02  0.78119251594E-02  0.51100000000E-03 0.  1.
</event>
<event>
 8    1  0.1119901E+005  0.1043930E+01  0.7957747E-01            NaN
         13   -1    0    0    0    0  0.00000000000E+00  0.00000000000E+00  0.74505805969E-08  0.10566000000E+00  0.10566000000E+00 0. -1.
     999900   -1    0    0    0    0 -0.00000000000E+00 -0.00000000000E+00 -0.74505805969E-08  0.93827000000E+00  0.93827000000E+00 0. -1.
     999902    2    1    2    0    0  0.14016494049E-01  0.13728216386E-01 -0.12100620072E-01  0.10208789472E+01  0.10206186720E+01 0.  0.
     999903    2    3    3    0    0 -0.10591125121E+00  0.48555325743E-01  0.53216169015E-01  0.12966523847E+00  0.20156900380E-01 0.  0.
         14    1    1    2    0    0 -0.14016494049E-01 -0.13728216386E-01  0.12100620072E-01  0.23051052833E-01  0.00000000000E+00 0. -1.
     999901    1    3    3    0    0  0.11992774526E+00 -0.34827109358E-01 -0.65316789088E-01  0.89121370869E+00  0.88000000000E+00 0.  1.
        -11    1    4    4    0    0 -0.41347724724E-01  0.88827646337E-02  0.15775223932E-01  0.45140410482E-01  0.51100000000E-03 0. -1.
         11    1    4    4    0    0 -0.64563526485E-01  0.39672561110E-01  0.37440945083E-01  0.84524827991E-01  0.51100000000E-03 0.  1.
</event>
<event>
 8    1  0.1119901E+005  0.1043930E+01  0.7957747E-01            NaN
         13   -1    0    0    0    0  0.00000000000E+00  0.00000000000E+00  0.74505805969E-08  0.10566000000E+00  0.10566000000E+00 0. -1.
     999900   -1    0    0    0    0 -0.00000000000E+00 -0.00000000000E+00 -0.74505805969E-08  0.93827000000E+00  0.93827000000E+00 0.  1.
     999902    2    1    2    0    0  0.18383907614E-01 -0.69188775505E-02  0.14223558147E-01  0.10196782262E+01  0.10193897863E+01 0.  0.
     999903    2    3    3    0    0  0.10848651954E+00 -0.35991389434E-01 -0.61352857776E-01  0.13137901633E+00  0.20774208544E-01 0.  0.
         14    1    1    2    0    0 -0.18383907614E-01  0.69188775505E-02 -0.14223558147E-01  0.24251773792E-01  0.00000000000E+00 0. -1.
     999901    1    3    3    0    0 -0.90102611922E-01  0.29072511884E-01  0.75576415923E-01  0.88829920988E+00  0.88000000000E+00 0. -1.
        -11    1    4    4    0    0  0.81085502427E-01 -0.28702255401E-01 -0.35672095085E-01  0.93120554432E-01  0.51100000000E-03 0. -1.
         11    1    4    4    0    0  0.27401017109E-01 -0.72891340335E-02 -0.25680762692E-01  0.38258461900E-01  0.51100000000E-03 0.  1.
</event>
<event>
 8    1  0.1119901E+005  0.1043930E+01  0.7957747E-01            NaN
         13   -1    0    0    0    0  0.00000000000E+00  0.00000000000E+00  0.74505805969E-08  0.10566000000E+00  0.10566000000E+00 0. -1.
     999900   -1    0    0    0    0 -0.00000000000E+00 -0.00000000000E+00 -0.74505805969E-08  0.93827000000E+00  0.93827000000E+00 0.  1.
     999902    2    1    2    0    0 -0.15762674038E-01  0.98322604296E-02 -0.15269967372E-01  0.10198819826E+01  0.10195984265E+01 0.  0.
     999903    2    3    3    0    0 -0.18291105132E-01 -0.10555544847E+00  0.67264700603E-01  0.12851635180E+00  0.22702323753E-01 0.  0.
         14    1    1    2    0    0  0.15762674038E-01 -0.98322604296E-02  0.15269967372E-01  0.24048017414E-01  0.00000000000E+00 0. -1.
     999901    1    3    3    0    0  0.25284310932E-02  0.11538770890E+00 -0.82534667976E-01  0.89136563079E+00  0.88000000000E+00 0.  1.
        -11    1    4    4    0    0 -0.20819596148E-01 -0.56559492512E-01  0.40649870250E-01  0.72698726601E-01  0.51100000000E-03 0.  1.
         11    1    4    4    0    0  0.25284910164E-02 -0.48995955958E-01  0.26614830353E-01  0.55817625199E-01  0.51100000000E-03 0. -1.
</event>
<event>
 8    1  0.1119901E+005  0.1043930E+01  0.7957747E-01            NaN
         13   -1    0    0    0    0  0.00000000000E+00  0.00000000000E+00  0.74505805969E-08  0.10566000000E+00  0.10566000000E+00 0.  1.
     999900   -1    0    0    0    0 -0.00000000000E+00 -0.00000000000E+00 -0.74505805969E-08  0.93827000000E+00  0.93827000000E+00 0.  1.
     999902    2    1    2    0    0 -0.20961252008E-01  0.48965290506E-03  0.72300224068E-02  0.10217514728E+01  0.10215107366E+01 0.  0.
     999903    2    3    3    0    0  0.10292568608E+00  0.76131859300E-01 -0.12024660677E-02  0.12982052047E+00  0.21498017468E-01 0.  0.
         14    1    1    2    0    0  0.20961252008E-01 -0.48965290506E-03 -0.72300224068E-02  0.22178527221E-01  0.00000000000E+00 0. -1.
     999901    1    3    3    0    0 -0.12388693809E+00 -0.75642206395E-01  0.84324884745E-02  0.89193095231E+00  0.88000000000E+00 0. -1.
        -11    1    4    4    0    0  0.47941639508E-01  0.41921000949E-01 -0.99936084089E-02  0.64466304759E-01  0.51100000000E-03 0.  1.
         11    1    4    4    0    0  0.54984046575E-01  0.34210858351E-01  0.87911423411E-02  0.65354215714E-01  0.51100000000E-03 0. -1.
</event>
<event>
 8    1  0.1119901E+005  0.1043930E+01  0.7957747E-01            NaN
         13   -1    0    0    0    0  0.00000000000E+00  0.00000000000E+00  0.74505805969E-08  0.10566000000E+00  0.10566000000E+00 0.  1.
     999900   -1    0    0    0    0 -0.00000000000E+00 -0.00000000000E+00 -0.74505805969E-08  0.93827000000E+00  0.93827000000E+00 0. -1.
     999902    2    1    2    0    0  0.37391904068E-02 -0.19038309592E-01  0.13937810141E-01  0.10200406440E+01  0.10197608613E+01 0.  0.
     999903    2    3    3    0    0  0.64921049240E-01  0.10902056401E+00  0.78297614034E-02  0.12864869701E+00  0.19721969139E-01 0.  0.
         14    1    1    2    0    0 -0.37391904068E-02  0.19038309592E-01 -0.13937810141E-01  0.23889355968E-01  0.00000000000E+00 0.  1.
     999901    1    3    3    0    0 -0.61181858833E-01 -0.12805887360E+00  0.61080487377E-02  0.89139194702E+00  0.88000000000E+00 0.  1.
        -11    1    4    4    0    0  0.42322307460E-01  0.75075531187E-01 -0.37113903311E-02  0.86264411149E-01  0.51100000000E-03 0. -1.
         11    1    4    4    0    0  0.22598741780E-01  0.33945032824E-01  0.11541151735E-01  0.42384285860E-01  0.51100000000E-03 0.  1.
</event>
<event>
 8    1  0.1119901E+005  0.1043930E+01  0.7957747E-01            NaN
         13   -1    0    0    0    0  0.00000000000E+00  0.00000000000E+00  0.74505805969E-08  0.10566000000E+00  0.10566000000E+00 0.  1.
     999900   -1    0    0    0    0 -0.00000000000E+00 -0.00000000000E+00 -0.74505805969E-08  0.93827000000E+00  0.93827000000E+00 0. -1.
     999902    2    1    2    0    0  0.22848300741E-01 -0.46260553611E-02  0.10533839439E-01  0.10183486199E+01  0.10180272612E+01 0.  0.
     999903    2    3    3    0    0  0.68667016140E-01  0.10490412581E+00 -0.26269589813E-01  0.12961316562E+00  0.19734402364E-01 0.  0.
         14    1    1    2    0    0 -0.22848300741E-01  0.46260553611E-02 -0.10533839439E-01  0.25581380109E-01  0.00000000000E+00 0. -1.
     999901    1    3    3    0    0 -0.45818715399E-01 -0.10953018117E+00  0.36803429252E-01  0.88873545427E+00  0.88000000000E+00 0.  1.
        -11    1    4    4    0    0  0.55813971587E-01  0.69244639482E-01 -0.20449404316E-01  0.91260389980E-01  0.51100000000E-03 0.  1.
         11    1    4    4    0    0  0.12853044553E-01  0.35659486326E-01 -0.58201854971E-02  0.38352775643E-01  0.51100000000E-03 0. -1.
</event>
<event>
 8    1  0.1119901E+005  0.1043930E+01  0.7957747E-01            NaN
         13   -1    0    0    0    0  0.00000000000E+00  0.00000000000E+00  0.74505805969E-08  0.10566000000E+00  0.10566000000E+00 0.  1.
     999900   -1    0    0    0    0 -0.00000000000E+00 -0.00000000000E+00 -0.74505805969E-08  0.93827000000E+00  0.93827000000E+00 0. -1.
     999902    2    1    2    0    0  0.19274912278E-03  0.25373804703E-01  0.86477996643E-02  0.10171223228E+01  0.10167689846E+01 0.  0.
     999903    2    3    3    0    0  0.65678866686E-01  0.11094373800E+00 -0.35916827288E-02  0.13046542750E+00  0.19649454332E-01 0.  0.
         14    1    1    2    0    0 -0.19274912278E-03 -0.25373804703E-01 -0.86477996643E-02  0.26807677191E-01  0.00000000000E+00 0. -1.
     999901    1    3    3    0    0 -0.65486117563E-01 -0.85569933300E-01  0.12239482393E-01  0.88665689531E+00  0.88000000000E+00 0. -1.
        -11    1    4    4    0    0  0.13100474417E-01  0.40008913342E-01 -0.21148231779E-02  0.42155298301E-01  0.51100000000E-03 0. -1.
         11    1    4    4    0    0  0.52578392268E-01  0.70934824661E-01 -0.14768595509E-02  0.88310129194E-01  0.51100000000E-03 0.  1.
</event>
<event>
 8    1  0.1119901E+005  0.1043930E+01  0.7957747E-01            NaN
         13   -1    0    0    0    0  0.00000000000E+00  0.00000000000E+00  0.74505805969E-08  0.10566000000E+00  0.10566000000E+00 0.  1.
     999900   -1    0    0    0    0 -0.00000000000E+00 -0.00000000000E+00 -0.74505805969E-08  0.93827000000E+00  0.93827000000E+00 0. -1.
     999902    2    1    2    0    0  0.34393355241E-02 -0.16364447317E-01 -0.16698403246E-01  0.10202982240E+01  0.10200245120E+01 0.  0.
     999903    2    3    3    0    0  0.66627324996E-01  0.10615959994E+00 -0.25626202516E-01  0.12952071546E+00  0.20244811224E-01 0.  0.
         14    1    1    2    0    0 -0.34393355241E-02  0.16364447317E-01  0.16698403246E-01  0.23631775977E-01  0.00000000000E+00 0.  1.
     999901    1    3    3    0    0 -0.63187989472E-01 -0.12252404726E+00  0.89277992695E-02  0.89077750857E+00  0.88000000000E+00 0. -1.
        -11    1    4    4    0    0  0.18672811637E-01  0.20752018459E-01 -0.12864545278E-01  0.30742117864E-01  0.51100000000E-03 0. -1.
         11    1    4    4    0    0  0.47954513359E-01  0.85407581480E-01 -0.12761657237E-01  0.98778597591E-01  0.51100000000E-03 0.  1.
</event>
<event>
 7    1  0.1119901E+005  0.1043930E+01  0.7957747E-01            NaN
         13   -1    0    0    0    0  0.00000000000E+00  0.00000000000E+00  0.74505805969E-08  0.10566000000E+00  0.10566000000E+00 0.  1.
     999900   -1    0    0    0    0 -0.00000000000E+00 -0.00000000000E+00 -0.74505805969E-08  0.93827000000E+00  0.93827000000E+00 0.  1.
     999903    2    1    2    0    0  0.48655305575E-01  0.72290772116E-01 -0.79381239301E-01  0.11951780978E+00  0.19744143618E-01 0.  0.
         14    1    1    2    0    0 -0.87505054713E-02 -0.16858162615E-01  0.35995989243E-01  0.40699880028E-01  0.00000000000E+00 0.  1.
     999901    1    1    2    0    0 -0.39904800104E-01 -0.55432609501E-01  0.43385250058E-01  0.88371231019E+00  0.88000000000E+00 0. -1.
        -11    1    3    3    0    0  0.10392386968E-01  0.13313626237E-01 -0.26976709400E-01  0.31831718796E-01  0.51100000000E-03 0. -1.
         11    1    3    3    0    0  0.38262918606E-01  0.58977145879E-01 -0.52404529901E-01  0.87686090981E-01  0.51100000000E-03 0.  1.
</event>
<event>
 8    1  0.1119901E+005  0.1043930E+01  0.7957747E-01            NaN
         13   -1    0    0    0    0  0.00000000000E+00  0.00000000000E+00  0.74505805969E-08  0.10566000000E+00  0.10566000000E+00 0. -1.
     999900   -1    0    0    0    0 -0.00000000000E+00 -0.00000000000E+00 -0.74505805969E-08  0.93827000000E+00  0.93827000000E+00 0. -1.
     999902    2    1    2    0    0 -0.16676086999E-04  0.59400904083E-02  0.23090091521E-01  0.10200880773E+01  0.10198094176E+01 0.  0.
     999903    2    3    3    0    0  0.53571615864E-01  0.62023045214E-01  0.10282081577E+00  0.13308526374E+00  0.20561884759E-01 0.  0.
         14    1    1    2    0    0  0.16676086999E-04 -0.59400904083E-02 -0.23090091521E-01  0.23841922711E-01  0.00000000000E+00 0.  1.
     999901    1    3    3    0    0 -0.53588291951E-01 -0.56082954805E-01 -0.79730724251E-01  0.88700281355E+00  0.88000000000E+00 0.  1.
        -11    1    4    4    0    0  0.82184262742E-02  0.13867802370E-01  0.33972487696E-01  0.37606508935E-01  0.51100000000E-03 0.  1.
         11    1    4    4    0    0  0.45353189590E-01  0.48155242843E-01  0.68848328075E-01  0.95478754805E-01  0.51100000000E-03 0. -1.
</event>
<event>
 8    1  0.1119901E+005  0.1043930E+01  0.7957747E-01            NaN
         13   -1    0    0    0    0  0.00000000000E+00  0.00000000000E+00  0.74505805969E-08  0.10566000000E+00  0.10566000000E+00 0. -1.
     999900   -1    0    0    0    0 -0.00000000000E+00 -0.00000000000E+00 -0.74505805969E-08  0.93827000000E+00  0.93827000000E+00 0. -1.
     999902    2    1    2    0    0 -0.97679929068E-02 -0.21636860159E-01 -0.23551336096E-02  0.10200738885E+01  0.10197948930E+01 0.  0.
     999903    2    3    3    0    0 -0.78447812509E-01 -0.10440995628E+00  0.16068163596E-01  0.13333394861E+00  0.21546640426E-01 0.  0.
         14    1    1    2    0    0  0.97679929068E-02  0.21636860159E-01  0.23551336096E-02  0.23856111529E-01  0.00000000000E+00 0. -1.
     999901    1    3    3    0    0  0.68679819602E-01  0.82773096118E-01 -0.18423297206E-01  0.88673993986E+00  0.88000000000E+00 0.  1.
        -11    1    4    4    0    0 -0.68521245762E-01 -0.87668608003E-01  0.21032652656E-01  0.11324124491E+00  0.51100000000E-03 0.  1.
         11    1    4    4    0    0 -0.99265667472E-02 -0.16741348274E-01 -0.49644890593E-02  0.20092703702E-01  0.51100000000E-03 0. -1.
</event>
<event>
 8    1  0.1119901E+005  0.1043930E+01  0.7957747E-01            NaN
         13   -1    0    0    0    0  0.00000000000E+00  0.00000000000E+00  0.74505805969E-08  0.10566000000E+00  0.10566000000E+00 0. -1.
     999900   -1    0    0    0    0 -0.00000000000E+00 -0.00000000000E+00 -0.74505805969E-08  0.93827000000E+00  0.93827000000E+00 0. -1.
     999902    2    1    2    0    0  0.22178303729E-01 -0.90132510157E-02  0.23863053521E-02  0.10198715233E+01  0.10195877175E+01 0.  0.
     999903    2    3    3    0    0 -0.61835156121E-03  0.61576596594E-02  0.12847788420E+00  0.13046220788E+00  0.21806462930E-01 0.  0.
         14    1    1    2    0    0 -0.22178303729E-01  0.90132510157E-02 -0.23863053521E-02  0.24058476747E-01  0.00000000000E+00 0. -1.
     999901    1    3    3    0    0  0.22796655290E-01 -0.15170910675E-01 -0.12609157884E+00  0.88940931538E+00  0.88000000000E+00 0. -1.
        -11    1    4    4    0    0 -0.56442566700E-02 -0.32711894221E-02  0.13652942876E-01  0.15140088632E-01  0.51100000000E-03 0. -1.
         11    1    4    4    0    0  0.50259051087E-02  0.94288490815E-02  0.11482494132E+00  0.11532211924E+00  0.51100000000E-03 0.  1.
</event>
<event>
 8    1  0.1119901E+005  0.1043930E+01  0.7957747E-01            NaN
         13   -1    0    0    0    0  0.00000000000E+00  0.00000000000E+00  0.74505805969E-08  0.10566000000E+00  0.10566000000E+00 0.  1.
     999900   -1    0    0    0    0 -0.00000000000E+00 -0.00000000000E+00 -0.74505805969E-08  0.93827000000E+00  0.93827000000E+00 0. -1.
     999902    2    1    2    0    0 -0.17738251962E-01  0.15284833952E-01  0.94261646185E-02  0.10186886785E+01  0.10183759126E+01 0.  0.
     999903    2    3    3    0    0  0.42136208399E-01  0.21633211300E-01  0.11964827990E+00  0.12977126524E+00  0.16775413816E-01 0.  0.
         14    1    1    2    0    0  0.17738251962E-01 -0.15284833952E-01 -0.94261646185E-02  0.25241321500E-01  0.00000000000E+00 0. -1.
     999901    1    3    3    0    0 -0.59874460362E-01 -0.63483773473E-02 -0.11022211529E+00  0.88891741326E+00  0.88000000000E+00 0. -1.
        -11    1    4    4    0    0  0.21548255636E-01  0.16367687641E-01  0.84149985172E-01  0.88395190170E-01  0.51100000000E-03 0. -1.
         11    1    4    4    0    0  0.20587952763E-01  0.52655236584E-02  0.35498294732E-01  0.41376075071E-01  0.51100000000E-03 0.  1.
</event>
<event>
 8    1  0.1377256E+005  0.1043930E+01  0.7957747E-01            NaN
         13   -1    0    0    0    0  0.00000000000E+00  0.00000000000E+00  0.74505805969E-08  0.10566000000E+00  0.10566000000E+00 0.  1.
     999900   -1    0    0    0    0 -0.00000000000E+00 -0.00000000000E+00 -0.74505805969E-08  0.93827000000E+00  0.93827000000E+00 0. -1.
     999902    2    1    2    0    0  0.22597607196E-01  0.13312251192E-02  0.51416867903E-02  0.10207166212E+01  0.10204526250E+01 0.  0.
     999903    2    3    3    0    0 -0.91654205604E-01  0.57121713527E-01 -0.67083024278E-01  0.12865021998E+00  0.19681549599E-01 0.  0.
         14    1    1    2    0    0 -0.22597607196E-01 -0.13312251192E-02 -0.51416867903E-02  0.23213378780E-01  0.00000000000E+00 0.  1.
     999901    1    3    3    0    0  0.11425181280E+00 -0.55790488408E-01  0.72224711069E-01  0.89206640124E+00  0.88000000000E+00 0.  1.
        -11    1    4    4    0    0 -0.52031864340E-01  0.33005124925E-01 -0.26729443575E-01  0.67166788317E-01  0.51100000000E-03 0. -1.
         11    1    4    4    0    0 -0.39622341264E-01  0.24116588602E-01 -0.40353580703E-01  0.61483431667E-01  0.51100000000E-03 0.  1.
</event>
<event>
 8    1  0.1119901E+005  0.1043930E+01  0.7957747E-01            NaN
         13   -1    0    0    0    0  0.00000000000E+00  0.00000000000E+00  0.74505805969E-08  0.10566000000E+00  0.10566000000E+00 0. -1.
     999900   -1    0    0    0    0 -0.00000000000E+00 -0.00000000000E+00 -0.74505805969E-08  0.93827000000E+00  0.93827000000E+00 0.  1.
     999902    2    1    2    0    0  0.16236603834E-01 -0.11227135845E-01  0.13167488922E-01  0.10202011431E+01  0.10199251511E+01 0.  0.
     999903    2    3    3    0    0  0.31574611754E-01  0.55062722073E-01 -0.11038743704E+00  0.12896861485E+00  0.20461131212E-01 0.  0.
         14    1    1    2    0    0 -0.16236603834E-01  0.11227135845E-01 -0.13167488922E-01  0.23728856859E-01  0.00000000000E+00 0.  1.
     999901    1    3    3    0    0 -0.15338007920E-01 -0.66289857918E-01  0.12355492596E+00  0.89123252829E+00  0.88000000000E+00 0. -1.
        -11    1    4    4    0    0  0.18030646676E-01  0.38721766693E-01 -0.54919381127E-01  0.69576425460E-01  0.51100000000E-03 0. -1.
         11    1    4    4    0    0  0.13543965078E-01  0.16340955381E-01 -0.55468055915E-01  0.59392189393E-01  0.51100000000E-03 0.  1.
</event>
<event>
 8    1  0.1119901E+005  0.1043930E+01  0.7957747E-01            NaN
         13   -1    0    0    0    0  0.00000000000E+00  0.00000000000E+00  0.74505805969E-08  0.10566000000E+00  0.10566000000E+00 0. -1.
     999900   -1    0    0    0    0 -0.00000000000E+00 -0.00000000000E+00 -0.74505805969E-08  0.93827000000E+00  0.93827000000E+00 0. -1.
     999902    2    1    2    0    0 -0.58225913659E-02 -0.17372648230E-01  0.15504166276E-01  0.10199281116E+01  0.10196456552E+01 0.  0.
     999903    2    3    3    0    0 -0.81634088962E-02 -0.10674225137E+00  0.77325483401E-01  0.13324086081E+00  0.17701613856E-01 0.  0.
         14    1    1    2    0    0  0.58225913659E-02  0.17372648230E-01 -0.15504166276E-01  0.24001888439E-01  0.00000000000E+00 0.  1.
     999901    1    3    3    0    0  0.23408175304E-02  0.89369603143E-01 -0.61821317126E-01  0.88668725075E+00  0.88000000000E+00 0. -1.
        -11    1    4    4    0    0 -0.69197485061E-02 -0.31116242205E-01  0.15000654293E-01  0.35233282540E-01  0.51100000000E-03 0. -1.
         11    1    4    4    0    0 -0.12436603902E-02 -0.75626009168E-01  0.62324829109E-01  0.98007578270E-01  0.51100000000E-03 0.  1.
</event>
<event>
 8    1  0.1119901E+005  0.1043930E+01  0.7957747E-01            NaN
         13   -1    0    0    0    0  0.00000000000E+00  0.00000000000E+00  0.74505805969E-08  0.10566000000E+00  0.10566000000E+00 0.  1.
     999900   -1    0    0    0    0 -0.00000000000E+00 -0.00000000000E+00 -0.74505805969E-08  0.93827000000E+00  0.93827000000E+00 0.  1.
     999902    2    1    2    0    0  0.23497238762E-02 -0.17325340907E-01  0.95037158771E-02  0.10240300187E+01  0.10238366422E+01 0.  0.
     999903    2    3    3    0    0 -0.27909922012E-01  0.12399729642E+00  0.29211684810E-01  0.13202321491E+00  0.20555132688E-01 0.  0.
         14    1    1    2    0    0 -0.23497238762E-02  0.17325340907E-01 -0.95037158771E-02  0.19899981289E-01  0.00000000000E+00 0. -1.
     999901    1    3    3    0    0  0.30259645888E-01 -0.14132263732E+00 -0.19707968933E-01  0.89200680380E+00  0.88000000000E+00 0.  1.
        -11    1    4    4    0    0 -0.11285831045E-01  0.26019348008E-01 -0.25446281931E-03  0.28367275609E-01  0.51100000000E-03 0.  1.
         11    1    4    4    0    0 -0.16624090967E-01  0.97977948410E-01  0.29466147629E-01  0.10365593930E+00  0.51100000000E-03 0. -1.
</event>
<event>
 8    1  0.1119901E+005  0.1043930E+01  0.7957747E-01            NaN
         13   -1    0    0    0    0  0.00000000000E+00  0.00000000000E+00  0.74505805969E-08  0.10566000000E+00  0.10566000000E+00 0.  1.
     999900   -1    0    0    0    0 -0.00000000000E+00 -0.00000000000E+00 -0.74505805969E-08  0.93827000000E+00  0.93827000000E+00 0.  1.
     999902    2    1    2    0    0 -0.68985775731E-02 -0.22908087235E-01 -0.99177138994E-03  0.10199851792E+01  0.10197040803E+01 0.  0.
     999903    2    3    3    0    0  0.36311988616E-01  0.10992778656E+00  0.49654466465E-01  0.12752926218E+00  0.19886374606E-01 0.  0.
         14    1    1    2    0    0  0.68985775731E-02  0.22908087235E-01  0.99177138994E-03  0.23944820813E-01  0.00000000000E+00 0.  1.
     999901    1    3    3    0    0 -0.43210566189E-01 -0.13283587380E+00 -0.50646237855E-01  0.89245591701E+00  0.88000000000E+00 0.  1.
        -11    1    4    4    0    0  0.33610210004E-01  0.74089034155E-01  0.31309539331E-01  0.87174420403E-01  0.51100000000E-03 0. -1.
         11    1    4    4    0    0  0.27017786117E-02  0.35838752410E-01  0.18344927133E-01  0.40354841773E-01  0.51100000000E-03 0.  1.
</event>
<event>
 8    1  0.1119901E+005  0.1043930E+01  0.7957747E-01            NaN
         13   -1    0    0    0    0  0.00000000000E+00  0.00000000000E+00  0.74505805969E-08  0.10566000000E+00  0.10566000000E+00 0. -1.
     999900   -1    0    0    0    0 -0.00000000000E+00 -0.00000000000E+00 -0.74505805969E-08  0.93827000000E+00  0.93827000000E+00 0. -1.
     999902    2    1    2    0    0  0.20687624879E-02 -0.16766399635E-01 -0.17064800806E-01  0.10199175165E+01  0.10196348078E+01 0.  0.
     999903    2    3    3    0    0 -0.49265894614E-01 -0.11523750773E+00 -0.37692231546E-01  0.13269866133E+00  0.21941258891E-01 0.  0.
         14    1    1    2    0    0 -0.20687624879E-02  0.16766399635E-01  0.17064800806E-01  0.24012483452E-01  0.00000000000E+00 0. -1.
     999901    1    3    3    0    0  0.51334657102E-01  0.98471108091E-01  0.20627430740E-01  0.88721885521E+00  0.88000000000E+00 0.  1.
        -11    1    4    4    0    0 -0.36599348683E-01 -0.77219958810E-01 -0.15373929575E-01  0.86827721347E-01  0.51100000000E-03 0.  1.
         11    1    4    4    0    0 -0.12666545931E-01 -0.38017548916E-01 -0.22318301972E-01  0.45870939987E-01  0.51100000000E-03 0. -1.
</event>
<event>
 8    1  0.1119901E+005  0.1043930E+01  0.7957747E-01            NaN
         13   -1    0    0    0    0  0.00000000000E+00  0.00000000000E+00  0.74505805969E-08  0.10566000000E+00  0.10566000000E+00 0. -1.
     999900   -1    0    0    0    0 -0.00000000000E+00 -0.00000000000E+00 -0.74505805969E-08  0.93827000000E+00  0.93827000000E+00 0.  1.
     999902    2    1    2    0    0  0.22131541139E-01  0.86115561165E-02 -0.29366347233E-02  0.10200011924E+01  0.10197204737E+01 0.  0.
     999903    2    3    3    0    0  0.37919798620E-01 -0.12071963427E+00 -0.23550909731E-01  0.13016931261E+00  0.19448994063E-01 0.  0.
         14    1    1    2    0    0 -0.22131541139E-01 -0.86115561165E-02  0.29366347233E-02  0.23928807647E-01  0.00000000000E+00 0. -1.
     999901    1    3    3    0    0 -0.15788257482E-01  0.12933119038E+00  0.20614275008E-01  0.88983187975E+00  0.88000000000E+00 0. -1.
        -11    1    4    4    0    0  0.14644052223E-01 -0.39878444521E-01 -0.17093440313E-01  0.45795037129E-01  0.51100000000E-03 0.  1.
         11    1    4    4    0    0  0.23275746397E-01 -0.80841189746E-01 -0.64574694187E-02  0.84374275476E-01  0.51100000000E-03 0. -1.
</event>
<event>
 8    1  0.1119901E+005  0.1043930E+01  0.7957747E-01            NaN
         13   -1    0    0    0    0  0.00000000000E+00  0.00000000000E+00  0.74505805969E-08  0.10566000000E+00  0.10566000000E+00 0.  1.
     999900   -1    0    0    0    0 -0.00000000000E+00 -0.00000000000E+00 -0.74505805969E-08  0.93827000000E+00  0.93827000000E+00 0. -1.
     999902    2    1    2    0    0  0.19818489829E-01 -0.17452551756E-02 -0.15520587769E-01  0.10186969443E+01  0.10183843858E+01 0.  0.
     999903    2    3    3    0    0 -0.44796211502E-01 -0.97792084062E-01  0.65699760140E-01  0.12740754244E+00  0.18607286713E-01 0.  0.
         14    1    1    2    0    0 -0.19818489829E-01  0.17452551756E-02  0.15520587769E-01  0.25233055689E-01  0.00000000000E+00 0.  1.
     999901    1    3    3    0    0  0.64614701331E-01  0.96046828886E-01 -0.81220347909E-01  0.89128940187E+00  0.88000000000E+00 0. -1.
        -11    1    4    4    0    0 -0.37105815728E-01 -0.71641564744E-01  0.57017289690E-01  0.98795687175E-01  0.51100000000E-03 0.  1.
         11    1    4    4    0    0 -0.76903957744E-02 -0.26150519318E-01  0.86824704500E-02  0.28611855268E-01  0.51100000000E-03 0. -1.
</event>
<event>
 8    1  0.1119901E+005  0.1043930E+01  0.7957747E-01            NaN
         13   -1    0    0    0    0  0.00000000000E+00  0.00000000000E+00  0.74505805969E-08  0.10566000000E+00  0.10566000000E+00 0.  1.
     999900   -1    0    0    0    0 -0.00000000000E+00 -0.00000000000E+00 -0.74505805969E-08  0.93827000000E+00  0.93827000000E+00 0.  1.
     999902    2    1    2    0    0 -0.11125717378E-01 -0.19939937414E-02 -0.21653337858E-01  0.10195040990E+01  0.10192114517E+01 0.  0.
     999903    2    3    3    0    0 -0.41361475166E-01  0.75112276637E-01  0.93134124287E-01  0.12819285179E+00  0.20169690457E-01 0.  0.
         14    1    1    2    0    0  0.11125717378E-01  0.19939937414E-02  0.21653337858E-01  0.24425900978E-01  0.00000000000E+00 0. -1.
     999901    1    3    3    0    0  0.30235757788E-01 -0.77106270379E-01 -0.11478746214E+00  0.89131124723E+00  0.88000000000E+00 0.  1.
        -11    1    4    4    0    0 -0.29628626204E-01  0.45037086901E-01  0.44953767142E-01  0.70194707696E-01  0.51100000000E-03 0. -1.
         11    1    4    4    0    0 -0.11732848962E-01  0.30075189736E-01  0.48180357145E-01  0.57998144092E-01  0.51100000000E-03 0.  1.
</event>
<event>
 8    1  0.1119901E+005  0.1043930E+01  0.7957747E-01            NaN
         13   -1    0    0    0    0  0.00000000000E+00  0.00000000000E+00  0.74505805969E-08  0.10566000000E+00  0.10566000000E+00 0.  1.
     999900   -1    0    0    0    0 -0.00000000000E+00 -0.00000000000E+00 -0.74505805969E-08  0.93827000000E+00  0.93827000000E+00 0.  1.
     999902    2    1    2    0    0 -0.25142332307E-02 -0.14925374017E-01 -0.18784094924E-01  0.10198067668E+01  0.10195214128E+01 0.  0.
     999903    2    3    3    0    0 -0.12504224640E+00 -0.17206259011E-01 -0.29513583495E-01  0.13124982524E+00  0.20587527362E-01 0.  0.
         14    1    1    2    0    0  0.25142332307E-02  0.14925374017E-01  0.18784094924E-01  0.24123233208E-01  0.00000000000E+00 0.  1.
     999901    1    3    3    0    0  0.12252801317E+00  0.22808849943E-02  0.10729488571E-01  0.88855694155E+00  0.88000000000E+00 0. -1.
        -11    1    4    4    0    0 -0.59151326122E-01 -0.15672988042E-02 -0.21912950852E-01  0.63101302234E-01  0.51100000000E-03 0.  1.
         11    1    4    4    0    0 -0.65890920275E-01 -0.15638960207E-01 -0.76006326435E-02  0.68148523011E-01  0.51100000000E-03 0. -1.
</event>
<event>
 8    1  0.1119901E+005  0.1043930E+01  0.7957747E-01            NaN
         13   -1    0    0    0    0  0.00000000000E+00  0.00000000000E+00  0.74505805969E-08  0.10566000000E+00  0.10566000000E+00 0. -1.
     999900   -1    0    0    0    0 -0.00000000000E+00 -0.00000000000E+00 -0.74505805969E-08  0.93827000000E+00  0.93827000000E+00 0.  1.
     999902    2    1    2    0    0  0.39633119190E-02  0.19059124646E-01 -0.12320972469E-01  0.10208916746E+01  0.10206316901E+01 0.  0.
     999903    2    3    3    0    0  0.89112661348E-01  0.50464445987E-01 -0.83062594871E-01  0.13340021942E+00  0.20211312507E-01 0.  0.
         14    1    1    2    0    0 -0.39633119190E-02 -0.19059124646E-01  0.12320972469E-01  0.23038325378E-01  0.00000000000E+00 0.  1.
     999901    1    3    3    0    0 -0.85149349429E-01 -0.31405321341E-01  0.70741622403E-01  0.88749145520E+00  0.88000000000E+00 0. -1.
        -11    1    4    4    0    0  0.34365929868E-01  0.90187634580E-02 -0.24614943298E-01  0.43226285806E-01  0.51100000000E-03 0. -1.
         11    1    4    4    0    0  0.54746731480E-01  0.41445682529E-01 -0.58447651573E-01  0.90173933614E-01  0.51100000000E-03 0.  1.
</event>
<event>
 8    1  0.1119901E+005  0.1043930E+01  0.7957747E-01            NaN
         13   -1    0    0    0    0  0.00000000000E+00  0.00000000000E+00  0.74505805969E-08  0.10566000000E+00  0.10566000000E+00 0. -1.
     999900   -1    0    0    0    0 -0.00000000000E+00 -0.00000000000E+00 -0.74505805969E-08  0.93827000000E+00  0.93827000000E+00 0.  1.
     999902    2    1    2    0    0 -0.56440326817E-02  0.19846848934E-01 -0.10949638293E-01  0.10205709098E+01  0.10203035503E+01 0.  0.
     999903    2    3    3    0    0 -0.42041779192E-01  0.65486615661E-01 -0.10666534373E+00  0.13345801925E+00  0.19430371144E-01 0.  0.
         14    1    1    2    0    0  0.56440326817E-02 -0.19846848934E-01  0.10949638293E-01  0.23359090228E-01  0.00000000000E+00 0. -1.
     999901    1    3    3    0    0  0.36397746510E-01 -0.45639766727E-01  0.95715705433E-01  0.88711289052E+00  0.88000000000E+00 0. -1.
        -11    1    4    4    0    0 -0.28511228929E-01  0.52754267692E-01 -0.68727947372E-01  0.91212361035E-01  0.51100000000E-03 0.  1.
         11    1    4    4    0    0 -0.13530550263E-01  0.12732347969E-01 -0.37937396353E-01  0.42245658218E-01  0.51100000000E-03 0. -1.
</event>
<event>
 8    1  0.1119901E+005  0.1043930E+01  0.7957747E-01            NaN
         13   -1    0    0    0    0  0.00000000000E+00  0.00000000000E+00  0.74505805969E-08  0.10566000000E+00  0.10566000000E+00 0. -1.
     999900   -1    0    0    0    0 -0.00000000000E+00 -0.00000000000E+00 -0.74505805969E-08  0.93827000000E+00  0.93827000000E+00 0. -1.
     999902    2    1    2    0    0 -0.10738486930E-01  0.13589422320E-01 -0.16455086345E-01  0.10200394712E+01  0.10197596606E+01 0.  0.
     999903    2    3    3    0    0 -0.11972976937E+00 -0.40662994010E-01 -0.29503635049E-01  0.13156173429E+00  0.21197374725E-01 0.  0.
         14    1    1    2    0    0  0.10738486930E-01 -0.13589422320E-01  0.16455086345E-01  0.23890528817E-01  0.00000000000E+00 0. -1.
     999901    1    3    3    0    0  0.10899128243E+00  0.54252416330E-01  0.13048548704E-01  0.88847773689E+00  0.88000000000E+00 0.  1.
        -11    1    4    4    0    0 -0.61697277741E-01 -0.26877469858E-01 -0.24813250402E-01  0.71728034847E-01  0.51100000000E-03 0. -1.
         11    1    4    4    0    0 -0.58032491625E-01 -0.13785524151E-01 -0.46903846469E-02  0.59833699446E-01  0.51100000000E-03 0.  1.
</event>
<event>
 8    1  0.1119901E+005  0.1043930E+01  0.7957747E-01            NaN
         13   -1    0    0    0    0  0.00000000000E+00  0.00000000000E+00  0.74505805969E-08  0.10566000000E+00  0.10566000000E+00 0.  1.
     999900   -1    0    0    0    0 -0.00000000000E+00 -0.00000000000E+00 -0.74505805969E-08  0.93827000000E+00  0.93827000000E+00 0. -1.
     999902    2    1    2    0    0  0.31857552497E-02 -0.13005168576E-01  0.98986404554E-02  0.10272786779E+01  0.10271437170E+01 0.  0.
     999903    2    3    3    0    0  0.13564865210E+00 -0.68995545158E-02 -0.39767354329E-02  0.13723585663E+00  0.19227720906E-01 0.  0.
         14    1    1    2    0    0 -0.31857552497E-02  0.13005168576E-01 -0.98986404554E-02  0.16651322142E-01  0.00000000000E+00 0. -1.
     999901    1    3    3    0    0 -0.13246289685E+00 -0.61056140601E-02  0.13875375888E-01  0.89004282123E+00  0.88000000000E+00 0.  1.
        -11    1    4    4    0    0  0.12275289117E-01 -0.55420071118E-02  0.23966249204E-02  0.13689466671E-01  0.51100000000E-03 0. -1.
         11    1    4    4    0    0  0.12337336298E+00 -0.13575474040E-02 -0.63733603533E-02  0.12354638996E+00  0.51100000000E-03 0.  1.
</event>
<event>
 8    1  0.1119901E+005  0.1043930E+01  0.7957747E-01            NaN
         13   -1    0    0    0    0  0.00000000000E+00  0.00000000000E+00  0.74505805969E-08  0.10566000000E+00  0.10566000000E+00 0. -1.
     999900   -1    0    0    0    0 -0.00000000000E+00 -0.00000000000E+00 -0.74505805969E-08  0.93827000000E+00  0.93827000000E+00 0. -1.
     999902    2    1    2    0    0 -0.73739338635E-02  0.18903719902E-01 -0.10823296700E-01  0.10209328420E+01  0.10206737963E+01 0.  0.
     999903    2    3    3    0    0 -0.23303243439E-01  0.13005000288E+00 -0.30225571194E-02  0.13376426121E+00  0.20680844273E-01 0.  0.
         14    1    1    2    0    0  0.73739338635E-02 -0.18903719902E-01  0.10823296700E-01  0.22997158047E-01  0.00000000000E+00 0. -1.
     999901    1    3    3    0    0  0.15929309575E-01 -0.11114628298E+00 -0.78007395803E-02  0.88716858075E+00  0.88000000000E+00 0.  1.
        -11    1    4    4    0    0 -0.11548189857E-01  0.38362633668E-01  0.73839394549E-02  0.40741085329E-01  0.51100000000E-03 0.  1.
         11    1    4    4    0    0 -0.11755053582E-01  0.91687369217E-01 -0.10406496574E-01  0.93023175879E-01  0.51100000000E-03 0. -1.
</event>
<event>
 8    1  0.1119901E+005  0.1043930E+01  0.7957747E-01            NaN
         13   -1    0    0    0    0  0.00000000000E+00  0.00000000000E+00  0.74505805969E-08  0.10566000000E+00  0.10566000000E+00 0.  1.
     999900   -1    0    0    0    0 -0.00000000000E+00 -0.00000000000E+00 -0.74505805969E-08  0.93827000000E+00  0.93827000000E+00 0. -1.
     999902    2    1    2    0    0  0.13055004141E-01  0.55256343128E-02  0.18336548609E-01  0.10207525372E+01  0.10204893666E+01 0.  0.
     999903    2    3    3    0    0  0.75148014196E-01 -0.10433311811E+00 -0.15914599430E-01  0.13109101249E+00  0.19973870644E-01 0.  0.
         14    1    1    2    0    0 -0.13055004141E-01 -0.55256343128E-02 -0.18336548609E-01  0.23177462816E-01  0.00000000000E+00 0. -1.
     999901    1    3    3    0    0 -0.62093010055E-01  0.10985875242E+00  0.34251148039E-01  0.88966152470E+00  0.88000000000E+00 0.  1.
        -11    1    4    4    0    0  0.53018748441E-01 -0.57619039328E-01 -0.12409844509E-01  0.79279295791E-01  0.51100000000E-03 0.  1.
         11    1    4    4    0    0  0.22129265755E-01 -0.46714078780E-01 -0.35047549211E-02  0.51811716698E-01  0.51100000000E-03 0. -1.
</event>
<event>
 8    1  0.1119901E+005  0.1043930E+01  0.7957747E-01            NaN
         13   -1    0    0    0    0  0.00000000000E+00  0.00000000000E+00  0.74505805969E-08  0.10566000000E+00  0.10566000000E+00 0.  1.
     999900   -1    0    0    0    0 -0.00000000000E+00 -0.00000000000E+00 -0.74505805969E-08  0.93827000000E+00  0.93827000000E+00 0.  1.
     999902    2    1    2    0    0  0.18795407044E-01 -0.14371213706E-01  0.44387651752E-02  0.10198571575E+01  0.10195730087E+01 0.  0.
     999903    2    3    3    0    0 -0.96550981508E-01  0.91673688047E-02  0.81998757786E-01  0.12863641792E+00  0.20430346448E-01 0.  0.
         14    1    1    2    0    0 -0.18795407044E-01  0.14371213706E-01 -0.44387651752E-02  0.24072842491E-01  0.00000000000E+00 0.  1.
     999901    1    3    3    0    0  0.11534638855E+00 -0.23538582511E-01 -0.77559992611E-01  0.89122073959E+00  0.88000000000E+00 0.  1.
        -11    1    4    4    0    0 -0.36879511951E-01 -0.57203543797E-02  0.35769544863E-01  0.51696637383E-01  0.51100000000E-03 0. -1.
         11    1    4    4    0    0 -0.59671469557E-01  0.14887723184E-01  0.46229212923E-01  0.76939780537E-01  0.51100000000E-03 0.  1.
</event>
<event>
 8    1  0.1119901E+005  0.1043930E+01  0.7957747E-01            NaN
         13   -1    0    0    0    0  0.00000000000E+00  0.00000000000E+00  0.74505805969E-08  0.10566000000E+00  0.10566000000E+00 0. -1.
     999900   -1    0    0    0    0 -0.00000000000E+00 -0.00000000000E+00 -0.74505805969E-08  0.93827000000E+00  0.93827000000E+00 0. -1.
     999902    2    1    2    0    0 -0.16752829545E-01 -0.73971360770E-02 -0.48813463225E-02  0.10249773627E+01  0.10248021231E+01 0.  0.
     999903    2    3    3    0    0 -0.99670674312E-01  0.37101846579E-01 -0.83143361471E-01  0.13650650133E+00  0.20258726773E-01 0.  0.
         14    1    1    2    0    0  0.16752829545E-01  0.73971360770E-02  0.48813463225E-02  0.18952637331E-01  0.00000000000E+00 0.  1.
     999901    1    3    3    0    0  0.82917844767E-01 -0.44498982656E-01  0.78262015148E-01  0.88847086134E+00  0.88000000000E+00 0.  1.
        -11    1    4    4    0    0 -0.58841579020E-01  0.12828464358E-01 -0.39695304283E-01  0.72130986562E-01  0.51100000000E-03 0.  1.
         11    1    4    4    0    0 -0.40829095292E-01  0.24273382221E-01 -0.43448057188E-01  0.64375514764E-01  0.51100000000E-03 0. -1.
</event>
<event>
 8    1  0.1119901E+005  0.1043930E+01  0.7957747E-01            NaN
         13   -1    0    0    0    0  0.00000000000E+00  0.00000000000E+00  0.74505805969E-08  0.10566000000E+00  0.10566000000E+00 0.  1.
     999900   -1    0    0    0    0 -0.00000000000E+00 -0.00000000000E+00 -0.74505805969E-08  0.93827000000E+00  0.93827000000E+00 0.  1.
     999902    2    1    2    0    0  0.89048957956E-02  0.65561169436E-02  0.21417637612E-01  0.10198261613E+01  0.10195412715E+01 0.  0.
     999903    2    3    3    0    0  0.78198170634E-01  0.60393302603E-01 -0.81381219547E-01  0.12950733891E+00  0.19670867961E-01 0.  0.
         14    1    1    2    0    0 -0.89048957956E-02 -0.65561169436E-02 -0.21417637612E-01  0.24103838686E-01  0.00000000000E+00 0. -1.
     999901    1    3    3    0    0 -0.69293274839E-01 -0.53837185659E-01  0.10279885716E+00  0.89031882241E+00  0.88000000000E+00 0. -1.
        -11    1    4    4    0    0  0.99201710228E-02  0.16300996462E-01 -0.11271925196E-01  0.22168664763E-01  0.51100000000E-03 0. -1.
         11    1    4    4    0    0  0.68277999611E-01  0.44092306141E-01 -0.70109294351E-01  0.10733867414E+00  0.51100000000E-03 0.  1.
</event>
<event>
 8    1  0.1119901E+005  0.1043930E+01  0.7957747E-01            NaN
         13   -1    0    0    0    0  0.00000000000E+00  0.00000000000E+00  0.74505805969E-08  0.10566000000E+00  0.10566000000E+00 0. -1.
     999900   -1    0    0    0    0 -0.00000000000E+00 -0.00000000000E+00 -0.74505805969E-08  0.93827000000E+00  0.93827000000E+00 0.  1.
     999902    2    1    2    0    0  0.57290619379E-02  0.27671364124E-01 -0.80661430636E-02  0.10145431116E+01  0.10141174174E+01 0.  0.
     999903    2    3    3    0    0  0.78665122902E-01  0.42178465642E-01  0.87157026446E-01  0.12628775591E+00  0.19622066880E-01 0.  0.
         14    1    1    2    0    0 -0.57290619379E-02 -0.27671364124E-01  0.80661430636E-02  0.29386888353E-01  0.00000000000E+00 0.  1.
     999901    1    3    3    0    0 -0.72936060964E-01 -0.14507101518E-01 -0.95223169510E-01  0.88825535574E+00  0.88000000000E+00 0. -1.
        -11    1    4    4    0    0  0.20821189331E-01  0.15406187421E-01  0.37054446769E-01  0.45212450524E-01  0.51100000000E-03 0. -1.
         11    1    4    4    0    0  0.57843933571E-01  0.26772278221E-01  0.50102579677E-01  0.81075305386E-01  0.51100000000E-03 0.  1.
</event>
<event>
 8    1  0.1119901E+005  0.1043930E+01  0.7957747E-01            NaN
         13   -1    0    0    0    0  0.00000000000E+00  0.00000000000E+00  0.74505805969E-08  0.10566000000E+00  0.10566000000E+00 0.  1.
     999900   -1    0    0    0    0 -0.00000000000E+00 -0.00000000000E+00 -0.74505805969E-08  0.93827000000E+00  0.93827000000E+00 0. -1.
     999902    2    1    2    0    0  0.82572694337E-02 -0.89552575347E-02 -0.18701756127E-01  0.10216110659E+01  0.10213672382E+01 0.  0.
     999903    2    3    3    0    0 -0.59732406936E-01  0.93391784797E-01  0.63539195774E-01  0.12927643848E+00  0.19626060248E-01 0.  0.
         14    1    1    2    0    0 -0.82572694337E-02  0.89552575347E-02  0.18701756127E-01  0.22318934075E-01  0.00000000000E+00 0.  1.
     999901    1    3    3    0    0  0.67989676369E-01 -0.10234704233E+00 -0.82240951900E-01  0.89233462744E+00  0.88000000000E+00 0. -1.
        -11    1    4    4    0    0 -0.57002970377E-01  0.77274242836E-01  0.56955487611E-01  0.11164602961E+00  0.51100000000E-03 0.  1.
         11    1    4    4    0    0 -0.27294365589E-02  0.16117541961E-01  0.65837081629E-02  0.17630408871E-01  0.51100000000E-03 0. -1.
</event>
<event>
 8    1  0.1119901E+005  0.1043930E+01  0.7957747E-01            NaN
         13   -1    0    0    0    0  0.00000000000E+00  0.00000000000E+00  0.74505805969E-08  0.10566000000E+00  0.10566000000E+00 0.  1.
     999900   -1    0    0    0    0 -0.00000000000E+00 -0.00000000000E+00 -0.74505805969E-08  0.93827000000E+00  0.93827000000E+00 0.  1.
     999902    2    1    2    0    0  0.18160858834E-01  0.26005127215E-02 -0.14306461578E-01  0.10206651273E+01  0.10203999450E+01 0.  0.
     999903    2    3    3    0    0 -0.50029992133E-01  0.11052693243E+00  0.41212797867E-01  0.12972153063E+00  0.20247910941E-01 0.  0.
         14    1    1    2    0    0 -0.18160858834E-01 -0.26005127215E-02  0.14306461578E-01  0.23264872724E-01  0.00000000000E+00 0. -1.
     999901    1    3    3    0    0  0.68190850967E-01 -0.10792641971E+00 -0.55519259445E-01  0.89094359664E+00  0.88000000000E+00 0.  1.
        -11    1    4    4    0    0 -0.27264572798E-01  0.43353489822E-01  0.24867120807E-01  0.56934320298E-01  0.51100000000E-03 0.  1.
         11    1    4    4    0    0 -0.22765419335E-01  0.67173442606E-01  0.16345677060E-01  0.72787210337E-01  0.51100000000E-03 0. -1.
</event>
<event>
 8    1  0.1119901E+005  0.1043930E+01  0.7957747E-01            NaN
         13   -1    0    0    0    0  0.00000000000E+00  0.00000000000E+00  0.74505805969E-08  0.10566000000E+00  0.10566000000E+00 0. -1.
     999900   -1    0    0    0    0 -0.00000000000E+00 -0.00000000000E+00 -0.74505805969E-08  0.93827000000E+00  0.93827000000E+00 0.  1.
     999902    2    1    2    0    0  0.20578745139E-01  0.25440731745E-02  0.13051742353E-01  0.10194288768E+01  0.10191344022E+01 0.  0.
     999903    2    3    3    0    0 -0.47995583144E-01 -0.10482024285E+00  0.54601269799E-01  0.12928512544E+00  0.21035343642E-01 0.  0.
         14    1    1    2    0    0 -0.20578745139E-01 -0.25440731745E-02 -0.13051742353E-01  0.24501123204E-01  0.00000000000E+00 0.  1.
     999901    1    3    3    0    0  0.68574328283E-01  0.10736431603E+00 -0.41549527446E-01  0.89014375136E+00  0.88000000000E+00 0. -1.
        -11    1    4    4    0    0 -0.21752563023E-01 -0.32600840208E-01  0.27182605895E-01  0.47698469205E-01  0.51100000000E-03 0.  1.
         11    1    4    4    0    0 -0.26243020121E-01 -0.72219402645E-01  0.27418663904E-01  0.81586656230E-01  0.51100000000E-03 0. -1.
</event>
<event>
 7    1  0.1119901E+005  0.1043930E+01  0.7957747E-01            NaN
         13   -1    0    0    0    0  0.00000000000E+00  0.00000000000E+00  0.74505805969E-08  0.10566000000E+00  0.10566000000E+00 0.  1.
     999900   -1    0    0    0    0 -0.00000000000E+00 -0.00000000000E+00 -0.74505805969E-08  0.93827000000E+00  0.93827000000E+00 0.  1.
     999903    2    1    2    0    0 -0.89889294483E-01  0.41868619140E-01 -0.19806383013E-01  0.10320533471E+00  0.20639325908E-01 0.  0.
         14    1    1    2    0    0 -0.43017942934E-01 -0.21783628102E-01  0.15023646879E-01  0.50505245600E-01  0.00000000000E+00 0. -1.
     999901    1    1    2    0    0  0.13290723742E+00 -0.20084991038E-01  0.47827361347E-02  0.89021941969E+00  0.88000000000E+00 0.  1.
        -11    1    3    3    0    0 -0.36006003484E-01  0.65765747141E-02 -0.10794771252E-01  0.38163750199E-01  0.51100000000E-03 0. -1.
         11    1    3    3    0    0 -0.53883290999E-01  0.35292044426E-01 -0.90116117612E-02  0.65041584515E-01  0.51100000000E-03 0.  1.
</event>
<event>
 8    1  0.1119901E+005  0.1043930E+01  0.7957747E-01            NaN
         13   -1    0    0    0    0  0.00000000000E+00  0.00000000000E+00  0.74505805969E-08  0.10566000000E+00  0.10566000000E+00 0.  1.
     999900   -1    0    0    0    0 -0.00000000000E+00 -0.00000000000E+00 -0.74505805969E-08  0.93827000000E+00  0.93827000000E+00 0.  1.
     999902    2    1    2    0    0 -0.23034387466E-01  0.44932722567E-02  0.48893673270E-02  0.10199575488E+01  0.10196757931E+01 0.  0.
     999903    2    3    3    0    0  0.93805990511E-01 -0.76574164586E-01  0.37040881028E-01  0.12796129152E+00  0.18409202136E-01 0.  0.
         14    1    1    2    0    0  0.23034387466E-01 -0.44932722567E-02 -0.48893673270E-02  0.23972451155E-01  0.00000000000E+00 0.  1.
     999901    1    3    3    0    0 -0.11684037798E+00  0.81067436843E-01 -0.32151513701E-01  0.89199625732E+00  0.88000000000E+00 0.  1.
        -11    1    4    4    0    0  0.45617096388E-01 -0.48783545134E-01  0.18186352543E-01  0.69222527392E-01  0.51100000000E-03 0.  1.
         11    1    4    4    0    0  0.48188894123E-01 -0.27790619452E-01  0.18854528485E-01  0.58738764131E-01  0.51100000000E-03 0. -1.
</event>
<event>
 8    1  0.1119901E+005  0.1043930E+01  0.7957747E-01            NaN
         13   -1    0    0    0    0  0.00000000000E+00  0.00000000000E+00  0.74505805969E-08  0.10566000000E+00  0.10566000000E+00 0. -1.
     999900   -1    0    0    0    0 -0.00000000000E+00 -0.00000000000E+00 -0.74505805969E-08  0.93827000000E+00  0.93827000000E+00 0.  1.
     999902    2    1    2    0    0  0.18394341983E-01 -0.11988333122E-01 -0.14594964385E-01  0.10175655365E+01  0.10172239361E+01 0.  0.
     999903    2    3    3    0    0 -0.77258844044E-01 -0.72605627514E-01 -0.69970191655E-01  0.12858274471E+00  0.19929585732E-01 0.  0.
         14    1    1    2    0    0 -0.18394341983E-01  0.11988333122E-01  0.14594964385E-01  0.26364463458E-01  0.00000000000E+00 0. -1.
     999901    1    3    3    0    0  0.95653186028E-01  0.60617294392E-01  0.55375227270E-01  0.88898279183E+00  0.88000000000E+00 0. -1.
        -11    1    4    4    0    0 -0.30735437762E-01 -0.26820569023E-01 -0.38590127296E-01  0.56155757522E-01  0.51100000000E-03 0.  1.
         11    1    4    4    0    0 -0.46523406282E-01 -0.45785058491E-01 -0.31380064359E-01  0.72426987188E-01  0.51100000000E-03 0. -1.
</event>
<event>
 8    1  0.1119901E+005  0.1043930E+01  0.7957747E-01            NaN
         13   -1    0    0    0    0  0.00000000000E+00  0.00000000000E+00  0.74505805969E-08  0.10566000000E+00  0.10566000000E+00 0.  1.
     999900   -1    0    0    0    0 -0.00000000000E+00 -0.00000000000E+00 -0.74505805969E-08  0.93827000000E+00  0.93827000000E+00 0. -1.
     999902    2    1    2    0    0  0.87250665319E-02 -0.80150991220E-02  0.21074961710E-01  0.10197530976E+01  0.10194664572E+01 0.  0.
     999903    2    3    3    0    0 -0.57801066045E-01 -0.10704900360E+00 -0.40347169748E-01  0.12958113734E+00  0.19050581055E-01 0.  0.
         14    1    1    2    0    0 -0.87250665319E-02  0.80150991220E-02 -0.21074961710E-01  0.24176902428E-01  0.00000000000E+00 0. -1.
     999901    1    3    3    0    0  0.66526132577E-01  0.99033904483E-01  0.61422131458E-01  0.89017196023E+00  0.88000000000E+00 0.  1.
        -11    1    4    4    0    0 -0.15140130290E-01 -0.37034180307E-01 -0.21619656560E-01  0.45479937632E-01  0.51100000000E-03 0. -1.
         11    1    4    4    0    0 -0.42660935755E-01 -0.70014823298E-01 -0.18727513188E-01  0.84101199707E-01  0.51100000000E-03 0.  1.
</event>
<event>
 8    1  0.1119901E+005  0.1043930E+01  0.7957747E-01            NaN
         13   -1    0    0    0    0  0.00000000000E+00  0.00000000000E+00  0.74505805969E-08  0.10566000000E+00  0.10566000000E+00 0. -1.
     999900   -1    0    0    0    0 -0.00000000000E+00 -0.00000000000E+00 -0.74505805969E-08  0.93827000000E+00  0.93827000000E+00 0.  1.
     999902    2    1    2    0    0 -0.95564795602E-02 -0.27786874425E-02  0.21312991474E-01  0.10204078613E+01  0.10201367126E+01 0.  0.
     999903    2    3    3    0    0 -0.12451583424E+00  0.29405972669E-01  0.27252243457E-01  0.13232747059E+00  0.19974245749E-01 0.  0.
         14    1    1    2    0    0  0.95564795602E-02  0.27786874425E-02 -0.21312991474E-01  0.23522138744E-01  0.00000000000E+00 0.  1.
     999901    1    3    3    0    0  0.11495935468E+00 -0.32184660111E-01 -0.59392519828E-02  0.88808039067E+00  0.88000000000E+00 0. -1.
        -11    1    4    4    0    0 -0.68171247031E-01  0.10847612504E-01  0.23357289546E-01  0.72875329946E-01  0.51100000000E-03 0. -1.
         11    1    4    4    0    0 -0.56344587211E-01  0.18558360165E-01  0.38949539115E-02  0.59452140642E-01  0.51100000000E-03 0.  1.
</event>
<event>
 8    1  0.1119901E+005  0.1043930E+01  0.7957747E-01            NaN
         13   -1    0    0    0    0  0.00000000000E+00  0.00000000000E+00  0.74505805969E-08  0.10566000000E+00  0.10566000000E+00 0.  1.
     999900   -1    0    0    0    0 -0.00000000000E+00 -0.00000000000E+00 -0.74505805969E-08  0.93827000000E+00  0.93827000000E+00 0. -1.
     999902    2    1    2    0    0 -0.12138091376E-01  0.16990722470E-01  0.14637977104E-01  0.10184292493E+01  0.10181099388E+01 0.  0.
     999903    2    3    3    0    0  0.15989581711E-01  0.12004403001E+00  0.46724269623E-01  0.13138884416E+00  0.20338021895E-01 0.  0.
         14    1    1    2    0    0  0.12138091376E-01 -0.16990722470E-01 -0.14637977104E-01  0.25500750695E-01  0.00000000000E+00 0.  1.
     999901    1    3    3    0    0 -0.28127673087E-01 -0.10305330754E+00 -0.32086292519E-01  0.88704040514E+00  0.88000000000E+00 0. -1.
        -11    1    4    4    0    0  0.93310926697E-02  0.16849846787E-01  0.52354598097E-02  0.19966416493E-01  0.51100000000E-03 0. -1.
         11    1    4    4    0    0  0.66584890413E-02  0.10319418322E+00  0.41488809813E-01  0.11142242767E+00  0.51100000000E-03 0.  1.
</event>
<event>
 7    1  0.1131705E+005  0.1043930E+01  0.7957747E-01            NaN
         13   -1    0    0    0    0  0.00000000000E+00  0.00000000000E+00  0.74505805969E-08  0.10566000000E+00  0.10566000000E+00 0. -1.
     999900   -1    0    0    0    0 -0.00000000000E+00 -0.00000000000E+00 -0.74505805969E-08  0.93827000000E+00  0.93827000000E+00 0.  1.
     999902    2    1    2    0    0  0.84157110485E-02 -0.22226577057E-01 -0.68065986844E-03  0.10201537888E+01  0.10198766811E+01 0.  0.
         14    1    1    2    0    0 -0.84157110485E-02  0.22226577057E-01  0.68065986844E-03  0.23776211178E-01  0.00000000000E+00 0. -1.
     999901    1    3    3    0    0  0.20782325794E-01 -0.89079980485E-01  0.10194128324E+00  0.89059484235E+00  0.88000000000E+00 0. -1.
        -11    1    3    3    0    0  0.14370909086E-01  0.31231612840E-01 -0.40674969480E-01  0.53260219035E-01  0.51100000000E-03 0.  1.
         11    1    3    3    0    0 -0.26737523832E-01  0.35621790589E-01 -0.61946973633E-01  0.76298727438E-01  0.51100000000E-03 0. -1.
</event>
<event>
 8    1  0.1119901E+005  0.1043930E+01  0.7957747E-01            NaN
         13   -1    0    0    0    0  0.00000000000E+00  0.00000000000E+00  0.74505805969E-08  0.10566000000E+00  0.10566000000E+00 0. -1.
     999900   -1    0    0    0    0 -0.00000000000E+00 -0.00000000000E+00 -0.74505805969E-08  0.93827000000E+00  0.93827000000E+00 0. -1.
     999902    2    1    2    0    0 -0.16166434847E-02  0.62705752321E-02  0.21506055062E-01  0.10214701680E+01  0.10212232175E+01 0.  0.
     999903    2    3    3    0    0 -0.74852893262E-01  0.39647449089E-02  0.10916973682E+00  0.13408423941E+00  0.21020870323E-01 0.  0.
         14    1    1    2    0    0  0.16166434847E-02 -0.62705752321E-02 -0.21506055062E-01  0.22459832017E-01  0.00000000000E+00 0.  1.
     999901    1    3    3    0    0  0.73236249777E-01  0.23058303232E-02 -0.87663681755E-01  0.88738592858E+00  0.88000000000E+00 0. -1.
        -11    1    4    4    0    0 -0.58260842094E-01  0.90362352263E-02  0.71991924649E-01  0.93054164895E-01  0.51100000000E-03 0. -1.
         11    1    4    4    0    0 -0.16592051167E-01 -0.50714903174E-02  0.37177812167E-01  0.41030074513E-01  0.51100000000E-03 0.  1.
</event>
<event>
 8    1  0.1119901E+005  0.1043930E+01  0.7957747E-01            NaN
         13   -1    0    0    0    0  0.00000000000E+00  0.00000000000E+00  0.74505805969E-08  0.10566000000E+00  0.10566000000E+00 0.  1.
     999900   -1    0    0    0    0 -0.00000000000E+00 -0.00000000000E+00 -0.74505805969E-08  0.93827000000E+00  0.93827000000E+00 0.  1.
     999902    2    1    2    0    0  0.73386507117E-03 -0.23265056443E-01  0.71656996721E-02  0.10195753565E+01  0.10192844347E+01 0.  0.
     999903    2    3    3    0    0  0.98476401849E-02  0.12392834058E+00  0.18408449292E-01  0.12723273369E+00  0.19851647285E-01 0.  0.
         14    1    1    2    0    0 -0.73386507117E-03  0.23265056443E-01 -0.71656996721E-02  0.24354643521E-01  0.00000000000E+00 0. -1.
     999901    1    3    3    0    0 -0.91137751137E-02 -0.14719339703E+00 -0.11242749620E-01  0.89234262279E+00  0.88000000000E+00 0. -1.
        -11    1    4    4    0    0  0.28173551706E-02  0.87410304285E-01  0.46614080435E-02  0.87581325814E-01  0.51100000000E-03 0.  1.
         11    1    4    4    0    0  0.70302850143E-02  0.36518036299E-01  0.13747041249E-01  0.39651407877E-01  0.51100000000E-03 0. -1.
</event>
<event>
 8    1  0.1119901E+005  0.1043930E+01  0.7957747E-01            NaN
         13   -1    0    0    0    0  0.00000000000E+00  0.00000000000E+00  0.74505805969E-08  0.10566000000E+00  0.10566000000E+00 0.  1.
     999900   -1    0    0    0    0 -0.00000000000E+00 -0.00000000000E+00 -0.74505805969E-08  0.93827000000E+00  0.93827000000E+00 0. -1.
     999902    2    1    2    0    0 -0.85711366935E-02 -0.17512302165E-01  0.14974348682E-01  0.10193459355E+01  0.10190494394E+01 0.  0.
     999903    2    3    3    0    0  0.10544804933E+00 -0.60803308570E-01 -0.39051272817E-01  0.12929354722E+00  0.19377461220E-01 0.  0.
         14    1    1    2    0    0  0.85711366935E-02  0.17512302165E-01 -0.14974348682E-01  0.24584064549E-01  0.00000000000E+00 0. -1.
     999901    1    3    3    0    0 -0.11401918602E+00  0.43291006405E-01  0.54025621499E-01  0.89005238823E+00  0.88000000000E+00 0.  1.
        -11    1    4    4    0    0  0.32202368448E-01 -0.16287496230E-01 -0.20809391994E-01  0.41660136621E-01  0.51100000000E-03 0. -1.
         11    1    4    4    0    0  0.73245680883E-01 -0.44515812339E-01 -0.18241880823E-01  0.87633410599E-01  0.51100000000E-03 0.  1.
</event>
<event>
 8    1  0.1119901E+005  0.1043930E+01  0.7957747E-01            NaN
         13   -1    0    0    0    0  0.00000000000E+00  0.00000000000E+00  0.74505805969E-08  0.10566000000E+00  0.10566000000E+00 0.  1.
     999900   -1    0    0    0    0 -0.00000000000E+00 -0.00000000000E+00 -0.74505805969E-08  0.93827000000E+00  0.93827000000E+00 0. -1.
     999902    2    1    2    0    0  0.37851526612E-02  0.57888361921E-02 -0.14848636896E-01  0.10275495231E+01  0.10274189518E+01 0.  0.
     999903    2    3    3    0    0  0.98681362727E-01  0.12702481094E-01  0.90718988438E-01  0.13614747427E+00  0.20170163906E-01 0.  0.
         14    1    1    2    0    0 -0.37851526612E-02 -0.57888361921E-02  0.14848636896E-01  0.16380476880E-01  0.00000000000E+00 0.  1.
     999901    1    3    3    0    0 -0.94896210066E-01 -0.69136449019E-02 -0.10556762533E+00  0.89140204885E+00  0.88000000000E+00 0. -1.
        -11    1    4    4    0    0  0.57815231773E-01  0.75603867628E-02  0.39543102611E-01  0.70453378614E-01  0.51100000000E-03 0. -1.
         11    1    4    4    0    0  0.40866130953E-01  0.51420943312E-02  0.51175885827E-01  0.65694095659E-01  0.51100000000E-03 0.  1.
</event>
<event>
 8    1  0.1119901E+005  0.1043930E+01  0.7957747E-01            NaN
         13   -1    0    0    0    0  0.00000000000E+00  0.00000000000E+00  0.74505805969E-08  0.10566000000E+00  0.10566000000E+00 0. -1.
     999900   -1    0    0    0    0 -0.00000000000E+00 -0.00000000000E+00 -0.74505805969E-08  0.93827000000E+00  0.93827000000E+00 0. -1.
     999902    2    1    2    0    0 -0.62291362492E-02 -0.19893778413E-01 -0.93331996020E-02  0.10210898342E+01  0.10208343531E+01 0.  0.
     999903    2    3    3    0    0 -0.38558242170E-02 -0.13219208593E+00  0.17082596668E-02  0.13388159694E+00  0.20778567945E-01 0.  0.
         14    1    1    2    0    0  0.62291362492E-02  0.19893778413E-01  0.93331996020E-02  0.22840165778E-01  0.00000000000E+00 0. -1.
     999901    1    3    3    0    0 -0.23733120322E-02  0.11229830751E+00 -0.11041459269E-01  0.88720823728E+00  0.88000000000E+00 0. -1.
        -11    1    4    4    0    0  0.20971222365E-02 -0.75611867889E-01 -0.83584421491E-02  0.76103069344E-01  0.51100000000E-03 0.  1.
         11    1    4    4    0    0 -0.59529464535E-02 -0.56580218037E-01  0.10066701816E-01  0.57778527595E-01  0.51100000000E-03 0. -1.
</event>
<event>
 8    1  0.1119901E+005  0.1043930E+01  0.7957747E-01            NaN
         13   -1    0    0    0    0  0.00000000000E+00  0.00000000000E+00  0.74505805969E-08  0.10566000000E+00  0.10566000000E+00 0.  1.
     999900   -1    0    0    0    0 -0.00000000000E+00 -0.00000000000E+00 -0.74505805969E-08  0.93827000000E+00  0.93827000000E+00 0.  1.
     999902    2    1    2    0    0  0.16317686616E-01  0.17924382349E-01  0.78563101150E-03  0.10196778332E+01  0.10193893838E+01 0.  0.
     999903    2    3    3    0    0  0.29907500354E-01 -0.11907942349E+00  0.32209300278E-01  0.12841907567E+00  0.19484668270E-01 0.  0.
         14    1    1    2    0    0 -0.16317686616E-01 -0.17924382349E-01 -0.78563101150E-03  0.24252166814E-01  0.00000000000E+00 0.  1.
     999901    1    3    3    0    0 -0.13589813737E-01  0.13700380583E+00 -0.31423669266E-01  0.89125875751E+00  0.88000000000E+00 0. -1.
        -11    1    4    4    0    0  0.32883881025E-02 -0.23840653429E-01  0.14060337977E-01  0.27877311156E-01  0.51100000000E-03 0. -1.
         11    1    4    4    0    0  0.26619112251E-01 -0.95238770056E-01  0.18148962301E-01  0.10054176452E+00  0.51100000000E-03 0.  1.
</event>
<event>
 8    1  0.1119901E+005  0.1043930E+01  0.7957747E-01            NaN
         13   -1    0    0    0    0  0.00000000000E+00  0.00000000000E+00  0.74505805969E-08  0.10566000000E+00  0.10566000000E+00 0.  1.
     999900   -1    0    0    0    0 -0.00000000000E+00 -0.00000000000E+00 -0.74505805969E-08  0.93827000000E+00  0.93827000000E+00 0.  1.
     999902    2    1    2    0    0 -0.16629358049E-01  0.91782621272E-02  0.11258093714E-01  0.10218501286E+01  0.10216115527E+01 0.  0.
     999903    2    3    3    0    0 -0.60369244617E-01  0.10767903902E+00  0.49439999010E-01  0.13445312695E+00  0.19852171297E-01 0.  0.
         14    1    1    2    0    0  0.16629358049E-01 -0.91782621272E-02 -0.11258093714E-01  0.22079871351E-01  0.00000000000E+00 0. -1.
     999901    1    3    3    0    0  0.43739886567E-01 -0.98500776895E-01 -0.38181905296E-01  0.88739700170E+00  0.88000000000E+00 0.  1.
        -11    1    4    4    0    0 -0.25013950297E-01  0.28853378809E-01  0.20484306070E-01  0.43336856073E-01  0.51100000000E-03 0. -1.
         11    1    4    4    0    0 -0.35355294320E-01  0.78825660213E-01  0.28955692940E-01  0.91116270880E-01  0.51100000000E-03 0.  1.
</event>
<event>
 8    1  0.1119901E+005  0.1043930E+01  0.7957747E-01            NaN
         13   -1    0    0    0    0  0.00000000000E+00  0.00000000000E+00  0.74505805969E-08  0.10566000000E+00  0.10566000000E+00 0.  1.
     999900   -1    0    0    0    0 -0.00000000000E+00 -0.00000000000E+00 -0.74505805969E-08  0.93827000000E+00  0.93827000000E+00 0.  1.
     999902    2    1    2    0    0  0.23170947337E-01  0.31136301869E-02  0.35508106194E-02  0.10202826799E+01  0.10200086034E+01 0.  0.
     999903    2    3    3    0    0 -0.10742912639E+00  0.64415157870E-01 -0.18544784015E-01  0.12826111519E+00  0.20412616057E-01 0.  0.
         14    1    1    2    0    0 -0.23170947337E-01 -0.31136301869E-02 -0.35508106194E-02  0.23647320133E-01  0.00000000000E+00 0. -1.
     999901    1    3    3    0    0  0.13060007373E+00 -0.61301527684E-01  0.22095594634E-01  0.89202156468E+00  0.88000000000E+00 0.  1.
        -11    1    4    4    0    0 -0.94162009111E-01  0.47877077498E-01 -0.17018911685E-01  0.10699814478E+00  0.51100000000E-03 0. -1.
         11    1    4    4    0    0 -0.13267117279E-01  0.16538080373E-01 -0.15258723294E-02  0.21262970411E-01  0.51100000000E-03 0.  1.
</event>
<event>
 8    1  0.1119901E+005  0.1043930E+01  0.7957747E-01            NaN
         13   -1    0    0    0    0  0.00000000000E+00  0.00000000000E+00  0.74505805969E-08  0.10566000000E+00  0.10566000000E+00 0.  1.
     999900   -1    0    0    0    0 -0.00000000000E+00 -0.00000000000E+00 -0.74505805969E-08  0.93827000000E+00  0.93827000000E+00 0. -1.
     999902    2    1    2    0    0  0.22090922627E-01  0.70911429067E-02 -0.12189943058E-02  0.10206968530E+01  0.10204324018E+01 0.  0.
     999903    2    3    3    0    0  0.42710572529E-01  0.12350753414E+00  0.11689190611E-01  0.13269653359E+00  0.19835041080E-01 0.  0.
         14    1    1    2    0    0 -0.22090922627E-01 -0.70911429067E-02  0.12189943058E-02  0.23233146953E-01  0.00000000000E+00 0.  1.
     999901    1    3    3    0    0 -0.20619649902E-01 -0.11641639124E+00 -0.12908184917E-01  0.88800031945E+00  0.88000000000E+00 0.  1.
        -11    1    4    4    0    0  0.28027335075E-01  0.62309674600E-01 -0.17227097948E-02  0.68346586676E-01  0.51100000000E-03 0. -1.
         11    1    4    4    0    0  0.14683237453E-01  0.61197859544E-01  0.13411900406E-01  0.64349946918E-01  0.51100000000E-03 0.  1.
</event>
<event>
 8    1  0.1119901E+005  0.1043930E+01  0.7957747E-01            NaN
         13   -1    0    0    0    0  0.00000000000E+00  0.00000000000E+00  0.74505805969E-08  0.10566000000E+00  0.10566000000E+00 0. -1.
     999900   -1    0    0    0    0 -0.00000000000E+00 -0.00000000000E+00 -0.74505805969E-08  0.93827000000E+00  0.93827000000E+00 0.  1.
     999902    2    1    2    0    0  0.12301513489E-01 -0.17356251547E-01  0.12266809470E-01  0.10193731004E+01  0.10190772672E+01 0.  0.
     999903    2    3    3    0    0  0.39647710313E-01  0.83029011604E-01  0.89123903092E-01  0.12991707095E+00  0.21670660377E-01 0.  0.
         14    1    1    2    0    0 -0.12301513489E-01  0.17356251547E-01 -0.12266809470E-01  0.24556899569E-01  0.00000000000E+00 0.  1.
     999901    1    3    3    0    0 -0.27346196824E-01 -0.10038526315E+00 -0.76857093622E-01  0.88945602948E+00  0.88000000000E+00 0.  1.
        -11    1    4    4    0    0  0.10909091028E-01  0.12205781729E-01  0.26276986771E-01  0.30963374000E-01  0.51100000000E-03 0. -1.
         11    1    4    4    0    0  0.28738619285E-01  0.70823229875E-01  0.62846916320E-01  0.98953696951E-01  0.51100000000E-03 0.  1.
</event>
<event>
 8    1  0.1119901E+005  0.1043930E+01  0.7957747E-01            NaN
         13   -1    0    0    0    0  0.00000000000E+00  0.00000000000E+00  0.74505805969E-08  0.10566000000E+00  0.10566000000E+00 0. -1.
     999900   -1    0    0    0    0 -0.00000000000E+00 -0.00000000000E+00 -0.74505805969E-08  0.93827000000E+00  0.93827000000E+00 0. -1.
     999902    2    1    2    0    0  0.94930507068E-02 -0.15941609625E-01  0.15129401731E-01  0.10199894126E+01  0.10197084142E+01 0.  0.
     999903    2    3    3    0    0  0.90129439946E-02  0.36042197874E-01  0.12478064289E+00  0.13166180329E+00  0.19604806026E-01 0.  0.
         14    1    1    2    0    0 -0.94930507068E-02  0.15941609625E-01 -0.15129401731E-01  0.23940587417E-01  0.00000000000E+00 0. -1.
     999901    1    3    3    0    0  0.48010671219E-03 -0.51983807498E-01 -0.10965124116E+00  0.88832760929E+00  0.88000000000E+00 0. -1.
        -11    1    4    4    0    0  0.30361840113E-02  0.18902527688E-01  0.33460803572E-01  0.38553994126E-01  0.51100000000E-03 0. -1.
         11    1    4    4    0    0  0.59767599833E-02  0.17139670186E-01  0.91319839314E-01  0.93107809164E-01  0.51100000000E-03 0.  1.
</event>
<event>
 8    1  0.1119901E+005  0.1043930E+01  0.7957747E-01            NaN
         13   -1    0    0    0    0  0.00000000000E+00  0.00000000000E+00  0.74505805969E-08  0.10566000000E+00  0.10566000000E+00 0.  1.
     999900   -1    0    0    0    0 -0.00000000000E+00 -0.00000000000E+00 -0.74505805969E-08  0.93827000000E+00  0.93827000000E+00 0.  1.
     999902    2    1    2    0    0 -0.82597693751E-02 -0.17626879703E-01  0.11731922750E-01  0.10212018525E+01  0.10209488992E+01 0.  0.
     999903    2    3    3    0    0  0.67836962013E-01  0.87695376219E-01 -0.62012208921E-01  0.12860917546E+00  0.20061742977E-01 0.  0.
         14    1    1    2    0    0  0.82597693751E-02  0.17626879703E-01 -0.11731922750E-01  0.22728147518E-01  0.00000000000E+00 0. -1.
     999901    1    3    3    0    0 -0.76096731388E-01 -0.10532225592E+00  0.73744131671E-01  0.89259267702E+00  0.88000000000E+00 0. -1.
        -11    1    4    4    0    0  0.24355615558E-01  0.23853429499E-01 -0.28380126031E-01  0.44360734694E-01  0.51100000000E-03 0.  1.
         11    1    4    4    0    0  0.43481346455E-01  0.63841946720E-01 -0.33632082890E-01  0.84248440764E-01  0.51100000000E-03 0. -1.
</event>
<event>
 8    1  0.1119901E+005  0.1043930E+01  0.7957747E-01            NaN
         13   -1    0    0    0    0  0.00000000000E+00  0.00000000000E+00  0.74505805969E-08  0.10566000000E+00  0.10566000000E+00 0. -1.
     999900   -1    0    0    0    0 -0.00000000000E+00 -0.00000000000E+00 -0.74505805969E-08  0.93827000000E+00  0.93827000000E+00 0. -1.
     999902    2    1    2    0    0  0.12282753269E-01 -0.11552248221E-01  0.16309216632E-01  0.10204712913E+01  0.10202016200E+01 0.  0.
     999903    2    3    3    0    0  0.42711309183E-01  0.11981634786E+00  0.19345167495E-01  0.13019446803E+00  0.19903538728E-01 0.  0.
         14    1    1    2    0    0 -0.12282753269E-01  0.11552248221E-01 -0.16309216632E-01  0.23458708702E-01  0.00000000000E+00 0.  1.
     999901    1    3    3    0    0 -0.30428555914E-01 -0.13136859608E+00 -0.30359508636E-02  0.89027682327E+00  0.88000000000E+00 0. -1.
        -11    1    4    4    0    0  0.11759127557E-01  0.62068434802E-01  0.11358962010E-01  0.64187653164E-01  0.51100000000E-03 0. -1.
         11    1    4    4    0    0  0.30952181625E-01  0.57747913056E-01  0.79862054855E-02  0.66006814866E-01  0.51100000000E-03 0.  1.
</event>
<event>
 8    1  0.1119901E+005  0.1043930E+01  0.7957747E-01            NaN
         13   -1    0    0    0    0  0.00000000000E+00  0.00000000000E+00  0.74505805969E-08  0.10566000000E+00  0.10566000000E+00 0. -1.
     999900   -1    0    0    0    0 -0.00000000000E+00 -0.00000000000E+00 -0.74505805969E-08  0.93827000000E+00  0.93827000000E+00 0. -1.
     999902    2    1    2    0    0  0.73018857924E-03 -0.10091499693E-01  0.21884288636E-01  0.10198199683E+01  0.10195349303E+01 0.  0.
     999903    2    3    3    0    0  0.47662932541E-02  0.63331506056E-01  0.11398723349E+00  0.13196289622E+00  0.19685511691E-01 0.  0.
         14    1    1    2    0    0 -0.73018857924E-03  0.10091499693E-01 -0.21884288636E-01  0.24110031740E-01  0.00000000000E+00 0. -1.
     999901    1    3    3    0    0 -0.40361046749E-02 -0.73423005749E-01 -0.92102944853E-01  0.88785707204E+00  0.88000000000E+00 0. -1.
        -11    1    4    4    0    0  0.68300314956E-02  0.15297237954E-01  0.43697115443E-01  0.46801216205E-01  0.51100000000E-03 0.  1.
         11    1    4    4    0    0 -0.20637382415E-02  0.48034268102E-01  0.70290118046E-01  0.85161680018E-01  0.51100000000E-03 0. -1.
</event>
<event>
 8    1  0.1119901E+005  0.1043930E+01  0.7957747E-01            NaN
         13   -1    0    0    0    0  0.00000000000E+00  0.00000000000E+00  0.74505805969E-08  0.10566000000E+00  0.10566000000E+00 0. -1.
     999900   -1    0    0    0    0 -0.00000000000E+00 -0.00000000000E+00 -0.74505805969E-08  0.93827000000E+00  0.93827000000E+00 0. -1.
     999902    2    1    2    0    0  0.79126668022E-02  0.13795237012E-01 -0.17685837932E-01  0.10201453889E+01  0.10198680831E+01 0.  0.
     999903    2    3    3    0    0  0.51724772840E-01 -0.81297666761E-01  0.82679177983E-01  0.12827359467E+00  0.18262143138E-01 0.  0.
         14    1    1    2    0    0 -0.79126668022E-02 -0.13795237012E-01  0.17685837932E-01  0.23784611064E-01  0.00000000000E+00 0. -1.
     999901    1    3    3    0    0 -0.43812106038E-01  0.95092903772E-01 -0.10036501591E+00  0.89187179426E+00  0.88000000000E+00 0. -1.
        -11    1    4    4    0    0  0.22564709730E-01 -0.48093115129E-01  0.37177687720E-01  0.64842543390E-01  0.51100000000E-03 0. -1.
         11    1    4    4    0    0  0.29160063110E-01 -0.33204551632E-01  0.45501490263E-01  0.63431051283E-01  0.51100000000E-03 0.  1.
</event>
<event>
 8    1  0.1119901E+005  0.1043930E+01  0.7957747E-01            NaN
         13   -1    0    0    0    0  0.00000000000E+00  0.00000000000E+00  0.74505805969E-08  0.10566000000E+00  0.10566000000E+00 0. -1.
     999900   -1    0    0    0    0 -0.00000000000E+00 -0.00000000000E+00 -0.74505805969E-08  0.93827000000E+00  0.93827000000E+00 0. -1.
     999902    2    1    2    0    0 -0.20297221629E-01  0.84964091089E-02  0.89569294804E-02  0.10201730482E+01  0.10198963945E+01 0.  0.
     999903    2    3    3    0    0  0.32143476890E-01 -0.11289768971E+00 -0.47635408966E-01  0.12849527743E+00  0.21513081732E-01 0.  0.
         14    1    1    2    0    0  0.20297221629E-01 -0.84964091089E-02 -0.89569294804E-02  0.23756951811E-01  0.00000000000E+00 0.  1.
     999901    1    3    3    0    0 -0.52440698520E-01  0.12139409882E+00  0.56592338447E-01  0.89167777076E+00  0.88000000000E+00 0. -1.
        -11    1    4    4    0    0  0.18784118494E-01 -0.70783600417E-01 -0.40652096654E-01  0.83761657571E-01  0.51100000000E-03 0. -1.
         11    1    4    4    0    0  0.13359358396E-01 -0.42114089298E-01 -0.69833123126E-02  0.44733619862E-01  0.51100000000E-03 0.  1.
</event>
<event>
 8    1  0.1119901E+005  0.1043930E+01  0.7957747E-01            NaN
         13   -1    0    0    0    0  0.00000000000E+00  0.00000000000E+00  0.74505805969E-08  0.10566000000E+00  0.10566000000E+00 0.  1.
     999900   -1    0    0    0    0 -0.00000000000E+00 -0.00000000000E+00 -0.74505805969E-08  0.93827000000E+00  0.93827000000E+00 0.  1.
     999902    2    1    2    0    0 -0.16489183819E-01  0.15132649545E-01  0.90216484925E-02  0.10197995129E+01  0.10195139853E+01 0.  0.
     999903    2    3    3    0    0 -0.11963433050E+00  0.52348265090E-01  0.14751925365E-01  0.13297553974E+00  0.20301748124E-01 0.  0.
         14    1    1    2    0    0  0.16489183819E-01 -0.15132649545E-01 -0.90216484925E-02  0.24130487081E-01  0.00000000000E+00 0. -1.
     999901    1    3    3    0    0  0.10314514668E+00 -0.37215615545E-01 -0.57302768721E-02  0.88682397317E+00  0.88000000000E+00 0.  1.
        -11    1    4    4    0    0 -0.71102956771E-01  0.35686748191E-01 -0.90354834296E-04  0.79557801271E-01  0.51100000000E-03 0.  1.
         11    1    4    4    0    0 -0.48531373726E-01  0.16661516898E-01  0.14842280199E-01  0.53417738474E-01  0.51100000000E-03 0. -1.
</event>
<event>
 8    1  0.1119901E+005  0.1043930E+01  0.7957747E-01            NaN
         13   -1    0    0    0    0  0.00000000000E+00  0.00000000000E+00  0.74505805969E-08  0.10566000000E+00  0.10566000000E+00 0.  1.
     999900   -1    0    0    0    0 -0.00000000000E+00 -0.00000000000E+00 -0.74505805969E-08  0.93827000000E+00  0.93827000000E+00 0. -1.
     999902    2    1    2    0    0  0.74048948220E-02 -0.34743434305E-04  0.22552910331E-01  0.10201925309E+01  0.10199163361E+01 0.  0.
     999903    2    3    3    0    0 -0.29146701329E-01 -0.39328283459E-01 -0.11632622026E+00  0.12768627637E+00  0.19384312637E-01 0.  0.
         14    1    1    2    0    0 -0.74048948220E-02  0.34743434305E-04 -0.22552910331E-01  0.23737469091E-01  0.00000000000E+00 0. -1.
     999901    1    3    3    0    0  0.36551596151E-01  0.39293540024E-01  0.13887913059E+00  0.89250625453E+00  0.88000000000E+00 0.  1.
        -11    1    4    4    0    0 -0.19274879834E-01 -0.22231994902E-01 -0.45737683344E-01  0.54387309077E-01  0.51100000000E-03 0. -1.
         11    1    4    4    0    0 -0.98718214948E-02 -0.17096288556E-01 -0.70588536916E-01  0.73298967298E-01  0.51100000000E-03 0.  1.
</event>
<event>
 8    1  0.1119901E+005  0.1043930E+01  0.7957747E-01            NaN
         13   -1    0    0    0    0  0.00000000000E+00  0.00000000000E+00  0.74505805969E-08  0.10566000000E+00  0.10566000000E+00 0. -1.
     999900   -1    0    0    0    0 -0.00000000000E+00 -0.00000000000E+00 -0.74505805969E-08  0.93827000000E+00  0.93827000000E+00 0. -1.
     999902    2    1    2    0    0 -0.44345199815E-02 -0.25655719237E-01  0.16774441038E-02  0.10178398732E+01  0.10175054362E+01 0.  0.
     999903    2    3    3    0    0  0.73373224209E-01  0.36689598542E-01 -0.95116101243E-01  0.12693585250E+00  0.18327063644E-01 0.  0.
         14    1    1    2    0    0  0.44345199815E-02  0.25655719237E-01 -0.16774441038E-02  0.26090126786E-01  0.00000000000E+00 0.  1.
     999901    1    3    3    0    0 -0.77807744191E-01 -0.62345317779E-01  0.96793545347E-01  0.89090402071E+00  0.88000000000E+00 0.  1.
        -11    1    4    4    0    0  0.37635182792E-01  0.14602334323E-01 -0.34061599246E-01  0.52821291310E-01  0.51100000000E-03 0.  1.
         11    1    4    4    0    0  0.35738041417E-01  0.22087264220E-01 -0.61054501998E-01  0.74114561189E-01  0.51100000000E-03 0. -1.
</event>
<event>
 8    1  0.1119901E+005  0.1043930E+01  0.7957747E-01            NaN
         13   -1    0    0    0    0  0.00000000000E+00  0.00000000000E+00  0.74505805969E-08  0.10566000000E+00  0.10566000000E+00 0. -1.
     999900   -1    0    0    0    0 -0.00000000000E+00 -0.00000000000E+00 -0.74505805969E-08  0.93827000000E+00  0.93827000000E+00 0.  1.
     999902    2    1    2    0    0 -0.22498213306E-01  0.17768443813E-02  0.68900290275E-02  0.10203334054E+01  0.10200605172E+01 0.  0.
     999903    2    3    3    0    0 -0.60974929531E-01  0.57591874246E-02  0.11625661155E+00  0.13272010775E+00  0.18652533348E-01 0.  0.
         14    1    1    2    0    0  0.22498213306E-01 -0.17768443813E-02 -0.68900290275E-02  0.23596594626E-01  0.00000000000E+00 0. -1.
     999901    1    3    3    0    0  0.38476716225E-01 -0.39823430433E-02 -0.10936658252E+00  0.88761329762E+00  0.88000000000E+00 0.  1.
        -11    1    4    4    0    0 -0.16442115063E-01 -0.57581893645E-02  0.40498450749E-01  0.44089517196E-01  0.51100000000E-03 0. -1.
         11    1    4    4    0    0 -0.44532814468E-01  0.11517376789E-01  0.75758160803E-01  0.88630590553E-01  0.51100000000E-03 0.  1.
</event>
<event>
 8    1  0.1119901E+005  0.1043930E+01  0.7957747E-01            NaN
         13   -1    0    0    0    0  0.00000000000E+00  0.00000000000E+00  0.74505805969E-08  0.10566000000E+00  0.10566000000E+00 0.  1.
     999900   -1    0    0    0    0 -0.00000000000E+00 -0.00000000000E+00 -0.74505805969E-08  0.93827000000E+00  0.93827000000E+00 0. -1.
     999902    2    1    2    0    0  0.12043306353E-01 -0.14781118936E-01 -0.14484551078E-01  0.10199857956E+01  0.10197047113E+01 0.  0.
     999903    2    3    3    0    0  0.59995905002E-01  0.10352307647E+00 -0.47270880483E-01  0.13017105208E+00  0.19835087063E-01 0.  0.
         14    1    1    2    0    0 -0.12043306353E-01  0.14781118936E-01  0.14484551078E-01  0.23944204410E-01  0.00000000000E+00 0. -1.
     999901    1    3    3    0    0 -0.47952598650E-01 -0.11830419541E+00  0.32786329405E-01  0.88981474351E+00  0.88000000000E+00 0. -1.
        -11    1    4    4    0    0  0.81397226673E-02  0.85317145288E-02 -0.10708455970E-01  0.15936668038E-01  0.51100000000E-03 0.  1.
         11    1    4    4    0    0  0.51856182335E-01  0.94991361945E-01 -0.36562424513E-01  0.11423438404E+00  0.51100000000E-03 0. -1.
</event>
<event>
 8    1  0.1119901E+005  0.1043930E+01  0.7957747E-01            NaN
         13   -1    0    0    0    0  0.00000000000E+00  0.00000000000E+00  0.74505805969E-08  0.10566000000E+00  0.10566000000E+00 0. -1.
     999900   -1    0    0    0    0 -0.00000000000E+00 -0.00000000000E+00 -0.74505805969E-08  0.93827000000E+00  0.93827000000E+00 0.  1.
     999902    2    1    2    0    0  0.15006179232E-02  0.25306806819E-03 -0.28871413782E-01  0.10150185069E+01  0.10146066701E+01 0.  0.
     999903    2    3    3    0    0  0.24763315007E-01  0.55247089067E-01  0.10498773012E+00  0.12289532831E+00  0.20380766038E-01 0.  0.
         14    1    1    2    0    0 -0.15006179232E-02 -0.25306806819E-03  0.28871413782E-01  0.28911493067E-01  0.00000000000E+00 0. -1.
     999901    1    3    3    0    0 -0.23262697084E-01 -0.54994020998E-01 -0.13385914391E+00  0.89212317862E+00  0.88000000000E+00 0.  1.
        -11    1    4    4    0    0  0.35748477977E-02  0.18580944809E-01  0.17881625033E-01  0.26039291112E-01  0.51100000000E-03 0.  1.
         11    1    4    4    0    0  0.21188467210E-01  0.36666144257E-01  0.87106105091E-01  0.96856037202E-01  0.51100000000E-03 0. -1.
</event>
<event>
 8    1  0.1119901E+005  0.1043930E+01  0.7957747E-01            NaN
         13   -1    0    0    0    0  0.00000000000E+00  0.00000000000E+00  0.74505805969E-08  0.10566000000E+00  0.10566000000E+00 0.  1.
     999900   -1    0    0    0    0 -0.00000000000E+00 -0.00000000000E+00 -0.74505805969E-08  0.93827000000E+00  0.93827000000E+00 0. -1.
     999902    2    1    2    0    0  0.14038399036E-01  0.15366587118E-01  0.56316302661E-02  0.10223679058E+01  0.10221405045E+01 0.  0.
     999903    2    3    3    0    0  0.63712932056E-01 -0.11094664349E+00 -0.20005855745E-01  0.13159303404E+00  0.23409334253E-01 0.  0.
         14    1    1    2    0    0 -0.14038399036E-01 -0.15366587118E-01 -0.56316302661E-02  0.21562094208E-01  0.00000000000E+00 0. -1.
     999901    1    3    3    0    0 -0.49674533019E-01  0.12631323061E+00  0.25637486011E-01  0.89077487175E+00  0.88000000000E+00 0. -1.
        -11    1    4    4    0    0  0.18936481579E-01 -0.56238944346E-01 -0.79150257619E-02  0.59869173617E-01  0.51100000000E-03 0. -1.
         11    1    4    4    0    0  0.44776450477E-01 -0.54707699146E-01 -0.12090829983E-01  0.71723860422E-01  0.51100000000E-03 0.  1.
</event>
<event>
 8    1  0.1119901E+005  0.1043930E+01  0.7957747E-01            NaN
         13   -1    0    0    0    0  0.00000000000E+00  0.00000000000E+00  0.74505805969E-08  0.10566000000E+00  0.10566000000E+00 0. -1.
     999900   -1    0    0    0    0 -0.00000000000E+00 -0.00000000000E+00 -0.74505805969E-08  0.93827000000E+00  0.93827000000E+00 0.  1.
     999902    2    1    2    0    0  0.13638093775E-01 -0.17195987944E-01 -0.58184862281E-02  0.10212241773E+01  0.10209717263E+01 0.  0.
     999903    2    3    3    0    0  0.31629717972E-01 -0.11605856657E+00 -0.56000478850E-01  0.13408510117E+00  0.19306237105E-01 0.  0.
         14    1    1    2    0    0 -0.13638093775E-01  0.17195987944E-01  0.58184862281E-02  0.22705822715E-01  0.00000000000E+00 0.  1.
     999901    1    3    3    0    0 -0.17991624197E-01  0.98862578621E-01  0.50181992622E-01  0.88713907612E+00  0.88000000000E+00 0. -1.
        -11    1    4    4    0    0  0.28917830908E-01 -0.75110312941E-01 -0.32570041635E-01  0.86826659429E-01  0.51100000000E-03 0. -1.
         11    1    4    4    0    0  0.27118870639E-02 -0.40948253624E-01 -0.23430437215E-01  0.47258441737E-01  0.51100000000E-03 0.  1.
</event>
<event>
 8    1  0.1119901E+005  0.1043930E+01  0.7957747E-01            NaN
         13   -1    0    0    0    0  0.00000000000E+00  0.00000000000E+00  0.74505805969E-08  0.10566000000E+00  0.10566000000E+00 0.  1.
     999900   -1    0    0    0    0 -0.00000000000E+00 -0.00000000000E+00 -0.74505805969E-08  0.93827000000E+00  0.93827000000E+00 0.  1.
     999902    2    1    2    0    0 -0.42377496579E-02  0.18312559417E-01  0.14505466764E-01  0.10201872765E+01  0.10199109580E+01 0.  0.
     999903    2    3    3    0    0  0.43523941377E-01 -0.10480135043E+00  0.57987475541E-01  0.12927263465E+00  0.21707377173E-01 0.  0.
         14    1    1    2    0    0  0.42377496579E-02 -0.18312559417E-01 -0.14505466764E-01  0.23742723530E-01  0.00000000000E+00 0. -1.
     999901    1    3    3    0    0 -0.47761691034E-01  0.12311390985E+00 -0.43482008777E-01  0.89091464182E+00  0.88000000000E+00 0. -1.
        -11    1    4    4    0    0  0.20457855525E-01 -0.51834726438E-01  0.16411305012E-01  0.58094360920E-01  0.51100000000E-03 0. -1.
         11    1    4    4    0    0  0.23066085852E-01 -0.52966623993E-01  0.41576170530E-01  0.71178273726E-01  0.51100000000E-03 0.  1.
</event>
<event>
 8    1  0.1119901E+005  0.1043930E+01  0.7957747E-01            NaN
         13   -1    0    0    0    0  0.00000000000E+00  0.00000000000E+00  0.74505805969E-08  0.10566000000E+00  0.10566000000E+00 0.  1.
     999900   -1    0    0    0    0 -0.00000000000E+00 -0.00000000000E+00 -0.74505805969E-08  0.93827000000E+00  0.93827000000E+00 0.  1.
     999902    2    1    2    0    0 -0.14680365671E-01  0.18344114128E-01 -0.15356965042E-02  0.10203847664E+01  0.10201130788E+01 0.  0.
     999903    2    3    3    0    0  0.10918845613E+00 -0.21036635828E-01 -0.61784397158E-01  0.12879952968E+00  0.20182866907E-01 0.  0.
         14    1    1    2    0    0  0.14680365671E-01 -0.18344114128E-01  0.15356965042E-02  0.23545233554E-01  0.00000000000E+00 0. -1.
     999901    1    3    3    0    0 -0.12386882180E+00  0.39380749956E-01  0.60248700653E-01  0.89158523676E+00  0.88000000000E+00 0. -1.
        -11    1    4    4    0    0  0.93659033484E-01 -0.21002557517E-01 -0.45274943049E-01  0.10612824113E+00  0.51100000000E-03 0. -1.
         11    1    4    4    0    0  0.15529422643E-01 -0.34078311708E-04 -0.16509454109E-01  0.22671288559E-01  0.51100000000E-03 0.  1.
</event>
<event>
 8    1  0.1119901E+005  0.1043930E+01  0.7957747E-01            NaN
         13   -1    0    0    0    0  0.00000000000E+00  0.00000000000E+00  0.74505805969E-08  0.10566000000E+00  0.10566000000E+00 0. -1.
     999900   -1    0    0    0    0 -0.00000000000E+00 -0.00000000000E+00 -0.74505805969E-08  0.93827000000E+00  0.93827000000E+00 0. -1.
     999902    2    1    2    0    0 -0.17473365201E-01  0.42217664956E-02 -0.14664276832E-01  0.10207312324E+01  0.10204675722E+01 0.  0.
     999903    2    3    3    0    0 -0.42535085065E-01  0.12036515468E+00 -0.30489807494E-01  0.13260521439E+00  0.18907950695E-01 0.  0.
         14    1    1    2    0    0  0.17473365201E-01 -0.42217664956E-02  0.14664276832E-01  0.23198767614E-01  0.00000000000E+00 0. -1.
     999901    1    3    3    0    0  0.25061719864E-01 -0.11614338819E+00  0.15825530662E-01  0.88812601800E+00  0.88000000000E+00 0. -1.
        -11    1    4    4    0    0 -0.16081074356E-02  0.22752927964E-01 -0.94129439967E-02  0.24680890911E-01  0.51100000000E-03 0.  1.
         11    1    4    4    0    0 -0.40926977630E-01  0.97612226717E-01 -0.21076863497E-01  0.10792432348E+00  0.51100000000E-03 0. -1.
</event>
<event>
 8    1  0.1119901E+005  0.1043930E+01  0.7957747E-01            NaN
         13   -1    0    0    0    0  0.00000000000E+00  0.00000000000E+00  0.74505805969E-08  0.10566000000E+00  0.10566000000E+00 0.  1.
     999900   -1    0    0    0    0 -0.00000000000E+00 -0.00000000000E+00 -0.74505805969E-08  0.93827000000E+00  0.93827000000E+00 0.  1.
     999902    2    1    2    0    0  0.24928593584E-02 -0.18954636829E-01  0.12527769299E-01  0.10210731059E+01  0.10208172461E+01 0.  0.
     999903    2    3    3    0    0 -0.10121794138E+00 -0.81066188207E-01 -0.16920792159E-01  0.13232061347E+00  0.20140332998E-01 0.  0.
         14    1    1    2    0    0 -0.24928593584E-02  0.18954636829E-01 -0.12527769299E-01  0.22856894117E-01  0.00000000000E+00 0. -1.
     999901    1    3    3    0    0  0.10371080074E+00  0.62111551378E-01  0.29448561458E-01  0.88875249242E+00  0.88000000000E+00 0.  1.
        -11    1    4    4    0    0 -0.92998595650E-01 -0.78281742544E-01 -0.11564292094E-01  0.12210963918E+00  0.51100000000E-03 0.  1.
         11    1    4    4    0    0 -0.82193457301E-02 -0.27844456622E-02 -0.53565000655E-02  0.10210974284E-01  0.51100000000E-03 0. -1.
</event>
<event>
 8    1  0.1119901E+005  0.1043930E+01  0.7957747E-01            NaN
         13   -1    0    0    0    0  0.00000000000E+00  0.00000000000E+00  0.74505805969E-08  0.10566000000E+00  0.10566000000E+00 0. -1.
     999900   -1    0    0    0    0 -0.00000000000E+00 -0.00000000000E+00 -0.74505805969E-08  0.93827000000E+00  0.93827000000E+00 0. -1.
     999902    2    1    2    0    0 -0.18228258275E-01 -0.51918839677E-02  0.14472000582E-01  0.10200833260E+01  0.10198045539E+01 0.  0.
     999903    2    3    3    0    0 -0.46246104657E-01  0.34018787077E-01  0.11876123375E+00  0.13261573755E+00  0.13664667343E-01 0.  0.
         14    1    1    2    0    0  0.18228258275E-01  0.51918839677E-02 -0.14472000582E-01  0.23846673976E-01  0.00000000000E+00 0.  1.
     999901    1    3    3    0    0  0.28017846383E-01 -0.39210671045E-01 -0.10428923317E+00  0.88746758848E+00  0.88000000000E+00 0. -1.
        -11    1    4    4    0    0 -0.30206044976E-01  0.29103960436E-01  0.90433547124E-01  0.99689183127E-01  0.51100000000E-03 0.  1.
         11    1    4    4    0    0 -0.16040059681E-01  0.49148266419E-02  0.28327686626E-01  0.32926554421E-01  0.51100000000E-03 0. -1.
</event>
<event>
 8    1  0.1119901E+005  0.1043930E+01  0.7957747E-01            NaN
         13   -1    0    0    0    0  0.00000000000E+00  0.00000000000E+00  0.74505805969E-08  0.10566000000E+00  0.10566000000E+00 0.  1.
     999900   -1    0    0    0    0 -0.00000000000E+00 -0.00000000000E+00 -0.74505805969E-08  0.93827000000E+00  0.93827000000E+00 0.  1.
     999902    2    1    2    0    0  0.19484240794E-02  0.22655900545E-01  0.41658298304E-02  0.10208120346E+01  0.10205502289E+01 0.  0.
     999903    2    3    3    0    0  0.12522972972E+00 -0.19981798856E-01 -0.24559363417E-01  0.13073260531E+00  0.20151780721E-01 0.  0.
         14    1    1    2    0    0 -0.19484240794E-02 -0.22655900545E-01 -0.41658298304E-02  0.23117965396E-01  0.00000000000E+00 0. -1.
     999901    1    3    3    0    0 -0.12328130565E+00  0.42637699401E-01  0.28725193247E-01  0.89007942930E+00  0.88000000000E+00 0. -1.
        -11    1    4    4    0    0  0.95431682126E-01 -0.17145232858E-01 -0.27131003323E-01  0.10068523936E+00  0.51100000000E-03 0. -1.
         11    1    4    4    0    0  0.29798047599E-01 -0.28365659988E-02  0.25716399058E-02  0.30047365944E-01  0.51100000000E-03 0.  1.
</event>
<event>
 8    1  0.1119901E+005  0.1043930E+01  0.7957747E-01            NaN
         13   -1    0    0    0    0  0.00000000000E+00  0.00000000000E+00  0.74505805969E-08  0.10566000000E+00  0.10566000000E+00 0.  1.
     999900   -1    0    0    0    0 -0.00000000000E+00 -0.00000000000E+00 -0.74505805969E-08  0.93827000000E+00  0.93827000000E+00 0.  1.
     999902    2    1    2    0    0 -0.17298176222E-01  0.10594532989E-01 -0.83709950946E-02  0.10219858758E+01  0.10217502560E+01 0.  0.
     999903    2    3    3    0    0 -0.12495375498E+00  0.31984717325E-01  0.31596231704E-01  0.13426708986E+00  0.19820861119E-01 0.  0.
         14    1    1    2    0    0  0.17298176222E-01 -0.10594532989E-01  0.83709950946E-02  0.21944124242E-01  0.00000000000E+00 0. -1.
     999901    1    3    3    0    0  0.10765557876E+00 -0.21390184336E-01 -0.39967226798E-01  0.88771878590E+00  0.88000000000E+00 0.  1.
        -11    1    4    4    0    0 -0.83754113346E-01  0.16473393943E-01  0.29048460436E-01  0.90167612727E-01  0.51100000000E-03 0.  1.
         11    1    4    4    0    0 -0.41199641632E-01  0.15511323383E-01  0.25477712680E-02  0.44099477130E-01  0.51100000000E-03 0. -1.
</event>
<event>
 8    1  0.1119901E+005  0.1043930E+01  0.7957747E-01            NaN
         13   -1    0    0    0    0  0.00000000000E+00  0.00000000000E+00  0.74505805969E-08  0.10566000000E+00  0.10566000000E+00 0.  1.
     999900   -1    0    0    0    0 -0.00000000000E+00 -0.00000000000E+00 -0.74505805969E-08  0.93827000000E+00  0.93827000000E+00 0. -1.
     999902    2    1    2    0    0  0.18332930603E-02 -0.96340369740E-02  0.21458075398E-01  0.10203371063E+01  0.10200643048E+01 0.  0.
     999903    2    3    3    0    0  0.70309685575E-01 -0.10912124237E+00 -0.84077777459E-02  0.13158590968E+00  0.19830871830E-01 0.  0.
         14    1    1    2    0    0 -0.18332930603E-02  0.96340369740E-02 -0.21458075398E-01  0.23592893668E-01  0.00000000000E+00 0. -1.
     999901    1    3    3    0    0 -0.68476392515E-01  0.99487205395E-01  0.29865853144E-01  0.88875119665E+00  0.88000000000E+00 0.  1.
        -11    1    4    4    0    0  0.14585330763E-01 -0.33522086997E-01 -0.90520152265E-02  0.37665133622E-01  0.51100000000E-03 0. -1.
         11    1    4    4    0    0  0.55724354812E-01 -0.75599155371E-01  0.64423748064E-03  0.93920776056E-01  0.51100000000E-03 0.  1.
</event>
<event>
 8    1  0.1119901E+005  0.1043930E+01  0.7957747E-01            NaN
         13   -1    0    0    0    0  0.00000000000E+00  0.00000000000E+00  0.74505805969E-08  0.10566000000E+00  0.10566000000E+00 0.  1.
     999900   -1    0    0    0    0 -0.00000000000E+00 -0.00000000000E+00 -0.74505805969E-08  0.93827000000E+00  0.93827000000E+00 0.  1.
     999902    2    1    2    0    0  0.13789349288E-01 -0.15664756101E-01  0.10806436844E-01  0.10204287274E+01  0.10201580651E+01 0.  0.
     999903    2    3    3    0    0 -0.44516126254E-01  0.68206163989E-01 -0.96741235824E-01  0.12801606408E+00  0.19886670211E-01 0.  0.
         14    1    1    2    0    0 -0.13789349288E-01  0.15664756101E-01 -0.10806436844E-01  0.23501272620E-01  0.00000000000E+00 0. -1.
     999901    1    3    3    0    0  0.58305475542E-01 -0.83870920090E-01  0.10754767267E+00  0.89241266330E+00  0.88000000000E+00 0. -1.
        -11    1    4    4    0    0 -0.28730666262E-01  0.56546620808E-01 -0.65974383296E-01  0.91519680293E-01  0.51100000000E-03 0. -1.
         11    1    4    4    0    0 -0.15785459992E-01  0.11659543181E-01 -0.30766852528E-01  0.36496383791E-01  0.51100000000E-03 0.  1.
</event>
<event>
 8    1  0.1119901E+005  0.1043930E+01  0.7957747E-01            NaN
         13   -1    0    0    0    0  0.00000000000E+00  0.00000000000E+00  0.74505805969E-08  0.10566000000E+00  0.10566000000E+00 0.  1.
     999900   -1    0    0    0    0 -0.00000000000E+00 -0.00000000000E+00 -0.74505805969E-08  0.93827000000E+00  0.93827000000E+00 0. -1.
     999902    2    1    2    0    0 -0.18170774595E-01  0.11829170348E-01  0.24760670557E-02  0.10221071398E+01  0.10218741449E+01 0.  0.
     999903    2    3    3    0    0 -0.12682655804E+00  0.26547661008E-01  0.31308751563E-01  0.13483376761E+00  0.20252230378E-01 0.  0.
         14    1    1    2    0    0  0.18170774595E-01 -0.11829170348E-01 -0.24760670557E-02  0.21822860229E-01  0.00000000000E+00 0. -1.
     999901    1    3    3    0    0  0.10865578344E+00 -0.14718490659E-01 -0.28832684507E-01  0.88727337216E+00  0.88000000000E+00 0.  1.
        -11    1    4    4    0    0 -0.33549195221E-01  0.18586857291E-02  0.72611219327E-03  0.33612372313E-01  0.51100000000E-03 0. -1.
         11    1    4    4    0    0 -0.93277362819E-01  0.24688975279E-01  0.30582639370E-01  0.10122139530E+00  0.51100000000E-03 0.  1.
</event>
<event>
 8    1  0.1119901E+005  0.1043930E+01  0.7957747E-01            NaN
         13   -1    0    0    0    0  0.00000000000E+00  0.00000000000E+00  0.74505805969E-08  0.10566000000E+00  0.10566000000E+00 0.  1.
     999900   -1    0    0    0    0 -0.00000000000E+00 -0.00000000000E+00 -0.74505805969E-08  0.93827000000E+00  0.93827000000E+00 0. -1.
     999902    2    1    2    0    0  0.14408379315E-01 -0.11696038743E-01  0.54729445146E-02  0.10245818260E+01  0.10243991245E+01 0.  0.
     999903    2    3    3    0    0 -0.89364553213E-01 -0.33960889985E-01 -0.89897310572E-01  0.13308867923E+00  0.22174414789E-01 0.  0.
         14    1    1    2    0    0 -0.14408379315E-01  0.11696038743E-01 -0.54729445146E-02  0.19348174033E-01  0.00000000000E+00 0. -1.
     999901    1    3    3    0    0  0.10377293253E+00  0.22264851242E-01  0.95370255086E-01  0.89149314674E+00  0.88000000000E+00 0.  1.
        -11    1    4    4    0    0 -0.39470684277E-01 -0.44942815434E-02 -0.30311221940E-01  0.49971639761E-01  0.51100000000E-03 0.  1.
         11    1    4    4    0    0 -0.49893868935E-01 -0.29466608442E-01 -0.59586088631E-01  0.83117039467E-01  0.51100000000E-03 0. -1.
</event>
<event>
 8    1  0.1119901E+005  0.1043930E+01  0.7957747E-01            NaN
         13   -1    0    0    0    0  0.00000000000E+00  0.00000000000E+00  0.74505805969E-08  0.10566000000E+00  0.10566000000E+00 0. -1.
     999900   -1    0    0    0    0 -0.00000000000E+00 -0.00000000000E+00 -0.74505805969E-08  0.93827000000E+00  0.93827000000E+00 0.  1.
     999902    2    1    2    0    0  0.31711682058E-02  0.79886289080E-02  0.22059558034E-01  0.10202551484E+01  0.10199804259E+01 0.  0.
     999903    2    3    3    0    0  0.11628948980E+00  0.45366766809E-01  0.38368501432E-01  0.13207787917E+00  0.19774612351E-01 0.  0.
         14    1    1    2    0    0 -0.31711682058E-02 -0.79886289080E-02 -0.22059558034E-01  0.23674851642E-01  0.00000000000E+00 0.  1.
     999901    1    3    3    0    0 -0.11311832160E+00 -0.37378137901E-01 -0.16308943398E-01  0.88817726919E+00  0.88000000000E+00 0. -1.
        -11    1    4    4    0    0  0.94765812337E-01  0.38038859023E-01  0.23133810398E-01  0.10470409872E+00  0.51100000000E-03 0. -1.
         11    1    4    4    0    0  0.21523677466E-01  0.73279077861E-02  0.15234691034E-01  0.27373780449E-01  0.51100000000E-03 0.  1.
</event>
<event>
 8    1  0.1119901E+005  0.1043930E+01  0.7957747E-01            NaN
         13   -1    0    0    0    0  0.00000000000E+00  0.00000000000E+00  0.74505805969E-08  0.10566000000E+00  0.10566000000E+00 0.  1.
     999900   -1    0    0    0    0 -0.00000000000E+00 -0.00000000000E+00 -0.74505805969E-08  0.93827000000E+00  0.93827000000E+00 0. -1.
     999902    2    1    2    0    0  0.78357927580E-02 -0.16144430304E-01  0.14984708692E-01  0.10205508689E+01  0.10202830451E+01 0.  0.
     999903    2    3    3    0    0 -0.88933817361E-01 -0.73886230592E-01 -0.56863994059E-01  0.13046058747E+00  0.20446322945E-01 0.  0.
         14    1    1    2    0    0 -0.78357927580E-02  0.16144430304E-01 -0.14984708692E-01  0.23379131134E-01  0.00000000000E+00 0. -1.
     999901    1    3    3    0    0  0.96769610119E-01  0.57741800288E-01  0.71848702751E-01  0.89009028139E+00  0.88000000000E+00 0.  1.
        -11    1    4    4    0    0 -0.78328207055E-01 -0.71717327212E-01 -0.54494194409E-01  0.11936733803E+00  0.51100000000E-03 0. -1.
         11    1    4    4    0    0 -0.10605610307E-01 -0.21689033800E-02 -0.23697996493E-02  0.11093249444E-01  0.51100000000E-03 0.  1.
</event>
<event>
 8    1  0.1119901E+005  0.1043930E+01  0.7957747E-01            NaN
         13   -1    0    0    0    0  0.00000000000E+00  0.00000000000E+00  0.74505805969E-08  0.10566000000E+00  0.10566000000E+00 0.  1.
     999900   -1    0    0    0    0 -0.00000000000E+00 -0.00000000000E+00 -0.74505805969E-08  0.93827000000E+00  0.93827000000E+00 0. -1.
     999902    2    1    2    0    0  0.18761521728E-01 -0.13528941796E-01  0.50361876432E-03  0.10207938682E+01  0.10205316461E+01 0.  0.
     999903    2    3    3    0    0  0.10295794066E+00 -0.42897319150E-01 -0.70159867269E-01  0.13346931267E+00  0.21239889712E-01 0.  0.
         14    1    1    2    0    0 -0.18761521728E-01  0.13528941796E-01 -0.50361876432E-03  0.23136131819E-01  0.00000000000E+00 0.  1.
     999901    1    3    3    0    0 -0.84196418932E-01  0.29368377354E-01  0.70663486033E-01  0.88732455551E+00  0.88000000000E+00 0.  1.
        -11    1    4    4    0    0  0.59223172875E-01 -0.18512987242E-01 -0.49175238496E-01  0.79174365196E-01  0.51100000000E-03 0. -1.
         11    1    4    4    0    0  0.43734767785E-01 -0.24384331909E-01 -0.20984628773E-01  0.54294947477E-01  0.51100000000E-03 0.  1.
</event>
<event>
 8    1  0.1119901E+005  0.1043930E+01  0.7957747E-01            NaN
         13   -1    0    0    0    0  0.00000000000E+00  0.00000000000E+00  0.74505805969E-08  0.10566000000E+00  0.10566000000E+00 0.  1.
     999900   -1    0    0    0    0 -0.00000000000E+00 -0.00000000000E+00 -0.74505805969E-08  0.93827000000E+00  0.93827000000E+00 0.  1.
     999902    2    1    2    0    0  0.21303258706E-01  0.45076643783E-02  0.82479435723E-02  0.10206453174E+01  0.10203796781E+01 0.  0.
     999903    2    3    3    0    0 -0.10191607124E+00  0.67782322020E-01  0.36744967929E-01  0.12935481149E+00  0.20028625275E-01 0.  0.
         14    1    1    2    0    0 -0.21303258706E-01 -0.45076643783E-02 -0.82479435723E-02  0.23284682579E-01  0.00000000000E+00 0. -1.
     999901    1    3    3    0    0  0.12321932995E+00 -0.63274657642E-01 -0.28497024357E-01  0.89129050594E+00  0.88000000000E+00 0. -1.
        -11    1    4    4    0    0 -0.32517941947E-01  0.31241107993E-01  0.19028043973E-01  0.48946409016E-01  0.51100000000E-03 0.  1.
         11    1    4    4    0    0 -0.69398129296E-01  0.36541214027E-01  0.17716923957E-01  0.80408402470E-01  0.51100000000E-03 0. -1.
</event>
<event>
 8    1  0.1119901E+005  0.1043930E+01  0.7957747E-01            NaN
         13   -1    0    0    0    0  0.00000000000E+00  0.00000000000E+00  0.74505805969E-08  0.10566000000E+00  0.10566000000E+00 0. -1.
     999900   -1    0    0    0    0 -0.00000000000E+00 -0.00000000000E+00 -0.74505805969E-08  0.93827000000E+00  0.93827000000E+00 0. -1.
     999902    2    1    2    0    0 -0.68850031130E-02  0.23299097612E-01 -0.50893544173E-02  0.10191075757E+01  0.10188052307E+01 0.  0.
     999903    2    3    3    0    0  0.87697503487E-01 -0.50760803329E-02 -0.92676011822E-01  0.12926353108E+00  0.20089763316E-01 0.  0.
         14    1    1    2    0    0  0.68850031130E-02 -0.23299097612E-01  0.50893544173E-02  0.24822424253E-01  0.00000000000E+00 0.  1.
     999901    1    3    3    0    0 -0.94582506600E-01  0.28375177945E-01  0.87586657405E-01  0.88984404467E+00  0.88000000000E+00 0.  1.
        -11    1    4    4    0    0  0.18438361480E-02  0.23230381325E-02 -0.75789121901E-02  0.81545857584E-02  0.51100000000E-03 0.  1.
         11    1    4    4    0    0  0.85853667339E-01 -0.73991184654E-02 -0.85097099632E-01  0.12110894532E+00  0.51100000000E-03 0. -1.
</event>
<event>
 8    1  0.1119901E+005  0.1043930E+01  0.7957747E-01            NaN
         13   -1    0    0    0    0  0.00000000000E+00  0.00000000000E+00  0.74505805969E-08  0.10566000000E+00  0.10566000000E+00 0. -1.
     999900   -1    0    0    0    0 -0.00000000000E+00 -0.00000000000E+00 -0.74505805969E-08  0.93827000000E+00  0.93827000000E+00 0.  1.
     999902    2    1    2    0    0  0.90190875596E-02 -0.51763210224E-02 -0.20615906315E-01  0.10208398759E+01  0.10205787076E+01 0.  0.
     999903    2    3    3    0    0 -0.80004057700E-01  0.45837416669E-01  0.86873457115E-01  0.12838176195E+00  0.20812525921E-01 0.  0.
         14    1    1    2    0    0 -0.90190875596E-02  0.51763210224E-02  0.20615906315E-01  0.23090124143E-01  0.00000000000E+00 0. -1.
     999901    1    3    3    0    0  0.89023145260E-01 -0.51013737692E-01 -0.10748936343E+00  0.89245811391E+00  0.88000000000E+00 0.  1.
        -11    1    4    4    0    0 -0.46786882356E-01  0.23564829644E-01  0.35539869069E-01  0.63306057934E-01  0.51100000000E-03 0.  1.
         11    1    4    4    0    0 -0.33217175345E-01  0.22272587026E-01  0.51333588046E-01  0.65075704018E-01  0.51100000000E-03 0. -1.
</event>
<event>
 8    1  0.1119901E+005  0.1043930E+01  0.7957747E-01            NaN
         13   -1    0    0    0    0  0.00000000000E+00  0.00000000000E+00  0.74505805969E-08  0.10566000000E+00  0.10566000000E+00 0.  1.
     999900   -1    0    0    0    0 -0.00000000000E+00 -0.00000000000E+00 -0.74505805969E-08  0.93827000000E+00  0.93827000000E+00 0. -1.
     999902    2    1    2    0    0 -0.16351954825E-01 -0.14701370521E-01  0.94809223239E-02  0.10199841317E+01  0.10197030079E+01 0.  0.
     999903    2    3    3    0    0  0.61039485808E-01 -0.93471076915E-01 -0.63741432641E-01  0.13006525054E+00  0.19782267717E-01 0.  0.
         14    1    1    2    0    0  0.16351954825E-01  0.14701370521E-01 -0.94809223239E-02  0.23945868326E-01  0.00000000000E+00 0. -1.
     999901    1    3    3    0    0 -0.77391440633E-01  0.78769706394E-01  0.73222354965E-01  0.88991888113E+00  0.88000000000E+00 0.  1.
        -11    1    4    4    0    0  0.18423720679E-01 -0.45403018903E-01 -0.24469013751E-01  0.54770990169E-01  0.51100000000E-03 0.  1.
         11    1    4    4    0    0  0.42615765130E-01 -0.48068058011E-01 -0.39272418890E-01  0.75294260373E-01  0.51100000000E-03 0. -1.
</event>
<event>
 8    1  0.1119901E+005  0.1043930E+01  0.7957747E-01            NaN
         13   -1    0    0    0    0  0.00000000000E+00  0.00000000000E+00  0.74505805969E-08  0.10566000000E+00  0.10566000000E+00 0. -1.
     999900   -1    0    0    0    0 -0.00000000000E+00 -0.00000000000E+00 -0.74505805969E-08  0.93827000000E+00  0.93827000000E+00 0. -1.
     999902    2    1    2    0    0  0.39690055207E-02 -0.18356399557E-01  0.15897109978E-01  0.10193245430E+01  0.10190275244E+01 0.  0.
     999903    2    3    3    0    0 -0.77833551314E-01 -0.13338131409E-01  0.10300552798E+00  0.13123405333E+00  0.19397693129E-01 0.  0.
         14    1    1    2    0    0 -0.39690055207E-02  0.18356399557E-01 -0.15897109978E-01  0.24605457020E-01  0.00000000000E+00 0. -1.
     999901    1    3    3    0    0  0.81802556835E-01 -0.50182681487E-02 -0.87108418004E-01  0.88809048965E+00  0.88000000000E+00 0. -1.
        -11    1    4    4    0    0 -0.37487193107E-01 -0.10198092833E-02  0.35572465908E-01  0.51691305940E-01  0.51100000000E-03 0. -1.
         11    1    4    4    0    0 -0.40346358208E-01 -0.12318322125E-01  0.67433062074E-01  0.79542747389E-01  0.51100000000E-03 0.  1.
</event>
<event>
 8    1  0.1119901E+005  0.1043930E+01  0.7957747E-01            NaN
         13   -1    0    0    0    0  0.00000000000E+00  0.00000000000E+00  0.74505805969E-08  0.10566000000E+00  0.10566000000E+00 0. -1.
     999900   -1    0    0    0    0 -0.00000000000E+00 -0.00000000000E+00 -0.74505805969E-08  0.93827000000E+00  0.93827000000E+00 0. -1.
     999902    2    1    2    0    0  0.84380416222E-02 -0.87257935043E-02  0.21533801204E-01  0.10192106834E+01  0.10189108757E+01 0.  0.
     999903    2    3    3    0    0 -0.93277084111E-01  0.51241719793E-01  0.71902972285E-01  0.12989683394E+00  0.19411897806E-01 0.  0.
         14    1    1    2    0    0 -0.84380416222E-02  0.87257935043E-02 -0.21533801204E-01  0.24719316596E-01  0.00000000000E+00 0.  1.
     999901    1    3    3    0    0  0.10171512573E+00 -0.59967513297E-01 -0.50369171081E-01  0.88931384946E+00  0.88000000000E+00 0. -1.
        -11    1    4    4    0    0 -0.78505492162E-01  0.39396393343E-01  0.50514849354E-01  0.10132718902E+00  0.51100000000E-03 0. -1.
         11    1    4    4    0    0 -0.14771591949E-01  0.11845326451E-01  0.21388122931E-01  0.28569644922E-01  0.51100000000E-03 0.  1.
</event>
<event>
 8    1  0.1119901E+005  0.1043930E+01  0.7957747E-01            NaN
         13   -1    0    0    0    0  0.00000000000E+00  0.00000000000E+00  0.74505805969E-08  0.10566000000E+00  0.10566000000E+00 0.  1.
     999900   -1    0    0    0    0 -0.00000000000E+00 -0.00000000000E+00 -0.74505805969E-08  0.93827000000E+00  0.93827000000E+00 0. -1.
     999902    2    1    2    0    0 -0.16661427348E-01 -0.13382622086E-01  0.11193345381E-01  0.10198055577E+01  0.10195201748E+01 0.  0.
     999903    2    3    3    0    0  0.97778182777E-03  0.43110461833E-01 -0.11694835211E+00  0.12855760968E+00  0.31474973676E-01 0.  0.
         14    1    1    2    0    0  0.16661427348E-01  0.13382622086E-01 -0.11193345381E-01  0.24124442294E-01  0.00000000000E+00 0. -1.
     999901    1    3    3    0    0 -0.17639209175E-01 -0.56493083919E-01  0.12814169749E+00  0.89124794803E+00  0.88000000000E+00 0.  1.
        -11    1    4    4    0    0 -0.53666087288E-02  0.43946911585E-01 -0.83641168695E-01  0.94637401426E-01  0.51100000000E-03 0.  1.
         11    1    4    4    0    0  0.63443905565E-02 -0.83644975204E-03 -0.33307183415E-01  0.33920208251E-01  0.51100000000E-03 0. -1.
</event>
<event>
 8    1  0.1119901E+005  0.1043930E+01  0.7957747E-01            NaN
         13   -1    0    0    0    0  0.00000000000E+00  0.00000000000E+00  0.74505805969E-08  0.10566000000E+00  0.10566000000E+00 0. -1.
     999900   -1    0    0    0    0 -0.00000000000E+00 -0.00000000000E+00 -0.74505805969E-08  0.93827000000E+00  0.93827000000E+00 0. -1.
     999902    2    1    2    0    0  0.10232249438E-01 -0.37384512914E-02 -0.21084779850E-01  0.10201972613E+01  0.10199211778E+01 0.  0.
     999903    2    3    3    0    0 -0.95121811487E-01 -0.75746781044E-02  0.82339190070E-01  0.12789086078E+00  0.21697817416E-01 0.  0.
         14    1    1    2    0    0 -0.10232249438E-01  0.37384512914E-02  0.21084779850E-01  0.23732738737E-01  0.00000000000E+00 0.  1.
     999901    1    3    3    0    0  0.10535406092E+00  0.38362268130E-02 -0.10342396992E+00  0.89230640048E+00  0.88000000000E+00 0. -1.
        -11    1    4    4    0    0 -0.51421739236E-01 -0.83571236498E-02  0.31653527061E-01  0.60961001289E-01  0.51100000000E-03 0. -1.
         11    1    4    4    0    0 -0.43700072251E-01  0.78244554544E-03  0.50685663009E-01  0.66929859491E-01  0.51100000000E-03 0.  1.
</event>
<event>
 8    1  0.1119901E+005  0.1043930E+01  0.7957747E-01            NaN
         13   -1    0    0    0    0  0.00000000000E+00  0.00000000000E+00  0.74505805969E-08  0.10566000000E+00  0.10566000000E+00 0. -1.
     999900   -1    0    0    0    0 -0.00000000000E+00 -0.00000000000E+00 -0.74505805969E-08  0.93827000000E+00  0.93827000000E+00 0. -1.
     999902    2    1    2    0    0  0.15156582447E-01 -0.16876813345E-01 -0.52312131187E-02  0.10206509448E+01  0.10203854354E+01 0.  0.
     999903    2    3    3    0    0  0.19864223756E-01 -0.90329375727E-01 -0.93632951807E-01  0.13316443324E+00  0.20289236330E-01 0.  0.
         14    1    1    2    0    0 -0.15156582447E-01  0.16876813345E-01  0.52312131187E-02  0.23279055196E-01  0.00000000000E+00 0. -1.
     999901    1    3    3    0    0 -0.47076413091E-02  0.73452562382E-01  0.88401738688E-01  0.88748651157E+00  0.88000000000E+00 0.  1.
        -11    1    4    4    0    0  0.18013551351E-01 -0.70850968865E-01 -0.61475775891E-01  0.95519003156E-01  0.51100000000E-03 0. -1.
         11    1    4    4    0    0  0.18506724052E-02 -0.19478406862E-01 -0.32157175916E-01  0.37645430083E-01  0.51100000000E-03 0.  1.
</event>
<event>
 8    1  0.1119901E+005  0.1043930E+01  0.7957747E-01            NaN
         13   -1    0    0    0    0  0.00000000000E+00  0.00000000000E+00  0.74505805969E-08  0.10566000000E+00  0.10566000000E+00 0.  1.
     999900   -1    0    0    0    0 -0.00000000000E+00 -0.00000000000E+00 -0.74505805969E-08  0.93827000000E+00  0.93827000000E+00 0. -1.
     999902    2    1    2    0    0  0.74537408501E-02 -0.18629538577E-01  0.12339399119E-01  0.10203741360E+01  0.10201022001E+01 0.  0.
     999903    2    3    3    0    0  0.57385957063E-01  0.10860221460E+00  0.35828680784E-01  0.12951337715E+00  0.20060693114E-01 0.  0.
         14    1    1    2    0    0 -0.74537408501E-02  0.18629538577E-01 -0.12339399119E-01  0.23555864044E-01  0.00000000000E+00 0. -1.
     999901    1    3    3    0    0 -0.49932216213E-01 -0.12723175318E+00 -0.23489281665E-01  0.89086075881E+00  0.88000000000E+00 0. -1.
        -11    1    4    4    0    0  0.36877537122E-01  0.81964668822E-01  0.33100081388E-01  0.95781189114E-01  0.51100000000E-03 0.  1.
         11    1    4    4    0    0  0.20508419941E-01  0.26637545782E-01  0.27285993959E-02  0.33732188032E-01  0.51100000000E-03 0. -1.
</event>
<event>
 8    1  0.1119901E+005  0.1043930E+01  0.7957747E-01            NaN
         13   -1    0    0    0    0  0.00000000000E+00  0.00000000000E+00  0.74505805969E-08  0.10566000000E+00  0.10566000000E+00 0. -1.
     999900   -1    0    0    0    0 -0.00000000000E+00 -0.00000000000E+00 -0.74505805969E-08  0.93827000000E+00  0.93827000000E+00 0.  1.
     999902    2    1    2    0    0 -0.15144163166E-01 -0.32182833809E-02  0.15532580439E-01  0.10219991067E+01  0.10217637741E+01 0.  0.
     999903    2    3    3    0    0 -0.60433304170E-01 -0.37898518134E-02 -0.11474340532E+00  0.13125600936E+00  0.19888280452E-01 0.  0.
         14    1    1    2    0    0  0.15144163166E-01  0.32182833809E-02 -0.15532580439E-01  0.21930893302E-01  0.00000000000E+00 0.  1.
     999901    1    3    3    0    0  0.45289141003E-01  0.57156843243E-03  0.13027598576E+00  0.89074309733E+00  0.88000000000E+00 0. -1.
        -11    1    4    4    0    0 -0.48383909954E-01 -0.10826929042E-01 -0.93520777412E-01  0.10585188739E+00  0.51100000000E-03 0. -1.
         11    1    4    4    0    0 -0.12049394215E-01  0.70370772291E-02 -0.21222627910E-01  0.25404121974E-01  0.51100000000E-03 0.  1.
</event>
<event>
 8    1  0.1119901E+005  0.1043930E+01  0.7957747E-01            NaN
         13   -1    0    0    0    0  0.00000000000E+00  0.00000000000E+00  0.74505805969E-08  0.10566000000E+00  0.10566000000E+00 0.  1.
     999900   -1    0    0    0    0 -0.00000000000E+00 -0.00000000000E+00 -0.74505805969E-08  0.93827000000E+00  0.93827000000E+00 0.  1.
     999902    2    1    2    0    0  0.23150573336E-02  0.18424004423E-01 -0.13466307423E-01  0.10209921521E+01  0.10207344561E+01 0.  0.
     999903    2    3    3    0    0 -0.46288622554E-01  0.57058782235E-01  0.10628701527E+00  0.13071364399E+00  0.19768305464E-01 0.  0.
         14    1    1    2    0    0 -0.23150573336E-02 -0.18424004423E-01  0.13466307423E-01  0.22937847873E-01  0.00000000000E+00 0. -1.
     999901    1    3    3    0    0  0.48603679887E-01 -0.38634777811E-01 -0.11975332270E+00  0.89027850814E+00  0.88000000000E+00 0.  1.
        -11    1    4    4    0    0 -0.24013943582E-01  0.42500758670E-01  0.76690005942E-01  0.90909857036E-01  0.51100000000E-03 0. -1.
         11    1    4    4    0    0 -0.22274678971E-01  0.14558023565E-01  0.29597009332E-01  0.39803786953E-01  0.51100000000E-03 0.  1.
</event>
<event>
 8    1  0.1119901E+005  0.1043930E+01  0.7957747E-01            NaN
         13   -1    0    0    0    0  0.00000000000E+00  0.00000000000E+00  0.74505805969E-08  0.10566000000E+00  0.10566000000E+00 0.  1.
     999900   -1    0    0    0    0 -0.00000000000E+00 -0.00000000000E+00 -0.74505805969E-08  0.93827000000E+00  0.93827000000E+00 0.  1.
     999902    2    1    2    0    0  0.18978532679E-01 -0.14775523700E-01  0.30959106751E-02  0.10196795265E+01  0.10193911179E+01 0.  0.
     999903    2    3    3    0    0  0.12292723750E+00 -0.12686033281E-01 -0.42874333179E-01  0.13236731393E+00  0.20269587910E-01 0.  0.
         14    1    1    2    0    0 -0.18978532679E-01  0.14775523700E-01 -0.30959106751E-02  0.24250473525E-01  0.00000000000E+00 0. -1.
     999901    1    3    3    0    0 -0.10394870482E+00 -0.20894904184E-02  0.45970243854E-01  0.88731221254E+00  0.88000000000E+00 0. -1.
        -11    1    4    4    0    0  0.52678912276E-01 -0.15412399699E-01 -0.20431852005E-01  0.58569032435E-01  0.51100000000E-03 0. -1.
         11    1    4    4    0    0  0.70248325220E-01  0.27263664180E-02 -0.22442481174E-01  0.73798281500E-01  0.51100000000E-03 0.  1.
</event>
<event>
 8    1  0.1119901E+005  0.1043930E+01  0.7957747E-01            NaN
         13   -1    0    0    0    0  0.00000000000E+00  0.00000000000E+00  0.74505805969E-08  0.10566000000E+00  0.10566000000E+00 0.  1.
     999900   -1    0    0    0    0 -0.00000000000E+00 -0.00000000000E+00 -0.74505805969E-08  0.93827000000E+00  0.93827000000E+00 0. -1.
     999902    2    1    2    0    0 -0.17325628485E-01 -0.16634787290E-01 -0.43128787915E-02  0.10195272445E+01  0.10192351583E+01 0.  0.
     999903    2    3    3    0    0  0.97578289496E-01 -0.60975985877E-01  0.55628904262E-01  0.12893077609E+00  0.16999311724E-01 0.  0.
         14    1    1    2    0    0  0.17325628485E-01  0.16634787290E-01  0.43128787915E-02  0.24402755460E-01  0.00000000000E+00 0. -1.
     999901    1    3    3    0    0 -0.11490391798E+00  0.44341198587E-01 -0.59941783054E-01  0.89059646845E+00  0.88000000000E+00 0. -1.
        -11    1    4    4    0    0  0.37253497509E-01 -0.25222717980E-01  0.30863673926E-01  0.54560389187E-01  0.51100000000E-03 0. -1.
         11    1    4    4    0    0  0.60324791987E-01 -0.35753267896E-01  0.24765230336E-01  0.74370386903E-01  0.51100000000E-03 0.  1.
</event>
<event>
 8    1  0.1119901E+005  0.1043930E+01  0.7957747E-01            NaN
         13   -1    0    0    0    0  0.00000000000E+00  0.00000000000E+00  0.74505805969E-08  0.10566000000E+00  0.10566000000E+00 0.  1.
     999900   -1    0    0    0    0 -0.00000000000E+00 -0.00000000000E+00 -0.74505805969E-08  0.93827000000E+00  0.93827000000E+00 0.  1.
     999902    2    1    2    0    0  0.81234578905E-03  0.18717729896E-01  0.16704355826E-01  0.10188292267E+01  0.10185199774E+01 0.  0.
     999903    2    3    3    0    0  0.30432850211E-01  0.20581767700E-01 -0.12064653934E+00  0.12768046394E+00  0.19923500742E-01 0.  0.
         14    1    1    2    0    0 -0.81234578905E-03 -0.18717729896E-01 -0.16704355826E-01  0.25100773329E-01  0.00000000000E+00 0.  1.
     999901    1    3    3    0    0 -0.29620504422E-01 -0.18640378036E-02  0.13735089517E+00  0.89114876273E+00  0.88000000000E+00 0.  1.
        -11    1    4    4    0    0  0.17690949411E-01  0.15163211482E-01 -0.43994699953E-01  0.49786418012E-01  0.51100000000E-03 0.  1.
         11    1    4    4    0    0  0.12741900800E-01  0.54185562176E-02 -0.76651839391E-01  0.77894045925E-01  0.51100000000E-03 0. -1.
</event>
<event>
 8    1  0.1119901E+005  0.1043930E+01  0.7957747E-01            NaN
         13   -1    0    0    0    0  0.00000000000E+00  0.00000000000E+00  0.74505805969E-08  0.10566000000E+00  0.10566000000E+00 0.  1.
     999900   -1    0    0    0    0 -0.00000000000E+00 -0.00000000000E+00 -0.74505805969E-08  0.93827000000E+00  0.93827000000E+00 0. -1.
     999902    2    1    2    0    0 -0.82666375524E-03  0.17207438318E-01 -0.22192562077E-01  0.10158357102E+01  0.10154471434E+01 0.  0.
     999903    2    3    3    0    0  0.85707926031E-01 -0.67721391464E-01 -0.61049660919E-01  0.12667261186E+00  0.19668605739E-01 0.  0.
         14    1    1    2    0    0  0.82666375524E-03 -0.17207438318E-01  0.22192562077E-01  0.28094289775E-01  0.00000000000E+00 0.  1.
     999901    1    3    3    0    0 -0.86534589786E-01  0.84928829782E-01  0.38857098842E-01  0.88916309836E+00  0.88000000000E+00 0.  1.
        -11    1    4    4    0    0  0.31262562900E-01 -0.16874993092E-01 -0.12106241004E-01  0.37535788565E-01  0.51100000000E-03 0.  1.
         11    1    4    4    0    0  0.54445363131E-01 -0.50846398372E-01 -0.48943419915E-01  0.89136823299E-01  0.51100000000E-03 0. -1.
</event>
<event>
 8    1  0.1119901E+005  0.1043930E+01  0.7957747E-01            NaN
         13   -1    0    0    0    0  0.00000000000E+00  0.00000000000E+00  0.74505805969E-08  0.10566000000E+00  0.10566000000E+00 0. -1.
     999900   -1    0    0    0    0 -0.00000000000E+00 -0.00000000000E+00 -0.74505805969E-08  0.93827000000E+00  0.93827000000E+00 0. -1.
     999902    2    1    2    0    0 -0.18417484831E-01  0.16613281638E-01  0.11189203953E-01  0.10167196498E+01  0.10163554708E+01 0.  0.
     999903    2    3    3    0    0  0.28147390402E-01  0.98353046221E-01 -0.71956854002E-01  0.12780854979E+00  0.26299035621E-01 0.  0.
         14    1    1    2    0    0  0.18417484831E-01 -0.16613281638E-01 -0.11189203953E-01  0.27210350226E-01  0.00000000000E+00 0.  1.
     999901    1    3    3    0    0 -0.46564875233E-01 -0.81739764582E-01  0.83146057955E-01  0.88891109998E+00  0.88000000000E+00 0.  1.
        -11    1    4    4    0    0  0.17509608207E-02  0.53470393190E-01 -0.34414548104E-01  0.63614236252E-01  0.51100000000E-03 0.  1.
         11    1    4    4    0    0  0.26396429581E-01  0.44882653031E-01 -0.37542305898E-01  0.64194313540E-01  0.51100000000E-03 0. -1.
</event>
<event>
 8    1  0.1119901E+005  0.1043930E+01  0.7957747E-01            NaN
         13   -1    0    0    0    0  0.00000000000E+00  0.00000000000E+00  0.74505805969E-08  0.10566000000E+00  0.10566000000E+00 0. -1.
     999900   -1    0    0    0    0 -0.00000000000E+00 -0.00000000000E+00 -0.74505805969E-08  0.93827000000E+00  0.93827000000E+00 0.  1.
     999902    2    1    2    0    0 -0.26281919661E-02 -0.45444689583E-02 -0.26212724564E-01  0.10171967525E+01  0.10168453997E+01 0.  0.
     999903    2    3    3    0    0  0.12143526113E+00 -0.26230135699E-01  0.18467515828E-01  0.12710780618E+00  0.19514163774E-01 0.  0.
         14    1    1    2    0    0  0.26281919661E-02  0.45444689583E-02  0.26212724564E-01  0.26733247468E-01  0.00000000000E+00 0. -1.
     999901    1    3    3    0    0 -0.12406345309E+00  0.21685666741E-01 -0.44680240392E-01  0.89008894635E+00  0.88000000000E+00 0.  1.
        -11    1    4    4    0    0  0.85486126306E-01 -0.20924527298E-01  0.43459491071E-02  0.88118454526E-01  0.51100000000E-03 0. -1.
         11    1    4    4    0    0  0.35949134819E-01 -0.53056084013E-02  0.14121566721E-01  0.38989351654E-01  0.51100000000E-03 0.  1.
</event>
<event>
 8    1  0.1119901E+005  0.1043930E+01  0.7957747E-01            NaN
         13   -1    0    0    0    0  0.00000000000E+00  0.00000000000E+00  0.74505805969E-08  0.10566000000E+00  0.10566000000E+00 0. -1.
     999900   -1    0    0    0    0 -0.00000000000E+00 -0.00000000000E+00 -0.74505805969E-08  0.93827000000E+00  0.93827000000E+00 0. -1.
     999902    2    1    2    0    0  0.20746277527E-01 -0.56648896906E-02  0.21823617881E-01  0.10132906576E+01  0.10128273236E+01 0.  0.
     999903    2    3    3    0    0  0.18121338253E-01 -0.10026657508E+00  0.72790538132E-01  0.12675019255E+00  0.19631094992E-01 0.  0.
         14    1    1    2    0    0 -0.20746277527E-01  0.56648896906E-02 -0.21823617881E-01  0.30639342419E-01  0.00000000000E+00 0.  1.
     999901    1    3    3    0    0  0.26249392740E-02  0.94601685390E-01 -0.50966920250E-01  0.88654046504E+00  0.88000000000E+00 0.  1.
        -11    1    4    4    0    0  0.20928481364E-01 -0.97417705585E-01  0.70932595549E-01  0.12231069015E+00  0.51100000000E-03 0.  1.
         11    1    4    4    0    0 -0.28071431113E-02 -0.28488694953E-02  0.18579425823E-02  0.44395023919E-02  0.51100000000E-03 0. -1.
</event>
<event>
 8    1  0.1119901E+005  0.1043930E+01  0.7957747E-01            NaN
         13   -1    0    0    0    0  0.00000000000E+00  0.00000000000E+00  0.74505805969E-08  0.10566000000E+00  0.10566000000E+00 0.  1.
     999900   -1    0    0    0    0 -0.00000000000E+00 -0.00000000000E+00 -0.74505805969E-08  0.93827000000E+00  0.93827000000E+00 0.  1.
     999902    2    1    2    0    0  0.23014700225E-01 -0.10845291902E-04 -0.13004536832E-01  0.10174952781E+01  0.10171518306E+01 0.  0.
     999903    2    3    3    0    0  0.25487373755E-01 -0.10535902273E+00 -0.67701040991E-01  0.12952227165E+00  0.21034685869E-01 0.  0.
         14    1    1    2    0    0 -0.23014700225E-01  0.10845291902E-04  0.13004536832E-01  0.26434721907E-01  0.00000000000E+00 0. -1.
     999901    1    3    3    0    0 -0.24726735296E-02  0.10534817744E+00  0.54696504159E-01  0.88797300644E+00  0.88000000000E+00 0. -1.
        -11    1    4    4    0    0  0.26472896596E-01 -0.90712549375E-01 -0.51372081821E-01  0.10755897350E+00  0.51100000000E-03 0. -1.
         11    1    4    4    0    0 -0.98552284112E-03 -0.14646473360E-01 -0.16328959170E-01  0.21963298152E-01  0.51100000000E-03 0.  1.
</event>
<event>
 8    1  0.1119901E+005  0.1043930E+01  0.7957747E-01            NaN
         13   -1    0    0    0    0  0.00000000000E+00  0.00000000000E+00  0.74505805969E-08  0.10566000000E+00  0.10566000000E+00 0.  1.
     999900   -1    0    0    0    0 -0.00000000000E+00 -0.00000000000E+00 -0.74505805969E-08  0.93827000000E+00  0.93827000000E+00 0. -1.
     999902    2    1    2    0    0  0.10678647612E-01 -0.11455915994E-01 -0.15330412442E-01  0.10220144103E+01  0.10217794096E+01 0.  0.
     999903    2    3    3    0    0  0.13090553213E+00 -0.17915698088E-01 -0.26835435724E-02  0.13372606982E+00  0.20450666558E-01 0.  0.
         14    1    1    2    0    0 -0.10678647612E-01  0.11455915994E-01  0.15330412442E-01  0.21915589696E-01  0.00000000000E+00 0.  1.
     999901    1    3    3    0    0 -0.12022688452E+00  0.64597820941E-02 -0.12646868870E-01  0.88828834048E+00  0.88000000000E+00 0.  1.
        -11    1    4    4    0    0  0.52579933370E-01 -0.17169713365E-01  0.75538670589E-03  0.55319799171E-01  0.51100000000E-03 0. -1.
         11    1    4    4    0    0  0.78325598763E-01 -0.74598472218E-03 -0.34389302783E-02  0.78406270650E-01  0.51100000000E-03 0.  1.
</event>
<event>
 8    1  0.1119901E+005  0.1043930E+01  0.7957747E-01            NaN
         13   -1    0    0    0    0  0.00000000000E+00  0.00000000000E+00  0.74505805969E-08  0.10566000000E+00  0.10566000000E+00 0. -1.
     999900   -1    0    0    0    0 -0.00000000000E+00 -0.00000000000E+00 -0.74505805969E-08  0.93827000000E+00  0.93827000000E+00 0.  1.
     999902    2    1    2    0    0  0.21786552068E-01 -0.32915368240E-02 -0.54525820123E-02  0.10212315702E+01  0.10209792854E+01 0.  0.
     999903    2    3    3    0    0 -0.22629313325E-01 -0.14007326677E-01  0.12633413235E+00  0.13024597247E+00  0.17187475862E-01 0.  0.
         14    1    1    2    0    0 -0.21786552068E-01  0.32915368240E-02  0.54525820123E-02  0.22698429819E-01  0.00000000000E+00 0. -1.
     999901    1    3    3    0    0  0.44415865392E-01  0.10715789853E-01 -0.13178671436E+00  0.89098559771E+00  0.88000000000E+00 0.  1.
        -11    1    4    4    0    0 -0.22911503129E-01 -0.14665338503E-01  0.12646321744E+00  0.12935693107E+00  0.51100000000E-03 0. -1.
         11    1    4    4    0    0  0.28218980398E-03  0.65801182693E-03 -0.12908509436E-03  0.88904140030E-03  0.51100000000E-03 0.  1.
</event>
<event>
 8    1  0.1119901E+005  0.1043930E+01  0.7957747E-01            NaN
         13   -1    0    0    0    0  0.00000000000E+00  0.00000000000E+00  0.74505805969E-08  0.10566000000E+00  0.10566000000E+00 0. -1.
     999900   -1    0    0    0    0 -0.00000000000E+00 -0.00000000000E+00 -0.74505805969E-08  0.93827000000E+00  0.93827000000E+00 0. -1.
     999902    2    1    2    0    0 -0.20320619682E-01 -0.29156455307E-02  0.50916968561E-02  0.10227792565E+01  0.10225605379E+01 0.  0.
     999903    2    3    3    0    0 -0.59982452775E-01 -0.82598394795E-01  0.85424632193E-01  0.13464875820E+00  0.20310855131E-01 0.  0.
         14    1    1    2    0    0  0.20320619682E-01  0.29156455307E-02 -0.50916968561E-02  0.21150743485E-01  0.00000000000E+00 0. -1.
     999901    1    3    3    0    0  0.39661833093E-01  0.79682749265E-01 -0.80332935337E-01  0.88813049831E+00  0.88000000000E+00 0. -1.
        -11    1    4    4    0    0 -0.59253338273E-02 -0.10954609123E-01  0.20063110424E-01  0.23619961111E-01  0.51100000000E-03 0. -1.
         11    1    4    4    0    0 -0.54057118947E-01 -0.71643785672E-01  0.65361521770E-01  0.11102879709E+00  0.51100000000E-03 0.  1.
</event>
<event>
 8    1  0.1119901E+005  0.1043930E+01  0.7957747E-01            NaN
         13   -1    0    0    0    0  0.00000000000E+00  0.00000000000E+00  0.74505805969E-08  0.10566000000E+00  0.10566000000E+00 0. -1.
     999900   -1    0    0    0    0 -0.00000000000E+00 -0.00000000000E+00 -0.74505805969E-08  0.93827000000E+00  0.93827000000E+00 0.  1.
     999902    2    1    2    0    0 -0.76377147436E-02  0.30332184266E-03  0.23186679775E-01  0.10195158891E+01  0.10192235277E+01 0.  0.
     999903    2    3    3    0    0 -0.87261096711E-01  0.91303264369E-01  0.29505310076E-01  0.13122494716E+00  0.19965929748E-01 0.  0.
         14    1    1    2    0    0  0.76377147436E-02 -0.30332184266E-03 -0.23186679775E-01  0.24414110871E-01  0.00000000000E+00 0.  1.
     999901    1    3    3    0    0  0.79623381967E-01 -0.90999942526E-01 -0.63186303011E-02  0.88829094197E+00  0.88000000000E+00 0.  1.
        -11    1    4    4    0    0 -0.81936534719E-01  0.77387367286E-01  0.28657324399E-01  0.11629232004E+00  0.51100000000E-03 0.  1.
         11    1    4    4    0    0 -0.53245619920E-02  0.13915897083E-01  0.84798567728E-03  0.14932627121E-01  0.51100000000E-03 0. -1.
</event>
<event>
 8    1  0.1119901E+005  0.1043930E+01  0.7957747E-01            NaN
         13   -1    0    0    0    0  0.00000000000E+00  0.00000000000E+00  0.74505805969E-08  0.10566000000E+00  0.10566000000E+00 0. -1.
     999900   -1    0    0    0    0 -0.00000000000E+00 -0.00000000000E+00 -0.74505805969E-08  0.93827000000E+00  0.93827000000E+00 0.  1.
     999902    2    1    2    0    0  0.38222702514E-02 -0.15537245005E-01 -0.16768500890E-01  0.10207524601E+01  0.10204892878E+01 0.  0.
     999903    2    3    3    0    0 -0.12075198599E+00  0.40982964090E-01  0.11428509869E-01  0.12973711191E+00  0.20987184265E-01 0.  0.
         14    1    1    2    0    0 -0.38222702514E-02  0.15537245005E-01  0.16768500890E-01  0.23177539867E-01  0.00000000000E+00 0. -1.
     999901    1    3    3    0    0  0.12457425624E+00 -0.56520209095E-01 -0.28197010759E-01  0.89101534822E+00  0.88000000000E+00 0. -1.
        -11    1    4    4    0    0 -0.10424010402E+00  0.39564315944E-01  0.40008016783E-02  0.11156882144E+00  0.51100000000E-03 0. -1.
         11    1    4    4    0    0 -0.16511881963E-01  0.14186481464E-02  0.74277081907E-02  0.18168290467E-01  0.51100000000E-03 0.  1.
</event>
<event>
 8    1  0.1119901E+005  0.1043930E+01  0.7957747E-01            NaN
         13   -1    0    0    0    0  0.00000000000E+00  0.00000000000E+00  0.74505805969E-08  0.10566000000E+00  0.10566000000E+00 0.  1.
     999900   -1    0    0    0    0 -0.00000000000E+00 -0.00000000000E+00 -0.74505805969E-08  0.93827000000E+00  0.93827000000E+00 0.  1.
     999902    2    1    2    0    0 -0.10826179987E-01  0.15364550210E-01 -0.13485145366E-01  0.10207972370E+01  0.10205350922E+01 0.  0.
     999903    2    3    3    0    0 -0.47241296001E-01 -0.47086689945E-01  0.10898295258E+00  0.12938002099E+00  0.20322634156E-01 0.  0.
         14    1    1    2    0    0  0.10826179987E-01 -0.15364550210E-01  0.13485145366E-01  0.23132762953E-01  0.00000000000E+00 0. -1.
     999901    1    3    3    0    0  0.36415116014E-01  0.62451240155E-01 -0.12246809795E+00  0.89141721606E+00  0.88000000000E+00 0.  1.
        -11    1    4    4    0    0  0.14713050879E-02 -0.49651474431E-02  0.10343813502E-01  0.11578990740E-01  0.51100000000E-03 0.  1.
         11    1    4    4    0    0 -0.48712601089E-01 -0.42121542502E-01  0.98639139083E-01  0.11780103025E+00  0.51100000000E-03 0. -1.
</event>
<event>
 8    1  0.1119901E+005  0.1043930E+01  0.7957747E-01            NaN
         13   -1    0    0    0    0  0.00000000000E+00  0.00000000000E+00  0.74505805969E-08  0.10566000000E+00  0.10566000000E+00 0.  1.
     999900   -1    0    0    0    0 -0.00000000000E+00 -0.00000000000E+00 -0.74505805969E-08  0.93827000000E+00  0.93827000000E+00 0.  1.
     999902    2    1    2    0    0  0.13927739662E-01  0.15773628115E-01 -0.92092118696E-02  0.10209604798E+01  0.10207020635E+01 0.  0.
     999903    2    3    3    0    0  0.75333680182E-01 -0.97533274007E-01 -0.39630613487E-01  0.13105340301E+00  0.20408478811E-01 0.  0.
         14    1    1    2    0    0 -0.13927739662E-01 -0.15773628115E-01  0.92092118696E-02  0.22969520223E-01  0.00000000000E+00 0.  1.
     999901    1    3    3    0    0 -0.61405940521E-01  0.11330690212E+00  0.30421401617E-01  0.88990707676E+00  0.88000000000E+00 0.  1.
        -11    1    4    4    0    0  0.51272844972E-01 -0.67146351800E-01 -0.36907176798E-01  0.92195108394E-01  0.51100000000E-03 0. -1.
         11    1    4    4    0    0  0.24060835210E-01 -0.30386922208E-01 -0.27234366889E-02  0.38858294619E-01  0.51100000000E-03 0.  1.
</event>
<event>
 8    1  0.1119901E+005  0.1043930E+01  0.7957747E-01            NaN
         13   -1    0    0    0    0  0.00000000000E+00  0.00000000000E+00  0.74505805969E-08  0.10566000000E+00  0.10566000000E+00 0. -1.
     999900   -1    0    0    0    0 -0.00000000000E+00 -0.00000000000E+00 -0.74505805969E-08  0.93827000000E+00  0.93827000000E+00 0. -1.
     999902    2    1    2    0    0 -0.10292310835E-01  0.16555783952E-01 -0.13711973825E-01  0.10200963291E+01  0.10198178645E+01 0.  0.
     999903    2    3    3    0    0  0.59629902413E-01  0.15253602132E-01 -0.11471838752E+00  0.13156208256E+00  0.18970384597E-01 0.  0.
         14    1    1    2    0    0  0.10292310835E-01 -0.16555783952E-01  0.13711973825E-01  0.23833670946E-01  0.00000000000E+00 0. -1.
     999901    1    3    3    0    0 -0.69922213248E-01  0.13021818199E-02  0.10100641370E+00  0.88853424649E+00  0.88000000000E+00 0.  1.
        -11    1    4    4    0    0  0.20724749009E-01 -0.37800955216E-02 -0.36032986994E-01  0.41742563605E-01  0.51100000000E-03 0.  1.
         11    1    4    4    0    0  0.38905153405E-01  0.19033697654E-01 -0.78685400530E-01  0.89819518955E-01  0.51100000000E-03 0. -1.
</event>
<event>
 8    1  0.1334775E+005  0.1043930E+01  0.7957747E-01            NaN
         13   -1    0    0    0    0  0.00000000000E+00  0.00000000000E+00  0.74505805969E-08  0.10566000000E+00  0.10566000000E+00 0.  1.
     999900   -1    0    0    0    0 -0.00000000000E+00 -0.00000000000E+00 -0.74505805969E-08  0.93827000000E+00  0.93827000000E+00 0. -1.
     999902    2    1    2    0    0  0.13765169073E-02  0.20489341208E-01 -0.12192392520E-01  0.10200477401E+01  0.10197681255E+01 0.  0.
     999903    2    3    3    0    0 -0.85593889260E-01  0.88804375483E-01 -0.44043645403E-01  0.13255391041E+00  0.20449094850E-01 0.  0.
         14    1    1    2    0    0 -0.13765169073E-02 -0.20489341208E-01  0.12192392520E-01  0.23882259887E-01  0.00000000000E+00 0.  1.
     999901    1    3    3    0    0  0.86970406167E-01 -0.68315034275E-01  0.31851252882E-01  0.88749382971E+00  0.88000000000E+00 0.  1.
        -11    1    4    4    0    0 -0.54390076327E-01  0.69625046623E-01 -0.32650897088E-01  0.94192726480E-01  0.51100000000E-03 0. -1.
         11    1    4    4    0    0 -0.31203812933E-01  0.19179328860E-01 -0.11392748314E-01  0.38361183926E-01  0.51100000000E-03 0.  1.
</event>
<event>
 8    1  0.1119901E+005  0.1043930E+01  0.7957747E-01            NaN
         13   -1    0    0    0    0  0.00000000000E+00  0.00000000000E+00  0.74505805969E-08  0.10566000000E+00  0.10566000000E+00 0.  1.
     999900   -1    0    0    0    0 -0.00000000000E+00 -0.00000000000E+00 -0.74505805969E-08  0.93827000000E+00  0.93827000000E+00 0. -1.
     999902    2    1    2    0    0 -0.21731725361E-01 -0.32719617687E-02  0.97753806211E-02  0.10198773143E+01  0.10195936468E+01 0.  0.
     999903    2    3    3    0    0 -0.12952567254E+00 -0.17381018607E-01 -0.99148192145E-02  0.13296903019E+00  0.22437907526E-01 0.  0.
         14    1    1    2    0    0  0.21731725361E-01  0.32719617687E-02 -0.97753806211E-02  0.24052685656E-01  0.00000000000E+00 0.  1.
     999901    1    3    3    0    0  0.10779394718E+00  0.14109056838E-01  0.19690199836E-01  0.88690828416E+00  0.88000000000E+00 0.  1.
        -11    1    4    4    0    0 -0.69759221036E-01 -0.57969294079E-02  0.53435874645E-02  0.70205187545E-01  0.51100000000E-03 0.  1.
         11    1    4    4    0    0 -0.59766451505E-01 -0.11584089199E-01 -0.15258406679E-01  0.62763842644E-01  0.51100000000E-03 0. -1.
</event>
<event>
 8    1  0.1119901E+005  0.1043930E+01  0.7957747E-01            NaN
         13   -1    0    0    0    0  0.00000000000E+00  0.00000000000E+00  0.74505805969E-08  0.10566000000E+00  0.10566000000E+00 0. -1.
     999900   -1    0    0    0    0 -0.00000000000E+00 -0.00000000000E+00 -0.74505805969E-08  0.93827000000E+00  0.93827000000E+00 0.  1.
     999902    2    1    2    0    0  0.22279123721E-01 -0.46991501155E-02  0.68906476074E-02  0.10201408766E+01  0.10198634643E+01 0.  0.
     999903    2    3    3    0    0  0.28736268348E-01  0.10693531874E+00 -0.65391420723E-01  0.13012478311E+00  0.19886823821E-01 0.  0.
         14    1    1    2    0    0 -0.22279123721E-01  0.46991501155E-02 -0.68906476074E-02  0.23789123356E-01  0.00000000000E+00 0. -1.
     999901    1    3    3    0    0 -0.64571446272E-02 -0.11163446886E+00  0.72282068331E-01  0.89001609354E+00  0.88000000000E+00 0. -1.
        -11    1    4    4    0    0  0.29273563265E-01  0.84210536352E-01 -0.46438025428E-01  0.10052416260E+00  0.51100000000E-03 0.  1.
         11    1    4    4    0    0 -0.53729491622E-03  0.22724782389E-01 -0.18953395295E-01  0.29600620511E-01  0.51100000000E-03 0. -1.
</event>
<event>
 8    1  0.1119901E+005  0.1043930E+01  0.7957747E-01            NaN
         13   -1    0    0    0    0  0.00000000000E+00  0.00000000000E+00  0.74505805969E-08  0.10566000000E+00  0.10566000000E+00 0.  1.
     999900   -1    0    0    0    0 -0.00000000000E+00 -0.00000000000E+00 -0.74505805969E-08  0.93827000000E+00  0.93827000000E+00 0.  1.
     999902    2    1    2    0    0 -0.47605175184E-02  0.12203304338E-01  0.19932748690E-01  0.10200784249E+01  0.10197995368E+01 0.  0.
     999903    2    3    3    0    0  0.55854700455E-01 -0.48724410300E-01  0.10694688528E+00  0.13162029364E+00  0.19810343356E-01 0.  0.
         14    1    1    2    0    0  0.47605175184E-02 -0.12203304338E-01 -0.19932748690E-01  0.23851575087E-01  0.00000000000E+00 0. -1.
     999901    1    3    3    0    0 -0.60615217973E-01  0.60927714638E-01 -0.87014136592E-01  0.88845813127E+00  0.88000000000E+00 0.  1.
        -11    1    4    4    0    0  0.22994277339E-01 -0.10447228350E-01  0.46204225132E-01  0.52659024978E-01  0.51100000000E-03 0.  1.
         11    1    4    4    0    0  0.32860423116E-01 -0.38277181950E-01  0.60742660150E-01  0.78961268661E-01  0.51100000000E-03 0. -1.
</event>
<event>
 8    1  0.1119901E+005  0.1043930E+01  0.7957747E-01            NaN
         13   -1    0    0    0    0  0.00000000000E+00  0.00000000000E+00  0.74505805969E-08  0.10566000000E+00  0.10566000000E+00 0.  1.
     999900   -1    0    0    0    0 -0.00000000000E+00 -0.00000000000E+00 -0.74505805969E-08  0.93827000000E+00  0.93827000000E+00 0. -1.
     999902    2    1    2    0    0  0.15884724859E-01 -0.39590999175E-03  0.17536032431E-01  0.10202658148E+01  0.10199913427E+01 0.  0.
     999903    2    3    3    0    0 -0.12202012013E+00  0.35091747534E-01 -0.43815866621E-02  0.12854977134E+00  0.19634279941E-01 0.  0.
         14    1    1    2    0    0 -0.15884724859E-01  0.39590999175E-03 -0.17536032431E-01  0.23664185217E-01  0.00000000000E+00 0. -1.
     999901    1    3    3    0    0  0.13790484499E+00 -0.35487657526E-01  0.21917619093E-01  0.89171604344E+00  0.88000000000E+00 0.  1.
        -11    1    4    4    0    0 -0.56150797321E-01  0.26255814580E-01 -0.33957749865E-02  0.62081174665E-01  0.51100000000E-03 0.  1.
         11    1    4    4    0    0 -0.65869322807E-01  0.88359329533E-02 -0.98581167555E-03  0.66468596674E-01  0.51100000000E-03 0. -1.
</event>
<event>
 8    1  0.1119901E+005  0.1043930E+01  0.7957747E-01            NaN
         13   -1    0    0    0    0  0.00000000000E+00  0.00000000000E+00  0.74505805969E-08  0.10566000000E+00  0.10566000000E+00 0.  1.
     999900   -1    0    0    0    0 -0.00000000000E+00 -0.00000000000E+00 -0.74505805969E-08  0.93827000000E+00  0.93827000000E+00 0.  1.
     999902    2    1    2    0    0  0.21663162600E-01  0.44436256429E-02 -0.92700084754E-02  0.10199514371E+01  0.10196695359E+01 0.  0.
     999903    2    3    3    0    0  0.25591984121E-01  0.75049573913E-01  0.10109657997E+00  0.13024282218E+00  0.21337433131E-01 0.  0.
         14    1    1    2    0    0 -0.21663162600E-01 -0.44436256429E-02  0.92700084754E-02  0.23978562922E-01  0.00000000000E+00 0.  1.
     999901    1    3    3    0    0 -0.39288215205E-02 -0.70605948270E-01 -0.11036658845E+00  0.88970861489E+00  0.88000000000E+00 0.  1.
        -11    1    4    4    0    0  0.30279487977E-02  0.41753267834E-01  0.53094985635E-01  0.67615401125E-01  0.51100000000E-03 0. -1.
         11    1    4    4    0    0  0.22564035323E-01  0.33296306078E-01  0.48001594338E-01  0.62627421059E-01  0.51100000000E-03 0.  1.
</event>
<event>
 8    1  0.1119901E+005  0.1043930E+01  0.7957747E-01            NaN
         13   -1    0    0    0    0  0.00000000000E+00  0.00000000000E+00  0.74505805969E-08  0.10566000000E+00  0.10566000000E+00 0. -1.
     999900   -1    0    0    0    0 -0.00000000000E+00 -0.00000000000E+00 -0.74505805969E-08  0.93827000000E+00  0.93827000000E+00 0. -1.
     999902    2    1    2    0    0  0.59483435646E-02  0.17876328872E-01 -0.11108079764E-01  0.10220591207E+01  0.10218250882E+01 0.  0.
     999903    2    3    3    0    0  0.58554477393E-01  0.87511614799E-01 -0.80267730752E-01  0.13504190797E+00  0.26580044409E-01 0.  0.
         14    1    1    2    0    0 -0.59483435646E-02 -0.17876328872E-01  0.11108079764E-01  0.21870879295E-01  0.00000000000E+00 0.  1.
     999901    1    3    3    0    0 -0.52606133828E-01 -0.69635285927E-01  0.69159650988E-01  0.88701721273E+00  0.88000000000E+00 0.  1.
        -11    1    4    4    0    0  0.35220569072E-01  0.69594321350E-01 -0.66743757192E-01  0.10265889292E+00  0.51100000000E-03 0.  1.
         11    1    4    4    0    0  0.23333908322E-01  0.17917293449E-01 -0.13523973560E-01  0.32383015053E-01  0.51100000000E-03 0. -1.
</event>
<event>
 8    1  0.1119901E+005  0.1043930E+01  0.7957747E-01            NaN
         13   -1    0    0    0    0  0.00000000000E+00  0.00000000000E+00  0.74505805969E-08  0.10566000000E+00  0.10566000000E+00 0.  1.
     999900   -1    0    0    0    0 -0.00000000000E+00 -0.00000000000E+00 -0.74505805969E-08  0.93827000000E+00  0.93827000000E+00 0. -1.
     999902    2    1    2    0    0 -0.17637848646E-01 -0.98061642599E-02 -0.10456827690E-01  0.10212011679E+01  0.10209481993E+01 0.  0.
     999903    2    3    3    0    0  0.55127592335E-01 -0.11750466322E+00  0.18038057330E-02  0.13156972782E+00  0.21469565642E-01 0.  0.
         14    1    1    2    0    0  0.17637848646E-01  0.98061642599E-02  0.10456827690E-01  0.22728832080E-01  0.00000000000E+00 0.  1.
     999901    1    3    3    0    0 -0.72765440982E-01  0.10769849896E+00 -0.12260633423E-01  0.88963144010E+00  0.88000000000E+00 0. -1.
        -11    1    4    4    0    0  0.79536056870E-03 -0.16760556332E-01  0.32467825054E-02  0.17098291278E-01  0.51100000000E-03 0.  1.
         11    1    4    4    0    0  0.54332231767E-01 -0.10074410689E+00 -0.14429767724E-02  0.11447143654E+00  0.51100000000E-03 0. -1.
</event>
<event>
 8    1  0.1119901E+005  0.1043930E+01  0.7957747E-01            NaN
         13   -1    0    0    0    0  0.00000000000E+00  0.00000000000E+00  0.74505805969E-08  0.10566000000E+00  0.10566000000E+00 0.  1.
     999900   -1    0    0    0    0 -0.00000000000E+00 -0.00000000000E+00 -0.74505805969E-08  0.93827000000E+00  0.93827000000E+00 0.  1.
     999902    2    1    2    0    0  0.25024760737E-01  0.31686994019E-03  0.98060267049E-02  0.10170506917E+01  0.10166954373E+01 0.  0.
     999903    2    3    3    0    0  0.38233580338E-01 -0.10978893029E+00  0.51178828139E-01  0.12912644442E+00  0.23215303545E-01 0.  0.
         14    1    1    2    0    0 -0.25024760737E-01 -0.31686994019E-03 -0.98060267049E-02  0.26879308329E-01  0.00000000000E+00 0. -1.
     999901    1    3    3    0    0 -0.13208819602E-01  0.11010580023E+00 -0.41372801434E-01  0.88792424725E+00  0.88000000000E+00 0. -1.
        -11    1    4    4    0    0  0.18274541201E-01 -0.74255821530E-01  0.42373400933E-01  0.87427982447E-01  0.51100000000E-03 0.  1.
         11    1    4    4    0    0  0.19959039137E-01 -0.35533108762E-01  0.88054272053E-02  0.41698461972E-01  0.51100000000E-03 0. -1.
</event>
<event>
 8    1  0.1119901E+005  0.1043930E+01  0.7957747E-01            NaN
         13   -1    0    0    0    0  0.00000000000E+00  0.00000000000E+00  0.74505805969E-08  0.10566000000E+00  0.10566000000E+00 0.  1.
     999900   -1    0    0    0    0 -0.00000000000E+00 -0.00000000000E+00 -0.74505805969E-08  0.93827000000E+00  0.93827000000E+00 0.  1.
     999902    2    1    2    0    0  0.95692710699E-02  0.54452276621E-02 -0.20842175414E-01  0.10203584551E+01  0.10200861528E+01 0.  0.
     999903    2    3    3    0    0  0.23297812588E-01  0.12313174287E+00 -0.36953646094E-01  0.13227165292E+00  0.20639865165E-01 0.  0.
         14    1    1    2    0    0 -0.95692710699E-02 -0.54452276621E-02  0.20842175414E-01  0.23571544903E-01  0.00000000000E+00 0.  1.
     999901    1    3    3    0    0 -0.13728541518E-01 -0.11768651520E+00  0.16111470680E-01  0.88808680218E+00  0.88000000000E+00 0.  1.
        -11    1    4    4    0    0 -0.26816975031E-02  0.10031618264E-01 -0.66227691256E-02  0.12326680753E-01  0.51100000000E-03 0. -1.
         11    1    4    4    0    0  0.25979510091E-01  0.11310012460E+00 -0.30330876968E-01  0.11994497217E+00  0.51100000000E-03 0.  1.
</event>
<event>
 8    1  0.1119901E+005  0.1043930E+01  0.7957747E-01            NaN
         13   -1    0    0    0    0  0.00000000000E+00  0.00000000000E+00  0.74505805969E-08  0.10566000000E+00  0.10566000000E+00 0. -1.
     999900   -1    0    0    0    0 -0.00000000000E+00 -0.00000000000E+00 -0.74505805969E-08  0.93827000000E+00  0.93827000000E+00 0. -1.
     999902    2    1    2    0    0 -0.20959251213E-01 -0.10288068589E-01  0.40128051671E-02  0.10202395553E+01  0.10199644665E+01 0.  0.
     999903    2    3    3    0    0 -0.74318646313E-01 -0.64696121301E-01  0.87240832170E-01  0.13303362329E+00  0.19445637718E-01 0.  0.
         14    1    1    2    0    0  0.20959251213E-01  0.10288068589E-01 -0.40128051671E-02  0.23690444741E-01  0.00000000000E+00 0.  1.
     999901    1    3    3    0    0  0.53359395100E-01  0.54408052712E-01 -0.83228027003E-01  0.88720593197E+00  0.88000000000E+00 0. -1.
        -11    1    4    4    0    0 -0.40118852733E-01 -0.24220461635E-01  0.33875008963E-01  0.57826727900E-01  0.51100000000E-03 0. -1.
         11    1    4    4    0    0 -0.34199793580E-01 -0.40475659667E-01  0.53365823207E-01  0.75206895388E-01  0.51100000000E-03 0.  1.
</event>
<event>
 8    1  0.1119901E+005  0.1043930E+01  0.7957747E-01            NaN
         13   -1    0    0    0    0  0.00000000000E+00  0.00000000000E+00  0.74505805969E-08  0.10566000000E+00  0.10566000000E+00 0.  1.
     999900   -1    0    0    0    0 -0.00000000000E+00 -0.00000000000E+00 -0.74505805969E-08  0.93827000000E+00  0.93827000000E+00 0. -1.
     999902    2    1    2    0    0 -0.19570603133E-01 -0.78795443005E-02  0.10024607343E-01  0.10205721645E+01  0.10203048341E+01 0.  0.
     999903    2    3    3    0    0  0.12920551213E-01 -0.49423814457E-01 -0.11766456085E+00  0.12979378291E+00  0.19794522563E-01 0.  0.
         14    1    1    2    0    0  0.19570603133E-01  0.78795443005E-02 -0.10024607343E-01  0.23357835469E-01  0.00000000000E+00 0. -1.
     999901    1    3    3    0    0 -0.32491154346E-01  0.41544270157E-01  0.12768916819E+00  0.89077838162E+00  0.88000000000E+00 0.  1.
        -11    1    4    4    0    0 -0.48242079647E-02 -0.53085047490E-02 -0.17226898683E-01  0.18667628783E-01  0.51100000000E-03 0. -1.
         11    1    4    4    0    0  0.17744759178E-01 -0.44115309708E-01 -0.10043766216E+00  0.11112615413E+00  0.51100000000E-03 0.  1.
</event>
<event>
 8    1  0.1119901E+005  0.1043930E+01  0.7957747E-01            NaN
         13   -1    0    0    0    0  0.00000000000E+00  0.00000000000E+00  0.74505805969E-08  0.10566000000E+00  0.10566000000E+00 0.  1.
     999900   -1    0    0    0    0 -0.00000000000E+00 -0.00000000000E+00 -0.74505805969E-08  0.93827000000E+00  0.93827000000E+00 0. -1.
     999902    2    1    2    0    0 -0.20573152802E-02 -0.21833533905E-01 -0.95528028865E-02  0.10200094692E+01  0.10197289471E+01 0.  0.
     999903    2    3    3    0    0 -0.21151970973E-01 -0.33180800156E-01 -0.12463812251E+00  0.13223810390E+00  0.20096844636E-01 0.  0.
         14    1    1    2    0    0  0.20573152802E-02  0.21833533905E-01  0.95528028865E-02  0.23920530762E-01  0.00000000000E+00 0.  1.
     999901    1    3    3    0    0  0.19094655692E-01  0.11347266252E-01  0.11508531962E+00  0.88777136534E+00  0.88000000000E+00 0.  1.
        -11    1    4    4    0    0 -0.25591649866E-02 -0.17465013666E-01 -0.73599025650E-01  0.75687870399E-01  0.51100000000E-03 0.  1.
         11    1    4    4    0    0 -0.18592805986E-01 -0.15715786490E-01 -0.51039096860E-01  0.56550233498E-01  0.51100000000E-03 0. -1.
</event>
<event>
 8    1  0.1119901E+005  0.1043930E+01  0.7957747E-01            NaN
         13   -1    0    0    0    0  0.00000000000E+00  0.00000000000E+00  0.74505805969E-08  0.10566000000E+00  0.10566000000E+00 0.  1.
     999900   -1    0    0    0    0 -0.00000000000E+00 -0.00000000000E+00 -0.74505805969E-08  0.93827000000E+00  0.93827000000E+00 0. -1.
     999902    2    1    2    0    0  0.16143997812E-01  0.14225158954E-01 -0.10229884685E-01  0.10201049218E+01  0.10198266603E+01 0.  0.
     999903    2    3    3    0    0  0.73595274194E-01  0.10777628626E+00  0.14517051030E-01  0.13293815423E+00  0.20731999789E-01 0.  0.
         14    1    1    2    0    0 -0.16143997812E-01 -0.14225158954E-01  0.10229884685E-01  0.23825078243E-01  0.00000000000E+00 0.  1.
     999901    1    3    3    0    0 -0.57451276382E-01 -0.93551127308E-01 -0.24746935716E-01  0.88716676753E+00  0.88000000000E+00 0.  1.
        -11    1    4    4    0    0  0.12942745150E-01  0.82070546207E-02 -0.75762815666E-03  0.15352703963E-01  0.51100000000E-03 0.  1.
         11    1    4    4    0    0  0.60652529044E-01  0.99569231641E-01  0.15274679187E-01  0.11758545027E+00  0.51100000000E-03 0. -1.
</event>
<event>
 8    1  0.1119901E+005  0.1043930E+01  0.7957747E-01            NaN
         13   -1    0    0    0    0  0.00000000000E+00  0.00000000000E+00  0.74505805969E-08  0.10566000000E+00  0.10566000000E+00 0. -1.
     999900   -1    0    0    0    0 -0.00000000000E+00 -0.00000000000E+00 -0.74505805969E-08  0.93827000000E+00  0.93827000000E+00 0. -1.
     999902    2    1    2    0    0  0.23977750126E-02  0.92206427609E-02 -0.20436817188E-01  0.10213815394E+01  0.10211326143E+01 0.  0.
     999903    2    3    3    0    0  0.10045338792E+00  0.80133257174E-01  0.23049002855E-01  0.13203654525E+00  0.19752739013E-01 0.  0.
         14    1    1    2    0    0 -0.23977750126E-02 -0.92206427609E-02  0.20436817188E-01  0.22548460584E-01  0.00000000000E+00 0. -1.
     999901    1    3    3    0    0 -0.98055612908E-01 -0.70912614413E-01 -0.43485820043E-01  0.88934499417E+00  0.88000000000E+00 0. -1.
        -11    1    4    4    0    0  0.82673186158E-01  0.56247692155E-01  0.14409062382E-01  0.10102742589E+00  0.51100000000E-03 0.  1.
         11    1    4    4    0    0  0.17780201762E-01  0.23885565019E-01  0.86399404736E-02  0.31009119358E-01  0.51100000000E-03 0. -1.
</event>
<event>
 8    1  0.1119901E+005  0.1043930E+01  0.7957747E-01            NaN
         13   -1    0    0    0    0  0.00000000000E+00  0.00000000000E+00  0.74505805969E-08  0.10566000000E+00  0.10566000000E+00 0. -1.
     999900   -1    0    0    0    0 -0.00000000000E+00 -0.00000000000E+00 -0.74505805969E-08  0.93827000000E+00  0.93827000000E+00 0. -1.
     999902    2    1    2    0    0  0.23429041334E-02 -0.23433563987E-01  0.39722423402E-02  0.10200469552E+01  0.10197673220E+01 0.  0.
     999903    2    3    3    0    0 -0.32347550957E-01 -0.11465237005E+00 -0.55182146757E-01  0.13267806908E+00  0.19153868633E-01 0.  0.
         14    1    1    2    0    0 -0.23429041334E-02  0.23433563987E-01 -0.39722423402E-02  0.23883044825E-01  0.00000000000E+00 0.  1.
     999901    1    3    3    0    0  0.34690455090E-01  0.91218806065E-01  0.59154389097E-01  0.88736888609E+00  0.88000000000E+00 0. -1.
        -11    1    4    4    0    0 -0.54373246614E-02 -0.41090933711E-01 -0.26813164639E-01  0.49368372990E-01  0.51100000000E-03 0. -1.
         11    1    4    4    0    0 -0.26910226296E-01 -0.73561436341E-01 -0.28368982118E-01  0.83309696094E-01  0.51100000000E-03 0.  1.
</event>
<event>
 7    1  0.1119901E+005  0.1043930E+01  0.7957747E-01            NaN
         13   -1    0    0    0    0  0.00000000000E+00  0.00000000000E+00  0.74505805969E-08  0.10566000000E+00  0.10566000000E+00 0. -1.
     999900   -1    0    0    0    0 -0.00000000000E+00 -0.00000000000E+00 -0.74505805969E-08  0.93827000000E+00  0.93827000000E+00 0. -1.
     999903    2    1    2    0    0  0.57974374263E-01 -0.74786009799E-01  0.66721859058E-01  0.11768061406E+00  0.21046261320E-01 0.  0.
         14    1    1    2    0    0 -0.31884847132E-01  0.64821505066E-02 -0.27072960562E-01  0.42327378202E-01  0.00000000000E+00 0.  1.
     999901    1    1    2    0    0 -0.26089527132E-01  0.68303859292E-01 -0.39648898496E-01  0.88392200774E+00  0.88000000000E+00 0. -1.
        -11    1    3    3    0    0  0.43649952686E-01 -0.55425833937E-01  0.37797485917E-01  0.80039068584E-01  0.51100000000E-03 0. -1.
         11    1    3    3    0    0  0.14324421578E-01 -0.19360175862E-01  0.28924373141E-01  0.37641545472E-01  0.51100000000E-03 0.  1.
</event>
<event>
 8    1  0.1119901E+005  0.1043930E+01  0.7957747E-01            NaN
         13   -1    0    0    0    0  0.00000000000E+00  0.00000000000E+00  0.74505805969E-08  0.10566000000E+00  0.10566000000E+00 0. -1.
     999900   -1    0    0    0    0 -0.00000000000E+00 -0.00000000000E+00 -0.74505805969E-08  0.93827000000E+00  0.93827000000E+00 0. -1.
     999902    2    1    2    0    0 -0.21262026536E-01 -0.27272872490E-02 -0.90168112462E-02  0.10206745758E+01  0.10204096114E+01 0.  0.
     999903    2    3    3    0    0  0.61248022307E-01 -0.76401970591E-01  0.81623554774E-01  0.12913010522E+00  0.20581497363E-01 0.  0.
         14    1    1    2    0    0  0.21262026536E-01  0.27272872490E-02  0.90168112462E-02  0.23255424167E-01  0.00000000000E+00 0.  1.
     999901    1    3    3    0    0 -0.82510048843E-01  0.73674683342E-01 -0.90640366021E-01  0.89154447061E+00  0.88000000000E+00 0. -1.
        -11    1    4    4    0    0  0.34481506407E-01 -0.40548255341E-01  0.31134468018E-01  0.61666453725E-01  0.51100000000E-03 0.  1.
         11    1    4    4    0    0  0.26766515900E-01 -0.35853715250E-01  0.50489086756E-01  0.67463651496E-01  0.51100000000E-03 0. -1.
</event>
<event>
 8    1  0.1119901E+005  0.1043930E+01  0.7957747E-01            NaN
         13   -1    0    0    0    0  0.00000000000E+00  0.00000000000E+00  0.74505805969E-08  0.10566000000E+00  0.10566000000E+00 0.  1.
     999900   -1    0    0    0    0 -0.00000000000E+00 -0.00000000000E+00 -0.74505805969E-08  0.93827000000E+00  0.93827000000E+00 0.  1.
     999902    2    1    2    0    0 -0.15286616652E-01  0.61982946716E-02  0.16412673428E-01  0.10206603770E+01  0.10203950852E+01 0.  0.
     999903    2    3    3    0    0 -0.10336587553E+00  0.63280736060E-01 -0.48536458695E-01  0.13204642779E+00  0.19786750390E-01 0.  0.
         14    1    1    2    0    0  0.15286616652E-01 -0.61982946716E-02 -0.16412673428E-01  0.23269623000E-01  0.00000000000E+00 0. -1.
     999901    1    3    3    0    0  0.88079258874E-01 -0.57082441388E-01  0.64949132123E-01  0.88861394921E+00  0.88000000000E+00 0.  1.
        -11    1    4    4    0    0 -0.44796737871E-01  0.17453857436E-01 -0.23983151610E-01  0.53729298762E-01  0.51100000000E-03 0.  1.
         11    1    4    4    0    0 -0.58569137656E-01  0.45826878624E-01 -0.24553307085E-01  0.78317129033E-01  0.51100000000E-03 0. -1.
</event>
<event>
 8    1  0.1119901E+005  0.1043930E+01  0.7957747E-01            NaN
         13   -1    0    0    0    0  0.00000000000E+00  0.00000000000E+00  0.74505805969E-08  0.10566000000E+00  0.10566000000E+00 0. -1.
     999900   -1    0    0    0    0 -0.00000000000E+00 -0.00000000000E+00 -0.74505805969E-08  0.93827000000E+00  0.93827000000E+00 0. -1.
     999902    2    1    2    0    0  0.24123263244E-01  0.41852727683E-02  0.12066777934E-02  0.10194166484E+01  0.10191218762E+01 0.  0.
     999903    2    3    3    0    0 -0.10853378675E-01 -0.58167860694E-01 -0.11325965158E+00  0.12912803263E+00  0.18574291016E-01 0.  0.
         14    1    1    2    0    0 -0.24123263244E-01 -0.41852727683E-02 -0.12066777934E-02  0.24513351648E-01  0.00000000000E+00 0. -1.
     999901    1    3    3    0    0  0.34976641919E-01  0.62353133463E-01  0.11446632938E+00  0.89028861573E+00  0.88000000000E+00 0.  1.
        -11    1    4    4    0    0 -0.73618756398E-02 -0.17665637049E-01 -0.53740105363E-01  0.57048505596E-01  0.51100000000E-03 0. -1.
         11    1    4    4    0    0 -0.34915030352E-02 -0.40502223646E-01 -0.59519546219E-01  0.72079527030E-01  0.51100000000E-03 0.  1.
</event>
<event>
 8    1  0.1119901E+005  0.1043930E+01  0.7957747E-01            NaN
         13   -1    0    0    0    0  0.00000000000E+00  0.00000000000E+00  0.74505805969E-08  0.10566000000E+00  0.10566000000E+00 0. -1.
     999900   -1    0    0    0    0 -0.00000000000E+00 -0.00000000000E+00 -0.74505805969E-08  0.93827000000E+00  0.93827000000E+00 0. -1.
     999902    2    1    2    0    0 -0.38325494149E-02  0.22459422532E-01 -0.81012492213E-02  0.10197485126E+01  0.10194617622E+01 0.  0.
     999903    2    3    3    0    0  0.85714334513E-01  0.38515942096E-01  0.87521029576E-01  0.12990578689E+00  0.19625440445E-01 0.  0.
         14    1    1    2    0    0  0.38325494149E-02 -0.22459422532E-01  0.81012492213E-02  0.24181487432E-01  0.00000000000E+00 0.  1.
     999901    1    3    3    0    0 -0.89546883928E-01 -0.16056519565E-01 -0.95622278797E-01  0.88984272568E+00  0.88000000000E+00 0. -1.
        -11    1    4    4    0    0  0.24078272620E-01  0.19276128418E-01  0.35148124315E-01  0.46765201839E-01  0.51100000000E-03 0.  1.
         11    1    4    4    0    0  0.61636061893E-01  0.19239813678E-01  0.52372905261E-01  0.83140585050E-01  0.51100000000E-03 0. -1.
</event>
<event>
 8    1  0.1119901E+005  0.1043930E+01  0.7957747E-01            NaN
         13   -1    0    0    0    0  0.00000000000E+00  0.00000000000E+00  0.74505805969E-08  0.10566000000E+00  0.10566000000E+00 0.  1.
     999900   -1    0    0    0    0 -0.00000000000E+00 -0.00000000000E+00 -0.74505805969E-08  0.93827000000E+00  0.93827000000E+00 0.  1.
     999902    2    1    2    0    0  0.20753156418E-01  0.53626872709E-02 -0.11227733771E-01  0.10197326051E+01  0.10194454727E+01 0.  0.
     999903    2    3    3    0    0  0.12260744607E+00  0.10640898560E-03  0.44851122016E-01  0.13206895094E+00  0.19949624127E-01 0.  0.
         14    1    1    2    0    0 -0.20753156418E-01 -0.53626872709E-02  0.11227733771E-01  0.24197394936E-01  0.00000000000E+00 0.  1.
     999901    1    3    3    0    0 -0.10185428965E+00  0.52562782853E-02 -0.56078855787E-01  0.88766365412E+00  0.88000000000E+00 0.  1.
        -11    1    4    4    0    0  0.63210863281E-01 -0.28315170597E-02  0.33235945245E-01  0.71473910646E-01  0.51100000000E-03 0. -1.
         11    1    4    4    0    0  0.59396582787E-01  0.29379260453E-02  0.11615176770E-01  0.60595040297E-01  0.51100000000E-03 0.  1.
</event>
<event>
 8    1  0.1119901E+005  0.1043930E+01  0.7957747E-01            NaN
         13   -1    0    0    0    0  0.00000000000E+00  0.00000000000E+00  0.74505805969E-08  0.10566000000E+00  0.10566000000E+00 0. -1.
     999900   -1    0    0    0    0 -0.00000000000E+00 -0.00000000000E+00 -0.74505805969E-08  0.93827000000E+00  0.93827000000E+00 0.  1.
     999902    2    1    2    0    0 -0.51855943546E-02  0.13835413119E-01  0.17752290263E-01  0.10208334017E+01  0.10205720852E+01 0.  0.
     999903    2    3    3    0    0  0.88753806037E-01 -0.76810742088E-01 -0.49030853079E-01  0.12870038208E+00  0.19561073801E-01 0.  0.
         14    1    1    2    0    0  0.51855943546E-02 -0.13835413119E-01 -0.17752290263E-01  0.23096598333E-01  0.00000000000E+00 0. -1.
     999901    1    3    3    0    0 -0.93939400391E-01  0.90646155207E-01  0.66783143341E-01  0.89213301959E+00  0.88000000000E+00 0.  1.
        -11    1    4    4    0    0  0.57868366012E-01 -0.40782614435E-01 -0.22266005335E-01  0.74215938582E-01  0.51100000000E-03 0.  1.
         11    1    4    4    0    0  0.30885440025E-01 -0.36028127653E-01 -0.26764847744E-01  0.54484443500E-01  0.51100000000E-03 0. -1.
</event>
<event>
 8    1  0.1119901E+005  0.1043930E+01  0.7957747E-01            NaN
         13   -1    0    0    0    0  0.00000000000E+00  0.00000000000E+00  0.74505805969E-08  0.10566000000E+00  0.10566000000E+00 0. -1.
     999900   -1    0    0    0    0 -0.00000000000E+00 -0.00000000000E+00 -0.74505805969E-08  0.93827000000E+00  0.93827000000E+00 0. -1.
     999902    2    1    2    0    0 -0.31153559384E-01 -0.20770694369E-04  0.17936349533E-01  0.10079820191E+01  0.10073408031E+01 0.  0.
     999903    2    3    3    0    0 -0.20259367842E-01 -0.69146998066E-01 -0.91838568744E-01  0.11840478730E+00  0.19839899675E-01 0.  0.
         14    1    1    2    0    0  0.31153559384E-01  0.20770694369E-04 -0.17936349533E-01  0.35947980865E-01  0.00000000000E+00 0.  1.
     999901    1    3    3    0    0 -0.10894191543E-01  0.69126227372E-01  0.10977491828E+00  0.88957723184E+00  0.88000000000E+00 0.  1.
        -11    1    4    4    0    0 -0.69436313301E-02 -0.54441873532E-01 -0.66818519842E-01  0.86470268443E-01  0.51100000000E-03 0. -1.
         11    1    4    4    0    0 -0.13315736511E-01 -0.14705124534E-01 -0.25020048902E-01  0.31934518854E-01  0.51100000000E-03 0.  1.
</event>
<event>
 8    1  0.1119901E+005  0.1043930E+01  0.7957747E-01            NaN
         13   -1    0    0    0    0  0.00000000000E+00  0.00000000000E+00  0.74505805969E-08  0.10566000000E+00  0.10566000000E+00 0. -1.
     999900   -1    0    0    0    0 -0.00000000000E+00 -0.00000000000E+00 -0.74505805969E-08  0.93827000000E+00  0.93827000000E+00 0.  1.
     999902    2    1    2    0    0 -0.19379338876E-01  0.94471901680E-02  0.99172112334E-02  0.10201990233E+01  0.10199229813E+01 0.  0.
     999903    2    3    3    0    0 -0.85927811983E-01  0.76172592511E-01 -0.61769216536E-01  0.13226888948E+00  0.22220942601E-01 0.  0.
         14    1    1    2    0    0  0.19379338876E-01 -0.94471901680E-02 -0.99172112334E-02  0.23730976718E-01  0.00000000000E+00 0.  1.
     999901    1    3    3    0    0  0.66548473107E-01 -0.66725402343E-01  0.71686427770E-01  0.88793013380E+00  0.88000000000E+00 0. -1.
        -11    1    4    4    0    0 -0.52885173652E-01  0.44052804297E-01 -0.48862211063E-01  0.84411302262E-01  0.51100000000E-03 0. -1.
         11    1    4    4    0    0 -0.33042638332E-01  0.32119788214E-01 -0.12907005473E-01  0.47857587215E-01  0.51100000000E-03 0.  1.
</event>
<event>
 8    1  0.1119901E+005  0.1043930E+01  0.7957747E-01            NaN
         13   -1    0    0    0    0  0.00000000000E+00  0.00000000000E+00  0.74505805969E-08  0.10566000000E+00  0.10566000000E+00 0. -1.
     999900   -1    0    0    0    0 -0.00000000000E+00 -0.00000000000E+00 -0.74505805969E-08  0.93827000000E+00  0.93827000000E+00 0.  1.
     999902    2    1    2    0    0  0.18148237709E-01  0.12080700126E-01  0.56903801850E-02  0.10213981942E+01  0.10211496407E+01 0.  0.
     999903    2    3    3    0    0  0.27432611202E-01  0.11589034841E+00  0.57827455165E-01  0.13371530188E+00  0.18778881084E-01 0.  0.
         14    1    1    2    0    0 -0.18148237709E-01 -0.12080700126E-01 -0.56903801850E-02  0.22531805834E-01  0.00000000000E+00 0. -1.
     999901    1    3    3    0    0 -0.92843734934E-02 -0.10380964828E+00 -0.52137074980E-01  0.88768289228E+00  0.88000000000E+00 0.  1.
        -11    1    4    4    0    0  0.17177997686E-01  0.10115523828E+00  0.49302681992E-01  0.11383532584E+00  0.51100000000E-03 0.  1.
         11    1    4    4    0    0  0.10254613516E-01  0.14735110132E-01  0.85247731730E-02  0.19879976046E-01  0.51100000000E-03 0. -1.
</event>
<event>
 8    1  0.1119901E+005  0.1043930E+01  0.7957747E-01            NaN
         13   -1    0    0    0    0  0.00000000000E+00  0.00000000000E+00  0.74505805969E-08  0.10566000000E+00  0.10566000000E+00 0.  1.
     999900   -1    0    0    0    0 -0.00000000000E+00 -0.00000000000E+00 -0.74505805969E-08  0.93827000000E+00  0.93827000000E+00 0.  1.
     999902    2    1    2    0    0  0.18446134672E-01 -0.30980942162E-02  0.14588960550E-01  0.10202087892E+01  0.10199329771E+01 0.  0.
     999903    2    3    3    0    0  0.97015190427E-03 -0.24810067136E-01 -0.12479748637E+00  0.12880237160E+00  0.19978931391E-01 0.  0.
         14    1    1    2    0    0 -0.18446134672E-01  0.30980942162E-02 -0.14588960550E-01  0.23721210804E-01  0.00000000000E+00 0. -1.
     999901    1    3    3    0    0  0.17475982768E-01  0.21711972920E-01  0.13938644692E+00  0.89140641759E+00  0.88000000000E+00 0. -1.
        -11    1    4    4    0    0 -0.83813188366E-02 -0.52074035361E-02 -0.31726009355E-01  0.33228968500E-01  0.51100000000E-03 0.  1.
         11    1    4    4    0    0  0.93514707409E-02 -0.19602663600E-01 -0.93071477017E-01  0.95573403102E-01  0.51100000000E-03 0. -1.
</event>
<event>
 7    1  0.1119901E+005  0.1043930E+01  0.7957747E-01            NaN
         13   -1    0    0    0    0  0.00000000000E+00  0.00000000000E+00  0.74505805969E-08  0.10566000000E+00  0.10566000000E+00 0. -1.
     999900   -1    0    0    0    0 -0.00000000000E+00 -0.00000000000E+00 -0.74505805969E-08  0.93827000000E+00  0.93827000000E+00 0. -1.
     999903    2    1    2    0    0  0.92147898208E-01 -0.18672508993E-01 -0.72008373070E-01  0.12007279683E+00  0.19808407580E-01 0.  0.
         14    1    1    2    0    0 -0.20338644117E-01 -0.11457299853E-01  0.31872790648E-01  0.39507024035E-01  0.00000000000E+00 0. -1.
     999901    1    1    2    0    0 -0.71809254091E-01  0.30129808846E-01  0.40135582423E-01  0.88435017913E+00  0.88000000000E+00 0.  1.
        -11    1    3    3    0    0  0.12125352441E-01 -0.95972495235E-02 -0.13390837007E-01  0.20462331416E-01  0.51100000000E-03 0.  1.
         11    1    3    3    0    0  0.80022545767E-01 -0.90752594693E-02 -0.58617536064E-01  0.99610465417E-01  0.51100000000E-03 0. -1.
</event>
<event>
 8    1  0.1119901E+005  0.1043930E+01  0.7957747E-01            NaN
         13   -1    0    0    0    0  0.00000000000E+00  0.00000000000E+00  0.74505805969E-08  0.10566000000E+00  0.10566000000E+00 0. -1.
     999900   -1    0    0    0    0 -0.00000000000E+00 -0.00000000000E+00 -0.74505805969E-08  0.93827000000E+00  0.93827000000E+00 0.  1.
     999902    2    1    2    0    0 -0.21717872672E-01 -0.71615993606E-02  0.62426066607E-02  0.10202250504E+01  0.10199496207E+01 0.  0.
     999903    2    3    3    0    0  0.20423861983E-01  0.88848316611E-01 -0.88830848819E-01  0.12891545674E+00  0.20423461568E-01 0.  0.
         14    1    1    2    0    0  0.21717872672E-01  0.71615993606E-02 -0.62426066607E-02  0.23704949625E-01  0.00000000000E+00 0.  1.
     999901    1    3    3    0    0 -0.42141734655E-01 -0.96009915971E-01  0.95073455479E-01  0.89130959363E+00  0.88000000000E+00 0. -1.
        -11    1    4    4    0    0  0.96707408339E-02  0.59974895199E-01 -0.46246249263E-01  0.76351083649E-01  0.51100000000E-03 0. -1.
         11    1    4    4    0    0  0.10753121149E-01  0.28873421412E-01 -0.42584599555E-01  0.52564373094E-01  0.51100000000E-03 0.  1.
</event>
<event>
 8    1  0.1119901E+005  0.1043930E+01  0.7957747E-01            NaN
         13   -1    0    0    0    0  0.00000000000E+00  0.00000000000E+00  0.74505805969E-08  0.10566000000E+00  0.10566000000E+00 0. -1.
     999900   -1    0    0    0    0 -0.00000000000E+00 -0.00000000000E+00 -0.74505805969E-08  0.93827000000E+00  0.93827000000E+00 0.  1.
     999902    2    1    2    0    0 -0.37681489670E-02 -0.83607091884E-02 -0.23097129285E-01  0.10190788876E+01  0.10187758347E+01 0.  0.
     999903    2    3    3    0    0  0.17328104556E-02 -0.12766519661E+00 -0.21918992968E-01  0.13101064179E+00  0.19543309582E-01 0.  0.
         14    1    1    2    0    0  0.37681489670E-02  0.83607091884E-02  0.23097129285E-01  0.24851112369E-01  0.00000000000E+00 0. -1.
     999901    1    3    3    0    0 -0.55009594226E-02  0.11930448743E+00 -0.11781363164E-02  0.88806824585E+00  0.88000000000E+00 0.  1.
        -11    1    4    4    0    0  0.63999916693E-02 -0.14228759831E-01 -0.18955015292E-02  0.15724870325E-01  0.51100000000E-03 0.  1.
         11    1    4    4    0    0 -0.46671812137E-02 -0.11343643678E+00 -0.20023491439E-01  0.11528577146E+00  0.51100000000E-03 0. -1.
</event>
<event>
 8    1  0.1119901E+005  0.1043930E+01  0.7957747E-01            NaN
         13   -1    0    0    0    0  0.00000000000E+00  0.00000000000E+00  0.74505805969E-08  0.10566000000E+00  0.10566000000E+00 0. -1.
     999900   -1    0    0    0    0 -0.00000000000E+00 -0.00000000000E+00 -0.74505805969E-08  0.93827000000E+00  0.93827000000E+00 0. -1.
     999902    2    1    2    0    0 -0.58628073447E-02  0.16132823639E-01  0.16074596051E-01  0.10204133432E+01  0.10201423223E+01 0.  0.
     999903    2    3    3    0    0  0.93623324902E-01 -0.50621513355E-01  0.72888143457E-01  0.13047996863E+00  0.19608064077E-01 0.  0.
         14    1    1    2    0    0  0.58628073447E-02 -0.16132823639E-01 -0.16074596051E-01  0.23516656793E-01  0.00000000000E+00 0.  1.
     999901    1    3    3    0    0 -0.99486132247E-01  0.66754336994E-01 -0.56813547406E-01  0.88993337458E+00  0.88000000000E+00 0.  1.
        -11    1    4    4    0    0  0.21506271572E-01 -0.11746455260E-01  0.74277035308E-02  0.25611146574E-01  0.51100000000E-03 0.  1.
         11    1    4    4    0    0  0.72117053330E-01 -0.38875058095E-01  0.65460439926E-01  0.10486882206E+00  0.51100000000E-03 0. -1.
</event>
<event>
 8    1  0.1119901E+005  0.1043930E+01  0.7957747E-01            NaN
         13   -1    0    0    0    0  0.00000000000E+00  0.00000000000E+00  0.74505805969E-08  0.10566000000E+00  0.10566000000E+00 0.  1.
     999900   -1    0    0    0    0 -0.00000000000E+00 -0.00000000000E+00 -0.74505805969E-08  0.93827000000E+00  0.93827000000E+00 0. -1.
     999902    2    1    2    0    0 -0.22536185780E-01 -0.67782375986E-02 -0.12539531918E-02  0.10203631467E+01  0.10200909541E+01 0.  0.
     999903    2    3    3    0    0  0.10132128056E+00  0.75389834487E-01  0.26851694434E-02  0.12789030080E+00  0.19977233679E-01 0.  0.
         14    1    1    2    0    0  0.22536185780E-01  0.67782375986E-02  0.12539531918E-02  0.23566853270E-01  0.00000000000E+00 0.  1.
     999901    1    3    3    0    0 -0.12385746634E+00 -0.82168072086E-01 -0.39391226352E-02  0.89247284593E+00  0.88000000000E+00 0.  1.
        -11    1    4    4    0    0  0.26133826567E-01  0.15040349234E-01 -0.71010971899E-02  0.30981860796E-01  0.51100000000E-03 0. -1.
         11    1    4    4    0    0  0.75187453992E-01  0.60349485253E-01  0.97862666333E-02  0.96908440003E-01  0.51100000000E-03 0.  1.
</event>
<event>
 8    1  0.1119901E+005  0.1043930E+01  0.7957747E-01            NaN
         13   -1    0    0    0    0  0.00000000000E+00  0.00000000000E+00  0.74505805969E-08  0.10566000000E+00  0.10566000000E+00 0. -1.
     999900   -1    0    0    0    0 -0.00000000000E+00 -0.00000000000E+00 -0.74505805969E-08  0.93827000000E+00  0.93827000000E+00 0.  1.
     999902    2    1    2    0    0  0.17750942821E-01 -0.15597195760E-01 -0.18122998429E-02  0.10202307823E+01  0.10199554874E+01 0.  0.
     999903    2    3    3    0    0  0.76487611207E-01 -0.79435783241E-01 -0.71707306546E-01  0.13320729144E+00  0.21020141603E-01 0.  0.
         14    1    1    2    0    0 -0.17750942821E-01  0.15597195760E-01  0.18122998429E-02  0.23699217652E-01  0.00000000000E+00 0.  1.
     999901    1    3    3    0    0 -0.58736668386E-01  0.63838587481E-01  0.69895006703E-01  0.88702349091E+00  0.88000000000E+00 0. -1.
        -11    1    4    4    0    0  0.45702346553E-01 -0.34458641885E-01 -0.43086300299E-01  0.71643512445E-01  0.51100000000E-03 0. -1.
         11    1    4    4    0    0  0.30785264653E-01 -0.44977141355E-01 -0.28621006247E-01  0.61563778992E-01  0.51100000000E-03 0.  1.
</event>
<event>
 8    1  0.1119901E+005  0.1043930E+01  0.7957747E-01            NaN
         13   -1    0    0    0    0  0.00000000000E+00  0.00000000000E+00  0.74505805969E-08  0.10566000000E+00  0.10566000000E+00 0.  1.
     999900   -1    0    0    0    0 -0.00000000000E+00 -0.00000000000E+00 -0.74505805969E-08  0.93827000000E+00  0.93827000000E+00 0.  1.
     999902    2    1    2    0    0 -0.22176065105E-01 -0.15576558179E-01 -0.13565915382E-01  0.10136242070E+01  0.10131710576E+01 0.  0.
     999903    2    3    3    0    0 -0.33346189603E-01 -0.10955946335E-01  0.11718190524E+00  0.12388204530E+00  0.19574501580E-01 0.  0.
         14    1    1    2    0    0  0.22176065105E-01  0.15576558179E-01  0.13565915382E-01  0.30305792985E-01  0.00000000000E+00 0.  1.
     999901    1    3    3    0    0  0.11170124498E-01 -0.46206118444E-02 -0.13074782062E+00  0.88974216171E+00  0.88000000000E+00 0.  1.
        -11    1    4    4    0    0 -0.35967286609E-01 -0.10480683984E-01  0.10855203932E+00  0.11483595606E+00  0.51100000000E-03 0. -1.
         11    1    4    4    0    0  0.26210970063E-02 -0.47526235094E-03  0.86298659181E-02  0.90460892425E-02  0.51100000000E-03 0.  1.
</event>
<event>
 8    1  0.1119901E+005  0.1043930E+01  0.7957747E-01            NaN
         13   -1    0    0    0    0  0.00000000000E+00  0.00000000000E+00  0.74505805969E-08  0.10566000000E+00  0.10566000000E+00 0. -1.
     999900   -1    0    0    0    0 -0.00000000000E+00 -0.00000000000E+00 -0.74505805969E-08  0.93827000000E+00  0.93827000000E+00 0.  1.
     999902    2    1    2    0    0 -0.20370443234E-01 -0.10513341078E-01 -0.62944234771E-02  0.10201580614E+01  0.10198810544E+01 0.  0.
     999903    2    3    3    0    0 -0.52754071425E-01 -0.83914179116E-01  0.84644581885E-01  0.13184151584E+00  0.19821668680E-01 0.  0.
         14    1    1    2    0    0  0.20370443234E-01  0.10513341078E-01  0.62944234771E-02  0.23771938606E-01  0.00000000000E+00 0.  1.
     999901    1    3    3    0    0  0.32383628190E-01  0.73400838038E-01 -0.90939005362E-01  0.88831654555E+00  0.88000000000E+00 0.  1.
        -11    1    4    4    0    0 -0.11832684929E-01 -0.92575002418E-02  0.68716468590E-02  0.16528593253E-01  0.51100000000E-03 0. -1.
         11    1    4    4    0    0 -0.40921386495E-01 -0.74656678874E-01  0.77772935026E-01  0.11531292259E+00  0.51100000000E-03 0.  1.
</event>
<event>
 8    1  0.1119901E+005  0.1043930E+01  0.7957747E-01            NaN
         13   -1    0    0    0    0  0.00000000000E+00  0.00000000000E+00  0.74505805969E-08  0.10566000000E+00  0.10566000000E+00 0.  1.
     999900   -1    0    0    0    0 -0.00000000000E+00 -0.00000000000E+00 -0.74505805969E-08  0.93827000000E+00  0.93827000000E+00 0.  1.
     999902    2    1    2    0    0  0.17864717861E-01 -0.21874270666E-02 -0.14138841429E-01  0.10210424528E+01  0.10207858985E+01 0.  0.
     999903    2    3    3    0    0  0.70402672566E-01  0.96444528440E-01  0.51487634383E-01  0.13155083748E+00  0.19913889065E-01 0.  0.
         14    1    1    2    0    0 -0.17864717861E-01  0.21874270666E-02  0.14138841429E-01  0.22887547234E-01  0.00000000000E+00 0.  1.
     999901    1    3    3    0    0 -0.52537954704E-01 -0.98631955506E-01 -0.65626475812E-01  0.88949161528E+00  0.88000000000E+00 0. -1.
        -11    1    4    4    0    0  0.67973213568E-02  0.16756526850E-01  0.19560310385E-02  0.18195382604E-01  0.51100000000E-03 0.  1.
         11    1    4    4    0    0  0.63605351209E-01  0.79688001590E-01  0.49531603345E-01  0.11335545488E+00  0.51100000000E-03 0. -1.
</event>
<event>
 8    1  0.1119901E+005  0.1043930E+01  0.7957747E-01            NaN
         13   -1    0    0    0    0  0.00000000000E+00  0.00000000000E+00  0.74505805969E-08  0.10566000000E+00  0.10566000000E+00 0. -1.
     999900   -1    0    0    0    0 -0.00000000000E+00 -0.00000000000E+00 -0.74505805969E-08  0.93827000000E+00  0.93827000000E+00 0. -1.
     999902    2    1    2    0    0  0.74020647403E-02  0.16812077837E-01 -0.14083700661E-01  0.10207829236E+01  0.10205204505E+01 0.  0.
     999903    2    3    3    0    0 -0.70643981927E-01  0.10812968551E+00  0.19398786120E-01  0.13199095251E+00  0.19044620526E-01 0.  0.
         14    1    1    2    0    0 -0.74020647403E-02 -0.16812077837E-01  0.14083700661E-01  0.23147076445E-01  0.00000000000E+00 0. -1.
     999901    1    3    3    0    0  0.78046046667E-01 -0.91317607673E-01 -0.33482486781E-01  0.88879197104E+00  0.88000000000E+00 0. -1.
        -11    1    4    4    0    0 -0.60905165661E-01  0.79456750227E-01  0.12153045297E-01  0.10085024537E+00  0.51100000000E-03 0. -1.
         11    1    4    4    0    0 -0.97388162656E-02  0.28672935283E-01  0.72457408224E-02  0.31140707138E-01  0.51100000000E-03 0.  1.
</event>
<event>
 8    1  0.1119901E+005  0.1043930E+01  0.7957747E-01            NaN
         13   -1    0    0    0    0  0.00000000000E+00  0.00000000000E+00  0.74505805969E-08  0.10566000000E+00  0.10566000000E+00 0.  1.
     999900   -1    0    0    0    0 -0.00000000000E+00 -0.00000000000E+00 -0.74505805969E-08  0.93827000000E+00  0.93827000000E+00 0. -1.
     999902    2    1    2    0    0 -0.21708543133E-01 -0.59318126708E-02  0.64902826878E-02  0.10205084071E+01  0.10202395983E+01 0.  0.
     999903    2    3    3    0    0  0.31576584281E-01 -0.48336385566E-01  0.11601456811E+00  0.13110803507E+00  0.19911052227E-01 0.  0.
         14    1    1    2    0    0  0.21708543133E-01  0.59318126708E-02 -0.64902826878E-02  0.23421592941E-01  0.00000000000E+00 0.  1.
     999901    1    3    3    0    0 -0.53285127414E-01  0.42404572895E-01 -0.10952428542E+00  0.88940037199E+00  0.88000000000E+00 0. -1.
        -11    1    4    4    0    0  0.16899273290E-01 -0.37753695357E-01  0.65719966433E-01  0.77655019540E-01  0.51100000000E-03 0.  1.
         11    1    4    4    0    0  0.14677310991E-01 -0.10582690209E-01  0.50294601676E-01  0.53453015526E-01  0.51100000000E-03 0. -1.
</event>
<event>
 8    1  0.1119901E+005  0.1043930E+01  0.7957747E-01            NaN
         13   -1    0    0    0    0  0.00000000000E+00  0.00000000000E+00  0.74505805969E-08  0.10566000000E+00  0.10566000000E+00 0.  1.
     999900   -1    0    0    0    0 -0.00000000000E+00 -0.00000000000E+00 -0.74505805969E-08  0.93827000000E+00  0.93827000000E+00 0.  1.
     999902    2    1    2    0    0 -0.21144726879E-02 -0.22817137241E-01 -0.67637162817E-02  0.10200377292E+01  0.10197578773E+01 0.  0.
     999903    2    3    3    0    0  0.38761352802E-01  0.11968050805E+00  0.70010639048E-02  0.12753233358E+00  0.19738660907E-01 0.  0.
         14    1    1    2    0    0  0.21144726879E-02  0.22817137241E-01  0.67637162817E-02  0.23892270812E-01  0.00000000000E+00 0.  1.
     999901    1    3    3    0    0 -0.40875825490E-01 -0.14249764529E+00 -0.13764780187E-01  0.89250539561E+00  0.88000000000E+00 0. -1.
        -11    1    4    4    0    0  0.91433849494E-02  0.49936564993E-01  0.98005476867E-02  0.51706613383E-01  0.51100000000E-03 0.  1.
         11    1    4    4    0    0  0.29617967852E-01  0.69743943054E-01 -0.27994837819E-02  0.75825720194E-01  0.51100000000E-03 0. -1.
</event>
<event>
 8    1  0.1119901E+005  0.1043930E+01  0.7957747E-01            NaN
         13   -1    0    0    0    0  0.00000000000E+00  0.00000000000E+00  0.74505805969E-08  0.10566000000E+00  0.10566000000E+00 0.  1.
     999900   -1    0    0    0    0 -0.00000000000E+00 -0.00000000000E+00 -0.74505805969E-08  0.93827000000E+00  0.93827000000E+00 0.  1.
     999902    2    1    2    0    0 -0.12784660246E-01  0.51428514526E-02 -0.13140618839E-01  0.10248886681E+01  0.10247117690E+01 0.  0.
     999903    2    3    3    0    0 -0.13085959917E+00 -0.30726747786E-01 -0.14131204539E-01  0.13627778549E+00  0.17423436883E-01 0.  0.
         14    1    1    2    0    0  0.12784660246E-01 -0.51428514526E-02  0.13140618839E-01  0.19041331942E-01  0.00000000000E+00 0.  1.
     999901    1    3    3    0    0  0.11807493892E+00  0.35869599239E-01  0.99058570047E-03  0.88861088256E+00  0.88000000000E+00 0. -1.
        -11    1    4    4    0    0 -0.10915762359E+00 -0.30810721896E-01 -0.15737248729E-01  0.11451030298E+00  0.51100000000E-03 0. -1.
         11    1    4    4    0    0 -0.21701975582E-01  0.83974110170E-04  0.16060441902E-02  0.21767482509E-01  0.51100000000E-03 0.  1.
</event>
<event>
 8    1  0.1119901E+005  0.1043930E+01  0.7957747E-01            NaN
         13   -1    0    0    0    0  0.00000000000E+00  0.00000000000E+00  0.74505805969E-08  0.10566000000E+00  0.10566000000E+00 0. -1.
     999900   -1    0    0    0    0 -0.00000000000E+00 -0.00000000000E+00 -0.74505805969E-08  0.93827000000E+00  0.93827000000E+00 0. -1.
     999902    2    1    2    0    0 -0.67287439314E-02 -0.23821862814E-01 -0.13839372923E-02  0.10191374119E+01  0.10188358022E+01 0.  0.
     999903    2    3    3    0    0  0.84307752633E-01  0.37875960386E-03 -0.95398022538E-01  0.12913069166E+00  0.21587315971E-01 0.  0.
         14    1    1    2    0    0  0.67287439314E-02  0.23821862814E-01  0.13839372923E-02  0.24792588112E-01  0.00000000000E+00 0. -1.
     999901    1    3    3    0    0 -0.91036496565E-01 -0.24200622418E-01  0.94014085245E-01  0.89000672023E+00  0.88000000000E+00 0.  1.
        -11    1    4    4    0    0  0.75853513252E-02 -0.54927115351E-02 -0.16117332818E-01  0.18647706907E-01  0.51100000000E-03 0.  1.
         11    1    4    4    0    0  0.76722401308E-01  0.58714711390E-02 -0.79280689720E-01  0.11048298475E+00  0.51100000000E-03 0. -1.
</event>
<event>
 8    1  0.1119901E+005  0.1043930E+01  0.7957747E-01            NaN
         13   -1    0    0    0    0  0.00000000000E+00  0.00000000000E+00  0.74505805969E-08  0.10566000000E+00  0.10566000000E+00 0.  1.
     999900   -1    0    0    0    0 -0.00000000000E+00 -0.00000000000E+00 -0.74505805969E-08  0.93827000000E+00  0.93827000000E+00 0.  1.
     999902    2    1    2    0    0 -0.17581406632E-01 -0.16113699328E-01 -0.85081636650E-03  0.10200661978E+01  0.10197870204E+01 0.  0.
     999903    2    3    3    0    0 -0.49050485779E-01 -0.10102350874E+00  0.67938579268E-01  0.13274891545E+00  0.19872708053E-01 0.  0.
         14    1    1    2    0    0  0.17581406632E-01  0.16113699328E-01  0.85081636650E-03  0.23863802163E-01  0.00000000000E+00 0.  1.
     999901    1    3    3    0    0  0.31469079147E-01  0.84909809415E-01 -0.68789395634E-01  0.88731728239E+00  0.88000000000E+00 0.  1.
        -11    1    4    4    0    0 -0.30247580201E-01 -0.49307629081E-01  0.44272013800E-01  0.72845251873E-01  0.51100000000E-03 0. -1.
         11    1    4    4    0    0 -0.18802905579E-01 -0.51715879662E-01  0.23666565467E-01  0.59903663573E-01  0.51100000000E-03 0.  1.
</event>
<event>
 8    1  0.1119901E+005  0.1043930E+01  0.7957747E-01            NaN
         13   -1    0    0    0    0  0.00000000000E+00  0.00000000000E+00  0.74505805969E-08  0.10566000000E+00  0.10566000000E+00 0.  1.
     999900   -1    0    0    0    0 -0.00000000000E+00 -0.00000000000E+00 -0.74505805969E-08  0.93827000000E+00  0.93827000000E+00 0. -1.
     999902    2    1    2    0    0 -0.13313402487E-01  0.13922132547E-01 -0.16176800864E-01  0.10187752520E+01  0.10184646546E+01 0.  0.
     999903    2    3    3    0    0  0.11546182923E+00  0.10621463254E-01  0.50610138916E-01  0.12689272048E+00  0.98044306125E-02 0.  0.
         14    1    1    2    0    0  0.13313402487E-01 -0.13922132547E-01  0.16176800864E-01  0.25154747993E-01  0.00000000000E+00 0.  1.
     999901    1    3    3    0    0 -0.12877523171E+00  0.33006692925E-02 -0.66786939780E-01  0.89188253153E+00  0.88000000000E+00 0.  1.
        -11    1    4    4    0    0  0.23653383493E-01 -0.16210250719E-02  0.92376382425E-02  0.25450056075E-01  0.51100000000E-03 0.  1.
         11    1    4    4    0    0  0.91808445733E-01  0.12242488326E-01  0.41372500674E-01  0.10144266440E+00  0.51100000000E-03 0. -1.
</event>
<event>
 8    1  0.1119901E+005  0.1043930E+01  0.7957747E-01            NaN
         13   -1    0    0    0    0  0.00000000000E+00  0.00000000000E+00  0.74505805969E-08  0.10566000000E+00  0.10566000000E+00 0. -1.
     999900   -1    0    0    0    0 -0.00000000000E+00 -0.00000000000E+00 -0.74505805969E-08  0.93827000000E+00  0.93827000000E+00 0.  1.
     999902    2    1    2    0    0  0.16201001909E-01  0.12014277664E-01 -0.10820077276E-01  0.10210413696E+01  0.10207847907E+01 0.  0.
     999903    2    3    3    0    0 -0.81275279431E-02  0.12893207332E+00 -0.23974685851E-01  0.13287770671E+00  0.19803109258E-01 0.  0.
         14    1    1    2    0    0 -0.16201001909E-01 -0.12014277664E-01  0.10820077276E-01  0.22888630429E-01  0.00000000000E+00 0. -1.
     999901    1    3    3    0    0  0.24328529852E-01 -0.11691779566E+00  0.13154608575E-01  0.88816366286E+00  0.88000000000E+00 0.  1.
        -11    1    4    4    0    0 -0.10695713810E-01  0.67055901044E-01 -0.49306562941E-02  0.68084246718E-01  0.51100000000E-03 0. -1.
         11    1    4    4    0    0  0.25681858670E-02  0.61876172279E-01 -0.19044029557E-01  0.64793459989E-01  0.51100000000E-03 0.  1.
</event>
<event>
 8    1  0.1119901E+005  0.1043930E+01  0.7957747E-01            NaN
         13   -1    0    0    0    0  0.00000000000E+00  0.00000000000E+00  0.74505805969E-08  0.10566000000E+00  0.10566000000E+00 0.  1.
     999900   -1    0    0    0    0 -0.00000000000E+00 -0.00000000000E+00 -0.74505805969E-08  0.93827000000E+00  0.93827000000E+00 0.  1.
     999902    2    1    2    0    0 -0.83164560244E-02  0.65499096801E-02  0.21537473172E-01  0.10199315103E+01  0.10196491348E+01 0.  0.
     999903    2    3    3    0    0  0.97828275426E-01 -0.18592915059E-01 -0.77467923668E-01  0.12768662560E+00  0.19660294943E-01 0.  0.
         14    1    1    2    0    0  0.83164560244E-02 -0.65499096801E-02 -0.21537473172E-01  0.23998489708E-01  0.00000000000E+00 0.  1.
     999901    1    3    3    0    0 -0.10614473145E+00  0.25142824739E-01  0.99005396840E-01  0.89224488469E+00  0.88000000000E+00 0. -1.
        -11    1    4    4    0    0  0.49782575588E-01 -0.77353479430E-04 -0.33845804653E-01  0.60200584959E-01  0.51100000000E-03 0.  1.
         11    1    4    4    0    0  0.48045699838E-01 -0.18515561579E-01 -0.43622119015E-01  0.67486040644E-01  0.51100000000E-03 0. -1.
</event>
<event>
 8    1  0.1119901E+005  0.1043930E+01  0.7957747E-01            NaN
         13   -1    0    0    0    0  0.00000000000E+00  0.00000000000E+00  0.74505805969E-08  0.10566000000E+00  0.10566000000E+00 0. -1.
     999900   -1    0    0    0    0 -0.00000000000E+00 -0.00000000000E+00 -0.74505805969E-08  0.93827000000E+00  0.93827000000E+00 0. -1.
     999902    2    1    2    0    0 -0.12846183480E-01  0.12702838863E-01 -0.16175042217E-01  0.10196809065E+01  0.10193925311E+01 0.  0.
     999903    2    3    3    0    0  0.24534752273E-01 -0.11763838346E+00 -0.42163415117E-01  0.12891631126E+00  0.20022946900E-01 0.  0.
         14    1    1    2    0    0  0.12846183480E-01 -0.12702838863E-01  0.16175042217E-01  0.24249093507E-01  0.00000000000E+00 0. -1.
     999901    1    3    3    0    0 -0.37380935753E-01  0.13034122232E+00  0.25988372901E-01  0.89076459523E+00  0.88000000000E+00 0.  1.
        -11    1    4    4    0    0  0.19271429115E-01 -0.68345595014E-01 -0.15729684801E-01  0.72733709124E-01  0.51100000000E-03 0.  1.
         11    1    4    4    0    0  0.52633231581E-02 -0.49292788445E-01 -0.26433730317E-01  0.56182602137E-01  0.51100000000E-03 0. -1.
</event>
<event>
 8    1  0.1119901E+005  0.1043930E+01  0.7957747E-01            NaN
         13   -1    0    0    0    0  0.00000000000E+00  0.00000000000E+00  0.74505805969E-08  0.10566000000E+00  0.10566000000E+00 0. -1.
     999900   -1    0    0    0    0 -0.00000000000E+00 -0.00000000000E+00 -0.74505805969E-08  0.93827000000E+00  0.93827000000E+00 0. -1.
     999902    2    1    2    0    0  0.21707640465E-01 -0.10030708856E-01 -0.28224661301E-03  0.10200152255E+01  0.10197348400E+01 0.  0.
     999903    2    3    3    0    0  0.12453861115E+00 -0.42365493220E-01 -0.10136918173E-01  0.13338291089E+00  0.19584257050E-01 0.  0.
         14    1    1    2    0    0 -0.21707640465E-01  0.10030708856E-01  0.28224661301E-03  0.23914774468E-01  0.00000000000E+00 0.  1.
     999901    1    3    3    0    0 -0.10283097069E+00  0.32334784364E-01  0.98546715598E-02  0.88663231464E+00  0.88000000000E+00 0. -1.
        -11    1    4    4    0    0  0.52060964160E-01 -0.77187071249E-02 -0.53957086886E-02  0.52908385178E-01  0.51100000000E-03 0. -1.
         11    1    4    4    0    0  0.72477646993E-01 -0.34646786096E-01 -0.47412094842E-02  0.80474525713E-01  0.51100000000E-03 0.  1.
</event>
<event>
 8    1  0.1119901E+005  0.1043930E+01  0.7957747E-01            NaN
         13   -1    0    0    0    0  0.00000000000E+00  0.00000000000E+00  0.74505805969E-08  0.10566000000E+00  0.10566000000E+00 0. -1.
     999900   -1    0    0    0    0 -0.00000000000E+00 -0.00000000000E+00 -0.74505805969E-08  0.93827000000E+00  0.93827000000E+00 0. -1.
     999902    2    1    2    0    0  0.17429169397E-02  0.22993565840E-01 -0.46737601693E-02  0.10204015945E+01  0.10201302997E+01 0.  0.
     999903    2    3    3    0    0  0.69175374541E-01  0.50261019982E-01  0.97762503631E-01  0.13147874157E+00  0.20438928427E-01 0.  0.
         14    1    1    2    0    0 -0.17429169397E-02 -0.22993565840E-01  0.46737601693E-02  0.23528405463E-01  0.00000000000E+00 0. -1.
     999901    1    3    3    0    0 -0.67432457601E-01 -0.27267454142E-01 -0.10243626380E+00  0.88892285297E+00  0.88000000000E+00 0. -1.
        -11    1    4    4    0    0  0.31273783266E-01  0.28008613256E-01  0.61666997364E-01  0.74603026891E-01  0.51100000000E-03 0. -1.
         11    1    4    4    0    0  0.37901591275E-01  0.22252406726E-01  0.36095506266E-01  0.56875714676E-01  0.51100000000E-03 0.  1.
</event>
<event>
 8    1  0.1138053E+005  0.1043930E+01  0.7957747E-01            NaN
         13   -1    0    0    0    0  0.00000000000E+00  0.00000000000E+00  0.74505805969E-08  0.10566000000E+00  0.10566000000E+00 0. -1.
     999900   -1    0    0    0    0 -0.00000000000E+00 -0.00000000000E+00 -0.74505805969E-08  0.93827000000E+00  0.93827000000E+00 0. -1.
     999902    2    1    2    0    0  0.77419269391E-02  0.13969588702E-01 -0.17649069191E-01  0.10201271329E+01  0.10198493961E+01 0.  0.
     999903    2    3    3    0    0  0.10921645509E+00  0.39534691465E-02  0.67856350075E-01  0.13012231307E+00  0.19582342349E-01 0.  0.
         14    1    1    2    0    0 -0.77419269391E-02 -0.13969588702E-01  0.17649069191E-01  0.23802867150E-01  0.00000000000E+00 0.  1.
     999901    1    3    3    0    0 -0.10147452815E+00  0.10016119556E-01 -0.85505419266E-01  0.89000481978E+00  0.88000000000E+00 0. -1.
        -11    1    4    4    0    0  0.47733280229E-01  0.27352356426E-03  0.40999065297E-01  0.62926348479E-01  0.51100000000E-03 0. -1.
         11    1    4    4    0    0  0.61483174860E-01  0.36799455822E-02  0.26857284778E-01  0.67195964588E-01  0.51100000000E-03 0.  1.
</event>
<event>
 8    1  0.1119901E+005  0.1043930E+01  0.7957747E-01            NaN
         13   -1    0    0    0    0  0.00000000000E+00  0.00000000000E+00  0.74505805969E-08  0.10566000000E+00  0.10566000000E+00 0. -1.
     999900   -1    0    0    0    0 -0.00000000000E+00 -0.00000000000E+00 -0.74505805969E-08  0.93827000000E+00  0.93827000000E+00 0. -1.
     999902    2    1    2    0    0  0.12830692177E-02 -0.23163734224E-01 -0.93718222500E-03  0.10207118356E+01  0.10204477292E+01 0.  0.
     999903    2    3    3    0    0  0.12650966413E-01  0.20344204988E-01  0.12648695785E+00  0.13039780032E+00  0.20753365824E-01 0.  0.
         14    1    1    2    0    0 -0.12830692177E-02  0.23163734224E-01  0.93718222500E-03  0.23218164448E-01  0.00000000000E+00 0. -1.
     999901    1    3    3    0    0 -0.11367897196E-01 -0.43507939212E-01 -0.12742414008E+00  0.89031403523E+00  0.88000000000E+00 0. -1.
        -11    1    4    4    0    0  0.12916640438E-01  0.62362506494E-02  0.35012397894E-01  0.37839920053E-01  0.51100000000E-03 0. -1.
         11    1    4    4    0    0 -0.26567402487E-03  0.14107954338E-01  0.91474559959E-01  0.92557880264E-01  0.51100000000E-03 0.  1.
</event>
<event>
 8    1  0.1119901E+005  0.1043930E+01  0.7957747E-01            NaN
         13   -1    0    0    0    0  0.00000000000E+00  0.00000000000E+00  0.74505805969E-08  0.10566000000E+00  0.10566000000E+00 0. -1.
     999900   -1    0    0    0    0 -0.00000000000E+00 -0.00000000000E+00 -0.74505805969E-08  0.93827000000E+00  0.93827000000E+00 0.  1.
     999902    2    1    2    0    0 -0.52240228091E-02 -0.31722274441E-01 -0.65038738294E-02  0.10111291847E+01  0.10105970189E+01 0.  0.
     999903    2    3    3    0    0 -0.79173442654E-01  0.33924952950E-01  0.82783496986E-01  0.12110092124E+00  0.19823957660E-01 0.  0.
         14    1    1    2    0    0  0.52240228091E-02  0.31722274441E-01  0.65038738294E-02  0.32800815307E-01  0.00000000000E+00 0. -1.
     999901    1    3    3    0    0  0.73949419845E-01 -0.65647227391E-01 -0.89287370815E-01  0.89002826345E+00  0.88000000000E+00 0.  1.
        -11    1    4    4    0    0 -0.28722635921E-01  0.10293411572E-01  0.42626770272E-01  0.52423723646E-01  0.51100000000E-03 0. -1.
         11    1    4    4    0    0 -0.50450806733E-01  0.23631541377E-01  0.40156726714E-01  0.68677197593E-01  0.51100000000E-03 0.  1.
</event>
<event>
 8    1  0.1119901E+005  0.1043930E+01  0.7957747E-01            NaN
         13   -1    0    0    0    0  0.00000000000E+00  0.00000000000E+00  0.74505805969E-08  0.10566000000E+00  0.10566000000E+00 0. -1.
     999900   -1    0    0    0    0 -0.00000000000E+00 -0.00000000000E+00 -0.74505805969E-08  0.93827000000E+00  0.93827000000E+00 0.  1.
     999902    2    1    2    0    0 -0.16027156399E-01  0.11859272206E-01 -0.17259190682E-01  0.10175597186E+01  0.10172179654E+01 0.  0.
     999903    2    3    3    0    0  0.11779607684E+00  0.26618950601E-01  0.29857673758E-01  0.12607415796E+00  0.20462853520E-01 0.  0.
         14    1    1    2    0    0  0.16027156399E-01 -0.11859272206E-01  0.17259190682E-01  0.26370281426E-01  0.00000000000E+00 0.  1.
     999901    1    3    3    0    0 -0.13382323324E+00 -0.14759678395E-01 -0.47116864440E-01  0.89148556061E+00  0.88000000000E+00 0.  1.
        -11    1    4    4    0    0  0.37232973736E-01  0.18416177337E-02  0.16351535677E-01  0.40710191956E-01  0.51100000000E-03 0.  1.
         11    1    4    4    0    0  0.80563103104E-01  0.24777332867E-01  0.13506138080E-01  0.85363966008E-01  0.51100000000E-03 0. -1.
</event>
<event>
 8    1  0.1119901E+005  0.1043930E+01  0.7957747E-01            NaN
         13   -1    0    0    0    0  0.00000000000E+00  0.00000000000E+00  0.74505805969E-08  0.10566000000E+00  0.10566000000E+00 0. -1.
     999900   -1    0    0    0    0 -0.00000000000E+00 -0.00000000000E+00 -0.74505805969E-08  0.93827000000E+00  0.93827000000E+00 0.  1.
     999902    2    1    2    0    0  0.34275192238E-02 -0.16211548520E-01 -0.18130016617E-01  0.10193686544E+01  0.10190727128E+01 0.  0.
     999903    2    3    3    0    0 -0.11320318616E+00 -0.57413062943E-01  0.18032540691E-01  0.12998233973E+00  0.21424634552E-01 0.  0.
         14    1    1    2    0    0 -0.34275192238E-02  0.16211548520E-01  0.18130016617E-01  0.24561345565E-01  0.00000000000E+00 0. -1.
     999901    1    3    3    0    0  0.11663070538E+00  0.41201514423E-01 -0.36162557309E-01  0.88938631470E+00  0.88000000000E+00 0. -1.
        -11    1    4    4    0    0 -0.70356074260E-01 -0.37667340884E-01  0.97394913512E-03  0.79812376562E-01  0.51100000000E-03 0.  1.
         11    1    4    4    0    0 -0.42847111898E-01 -0.19745722059E-01  0.17058591556E-01  0.50169963170E-01  0.51100000000E-03 0. -1.
</event>
<event>
 8    1  0.1119901E+005  0.1043930E+01  0.7957747E-01            NaN
         13   -1    0    0    0    0  0.00000000000E+00  0.00000000000E+00  0.74505805969E-08  0.10566000000E+00  0.10566000000E+00 0.  1.
     999900   -1    0    0    0    0 -0.00000000000E+00 -0.00000000000E+00 -0.74505805969E-08  0.93827000000E+00  0.93827000000E+00 0.  1.
     999902    2    1    2    0    0 -0.83445502580E-02 -0.16043451330E-01  0.15455969385E-01  0.10201411194E+01  0.10198637128E+01 0.  0.
     999903    2    3    3    0    0  0.61443515765E-01  0.24806672550E-01  0.11133972931E+00  0.13124697376E+00  0.20941732582E-01 0.  0.
         14    1    1    2    0    0  0.83445502580E-02  0.16043451330E-01 -0.15455969385E-01  0.23788880579E-01  0.00000000000E+00 0. -1.
     999901    1    3    3    0    0 -0.69788066023E-01 -0.40850123880E-01 -0.95883759929E-01  0.88889414567E+00  0.88000000000E+00 0.  1.
        -11    1    4    4    0    0  0.37659938687E-01  0.65651888480E-02  0.49694136704E-01  0.62698812032E-01  0.51100000000E-03 0.  1.
         11    1    4    4    0    0  0.23783577078E-01  0.18241483702E-01  0.61645592611E-01  0.68548161723E-01  0.51100000000E-03 0. -1.
</event>
<event>
 8    1  0.1119901E+005  0.1043930E+01  0.7957747E-01            NaN
         13   -1    0    0    0    0  0.00000000000E+00  0.00000000000E+00  0.74505805969E-08  0.10566000000E+00  0.10566000000E+00 0. -1.
     999900   -1    0    0    0    0 -0.00000000000E+00 -0.00000000000E+00 -0.74505805969E-08  0.93827000000E+00  0.93827000000E+00 0. -1.
     999902    2    1    2    0    0 -0.11026248893E-01  0.18809439824E-01 -0.13165513580E-01  0.10184603330E+01  0.10181418103E+01 0.  0.
     999903    2    3    3    0    0  0.23181516731E-01 -0.10754353301E+00  0.57967489788E-01  0.12593854099E+00  0.19932185667E-01 0.  0.
         14    1    1    2    0    0  0.11026248893E-01 -0.18809439824E-01  0.13165513580E-01  0.25469667037E-01  0.00000000000E+00 0. -1.
     999901    1    3    3    0    0 -0.34207765624E-01  0.12635297283E+00 -0.71133003368E-01  0.89252179197E+00  0.88000000000E+00 0. -1.
        -11    1    4    4    0    0  0.43011534838E-02 -0.36297858307E-02  0.43259421777E-03  0.56677619238E-02  0.51100000000E-03 0. -1.
         11    1    4    4    0    0  0.18880363247E-01 -0.10391374718E+00  0.57534895570E-01  0.12027077907E+00  0.51100000000E-03 0.  1.
</event>
<event>
 8    1  0.1119901E+005  0.1043930E+01  0.7957747E-01            NaN
         13   -1    0    0    0    0  0.00000000000E+00  0.00000000000E+00  0.74505805969E-08  0.10566000000E+00  0.10566000000E+00 0. -1.
     999900   -1    0    0    0    0 -0.00000000000E+00 -0.00000000000E+00 -0.74505805969E-08  0.93827000000E+00  0.93827000000E+00 0. -1.
     999902    2    1    2    0    0 -0.36299266759E-02 -0.41164419565E-02 -0.22876341428E-01  0.10204045147E+01  0.10201332879E+01 0.  0.
     999903    2    3    3    0    0 -0.14574705085E-01  0.11494148562E+00  0.53191531793E-01  0.12906793425E+00  0.20130212428E-01 0.  0.
         14    1    1    2    0    0  0.36299266759E-02  0.41164419565E-02  0.22876341428E-01  0.23525485313E-01  0.00000000000E+00 0. -1.
     999901    1    3    3    0    0  0.10944778409E-01 -0.11905792757E+00 -0.76067873221E-01  0.89133658044E+00  0.88000000000E+00 0.  1.
        -11    1    4    4    0    0 -0.69672111831E-02  0.78979928559E-01  0.45818295477E-01  0.91574824424E-01  0.51100000000E-03 0. -1.
         11    1    4    4    0    0 -0.76074939018E-02  0.35961557058E-01  0.73732363159E-02  0.37493109824E-01  0.51100000000E-03 0.  1.
</event>
<event>
 8    1  0.1119901E+005  0.1043930E+01  0.7957747E-01            NaN
         13   -1    0    0    0    0  0.00000000000E+00  0.00000000000E+00  0.74505805969E-08  0.10566000000E+00  0.10566000000E+00 0. -1.
     999900   -1    0    0    0    0 -0.00000000000E+00 -0.00000000000E+00 -0.74505805969E-08  0.93827000000E+00  0.93827000000E+00 0.  1.
     999902    2    1    2    0    0  0.17809624314E-01 -0.14041515748E-01 -0.11576980510E-01  0.10184668234E+01  0.10181484652E+01 0.  0.
     999903    2    3    3    0    0 -0.76744030690E-01  0.57155391655E-01 -0.82232629911E-01  0.12773587973E+00  0.19946541200E-01 0.  0.
         14    1    1    2    0    0 -0.17809624314E-01  0.14041515748E-01  0.11576980510E-01  0.25463176558E-01  0.00000000000E+00 0. -1.
     999901    1    3    3    0    0  0.94553655004E-01 -0.71196907403E-01  0.70655649401E-01  0.89073094371E+00  0.88000000000E+00 0. -1.
        -11    1    4    4    0    0 -0.45718734675E-01  0.35318720210E-01 -0.61960040293E-01  0.84716718608E-01  0.51100000000E-03 0.  1.
         11    1    4    4    0    0 -0.31025296015E-01  0.21836671445E-01 -0.20272589618E-01  0.43019161120E-01  0.51100000000E-03 0. -1.
</event>
<event>
 8    1  0.1119901E+005  0.1043930E+01  0.7957747E-01            NaN
         13   -1    0    0    0    0  0.00000000000E+00  0.00000000000E+00  0.74505805969E-08  0.10566000000E+00  0.10566000000E+00 0.  1.
     999900   -1    0    0    0    0 -0.00000000000E+00 -0.00000000000E+00 -0.74505805969E-08  0.93827000000E+00  0.93827000000E+00 0. -1.
     999902    2    1    2    0    0 -0.43762896025E-02 -0.18994738097E-01  0.84500582043E-02  0.10226848719E+01  0.10224641762E+01 0.  0.
     999903    2    3    3    0    0  0.63937353630E-01  0.14470980716E-01  0.11409782864E+00  0.13310735439E+00  0.20046416651E-01 0.  0.
         14    1    1    2    0    0  0.43762896025E-02  0.18994738097E-01 -0.84500582043E-02  0.21245128141E-01  0.00000000000E+00 0. -1.
     999901    1    3    3    0    0 -0.68313643232E-01 -0.33465718813E-01 -0.10564777044E+00  0.88957751747E+00  0.88000000000E+00 0. -1.
        -11    1    4    4    0    0  0.39065310692E-02 -0.29423198069E-02  0.16426558383E-01  0.17146753983E-01  0.51100000000E-03 0.  1.
         11    1    4    4    0    0  0.60030822560E-01  0.17413300522E-01  0.97671270257E-01  0.11596060041E+00  0.51100000000E-03 0. -1.
</event>
<event>
 8    1  0.1119901E+005  0.1043930E+01  0.7957747E-01            NaN
         13   -1    0    0    0    0  0.00000000000E+00  0.00000000000E+00  0.74505805969E-08  0.10566000000E+00  0.10566000000E+00 0. -1.
     999900   -1    0    0    0    0 -0.00000000000E+00 -0.00000000000E+00 -0.74505805969E-08  0.93827000000E+00  0.93827000000E+00 0.  1.
     999902    2    1    2    0    0  0.62613709054E-02 -0.19168536484E-01  0.94714055988E-02  0.10216511966E+01  0.10214082545E+01 0.  0.
     999903    2    3    3    0    0 -0.11355762016E+00  0.52026594154E-01  0.21662191366E-01  0.13059903624E+00  0.31380856195E-01 0.  0.
         14    1    1    2    0    0 -0.62613709054E-02  0.19168536484E-01 -0.94714055988E-02  0.22278803392E-01  0.00000000000E+00 0. -1.
     999901    1    3    3    0    0  0.11981899106E+00 -0.71195130638E-01 -0.12190785767E-01  0.89105216037E+00  0.88000000000E+00 0. -1.
        -11    1    4    4    0    0 -0.74017911347E-01  0.18376260390E-01  0.19053090845E-01  0.78610556148E-01  0.51100000000E-03 0. -1.
         11    1    4    4    0    0 -0.39539708813E-01  0.33650333764E-01  0.26091005205E-02  0.51988480089E-01  0.51100000000E-03 0.  1.
</event>
<event>
 7    1  0.1435385E+005  0.1043930E+01  0.7957747E-01            NaN
         13   -1    0    0    0    0  0.00000000000E+00  0.00000000000E+00  0.74505805969E-08  0.10566000000E+00  0.10566000000E+00 0. -1.
     999900   -1    0    0    0    0 -0.00000000000E+00 -0.00000000000E+00 -0.74505805969E-08  0.93827000000E+00  0.93827000000E+00 0. -1.
     999903    2    1    2    0    0 -0.33083309270E-02  0.97825266004E-01  0.79047986451E-02  0.99886499838E-01  0.18278383028E-01 0.  0.
         14    1    1    2    0    0  0.26700197229E-01  0.44721743504E-01 -0.42464063016E-02  0.52258653260E-01  0.00000000000E+00 0. -1.
     999901    1    1    2    0    0 -0.23391866302E-01 -0.14254700951E+00 -0.36583923435E-02  0.89178484690E+00  0.88000000000E+00 0.  1.
        -11    1    3    3    0    0 -0.88808984489E-02  0.41859415122E-01  0.85400375640E-02  0.43637992096E-01  0.51100000000E-03 0.  1.
         11    1    3    3    0    0  0.55725675220E-02  0.55965850882E-01 -0.63523891886E-03  0.56248507742E-01  0.51100000000E-03 0. -1.
</event>
<event>
 8    1  0.1119901E+005  0.1043930E+01  0.7957747E-01            NaN
         13   -1    0    0    0    0  0.00000000000E+00  0.00000000000E+00  0.74505805969E-08  0.10566000000E+00  0.10566000000E+00 0. -1.
     999900   -1    0    0    0    0 -0.00000000000E+00 -0.00000000000E+00 -0.74505805969E-08  0.93827000000E+00  0.93827000000E+00 0. -1.
     999902    2    1    2    0    0 -0.20841657039E-01  0.67236410297E-02  0.10996714577E-01  0.10194246996E+01  0.10191301234E+01 0.  0.
     999903    2    3    3    0    0  0.62902518017E-01  0.83080064358E-01 -0.72030383190E-01  0.12828111452E+00  0.20214954221E-01 0.  0.
         14    1    1    2    0    0  0.20841657039E-01 -0.67236410297E-02 -0.10996714577E-01  0.24505300413E-01  0.00000000000E+00 0.  1.
     999901    1    3    3    0    0 -0.83744175056E-01 -0.76356423328E-01  0.83027097766E-01  0.89114358507E+00  0.88000000000E+00 0.  1.
        -11    1    4    4    0    0  0.13135125463E-01  0.32310556866E-01 -0.20323024725E-01  0.40370658416E-01  0.51100000000E-03 0. -1.
         11    1    4    4    0    0  0.49767392553E-01  0.50769507491E-01 -0.51707358465E-01  0.87910456106E-01  0.51100000000E-03 0.  1.
</event>
<event>
 8    1  0.1119901E+005  0.1043930E+01  0.7957747E-01            NaN
         13   -1    0    0    0    0  0.00000000000E+00  0.00000000000E+00  0.74505805969E-08  0.10566000000E+00  0.10566000000E+00 0. -1.
     999900   -1    0    0    0    0 -0.00000000000E+00 -0.00000000000E+00 -0.74505805969E-08  0.93827000000E+00  0.93827000000E+00 0. -1.
     999902    2    1    2    0    0  0.13937709875E-02 -0.85731233130E-02  0.23616463816E-01  0.10187669635E+01  0.10184561589E+01 0.  0.
     999903    2    3    3    0    0 -0.29221190997E-01  0.12288951970E+00 -0.20160542138E-02  0.12810612551E+00  0.21246243529E-01 0.  0.
         14    1    1    2    0    0 -0.13937709875E-02  0.85731233130E-02 -0.23616463816E-01  0.25163036464E-01  0.00000000000E+00 0.  1.
     999901    1    3    3    0    0  0.30614961985E-01 -0.13146264301E+00  0.25632518030E-01  0.89066083802E+00  0.88000000000E+00 0.  1.
        -11    1    4    4    0    0 -0.17561427845E-01  0.75080893604E-01  0.91283656688E-02  0.77647488775E-01  0.51100000000E-03 0. -1.
         11    1    4    4    0    0 -0.11659763152E-01  0.47808626097E-01 -0.11144419883E-01  0.50458636739E-01  0.51100000000E-03 0.  1.
</event>
<event>
 8    1  0.1119901E+005  0.1043930E+01  0.7957747E-01            NaN
         13   -1    0    0    0    0  0.00000000000E+00  0.00000000000E+00  0.74505805969E-08  0.10566000000E+00  0.10566000000E+00 0. -1.
     999900   -1    0    0    0    0 -0.00000000000E+00 -0.00000000000E+00 -0.74505805969E-08  0.93827000000E+00  0.93827000000E+00 0.  1.
     999902    2    1    2    0    0 -0.18575802766E-01 -0.14480933980E-01  0.88693509241E-03  0.10203600074E+01  0.10200877414E+01 0.  0.
     999903    2    3    3    0    0 -0.59247589481E-02 -0.17799829768E-01  0.12773696504E+00  0.13116824289E+00  0.23161152763E-01 0.  0.
         14    1    1    2    0    0  0.18575802766E-01  0.14480933980E-01 -0.88693509241E-03  0.23569992600E-01  0.00000000000E+00 0. -1.
     999901    1    3    3    0    0 -0.12651043818E-01  0.33188957880E-02 -0.12685002994E+00  0.88919176451E+00  0.88000000000E+00 0.  1.
        -11    1    4    4    0    0 -0.34832791080E-02 -0.18550761565E-01  0.50936098338E-01  0.54323210720E-01  0.51100000000E-03 0.  1.
         11    1    4    4    0    0 -0.24414798402E-02  0.75093179752E-03  0.76800866698E-01  0.76845032168E-01  0.51100000000E-03 0. -1.
</event>
<event>
 8    1  0.1119901E+005  0.1043930E+01  0.7957747E-01            NaN
         13   -1    0    0    0    0  0.00000000000E+00  0.00000000000E+00  0.74505805969E-08  0.10566000000E+00  0.10566000000E+00 0. -1.
     999900   -1    0    0    0    0 -0.00000000000E+00 -0.00000000000E+00 -0.74505805969E-08  0.93827000000E+00  0.93827000000E+00 0. -1.
     999902    2    1    2    0    0 -0.17226618082E-01  0.40277886008E-02 -0.16350787170E-01  0.10198400085E+01  0.10195554498E+01 0.  0.
     999903    2    3    3    0    0  0.56267880325E-01 -0.10184586654E+00 -0.53335785328E-01  0.12968352657E+00  0.20843612440E-01 0.  0.
         14    1    1    2    0    0  0.17226618082E-01 -0.40277886008E-02  0.16350787170E-01  0.24089991545E-01  0.00000000000E+00 0. -1.
     999901    1    3    3    0    0 -0.73494498407E-01  0.10587365514E+00  0.36984998158E-01  0.89015648188E+00  0.88000000000E+00 0. -1.
        -11    1    4    4    0    0  0.33226968566E-01 -0.53368634619E-01 -0.17909373083E-01  0.65370095353E-01  0.51100000000E-03 0. -1.
         11    1    4    4    0    0  0.23040911758E-01 -0.48477231924E-01 -0.35426412245E-01  0.64313431219E-01  0.51100000000E-03 0.  1.
</event>
<event>
 8    1  0.1119901E+005  0.1043930E+01  0.7957747E-01            NaN
         13   -1    0    0    0    0  0.00000000000E+00  0.00000000000E+00  0.74505805969E-08  0.10566000000E+00  0.10566000000E+00 0.  1.
     999900   -1    0    0    0    0 -0.00000000000E+00 -0.00000000000E+00 -0.74505805969E-08  0.93827000000E+00  0.93827000000E+00 0. -1.
     999902    2    1    2    0    0 -0.22871771138E-01  0.52402538456E-02  0.66109317771E-02  0.10195520880E+01  0.10192606033E+01 0.  0.
     999903    2    3    3    0    0 -0.39932239902E-01 -0.93055475922E-01  0.80393973549E-01  0.13084682338E+00  0.20094646605E-01 0.  0.
         14    1    1    2    0    0  0.22871771138E-01 -0.52402538456E-02 -0.66109317771E-02  0.24377912017E-01  0.00000000000E+00 0.  1.
     999901    1    3    3    0    0  0.17060468764E-01  0.98295729767E-01 -0.73783041772E-01  0.88870526461E+00  0.88000000000E+00 0.  1.
        -11    1    4    4    0    0 -0.23667982071E-01 -0.66595422711E-01  0.45154339157E-01  0.83870728905E-01  0.51100000000E-03 0. -1.
         11    1    4    4    0    0 -0.16264257831E-01 -0.26460053211E-01  0.35239634392E-01  0.46976094472E-01  0.51100000000E-03 0.  1.
</event>
<event>
 8    1  0.1119901E+005  0.1043930E+01  0.7957747E-01            NaN
         13   -1    0    0    0    0  0.00000000000E+00  0.00000000000E+00  0.74505805969E-08  0.10566000000E+00  0.10566000000E+00 0. -1.
     999900   -1    0    0    0    0 -0.00000000000E+00 -0.00000000000E+00 -0.74505805969E-08  0.93827000000E+00  0.93827000000E+00 0.  1.
     999902    2    1    2    0    0  0.12267395345E-01 -0.20192977271E-01 -0.51575021538E-02  0.10197464281E+01  0.10194596277E+01 0.  0.
     999903    2    3    3    0    0  0.58743283622E-02  0.12374382417E+00 -0.24822148214E-01  0.12781292590E+00  0.19312255989E-01 0.  0.
         14    1    1    2    0    0 -0.12267395345E-01  0.20192977271E-01  0.51575021538E-02  0.24183571864E-01  0.00000000000E+00 0. -1.
     999901    1    3    3    0    0  0.63930669830E-02 -0.14393680144E+00  0.19664646060E-01  0.89193350224E+00  0.88000000000E+00 0. -1.
        -11    1    4    4    0    0  0.12161051603E-01  0.55803735970E-01 -0.98854362358E-02  0.57964912619E-01  0.51100000000E-03 0.  1.
         11    1    4    4    0    0 -0.62867232407E-02  0.67940088196E-01 -0.14936711978E-01  0.69848013278E-01  0.51100000000E-03 0. -1.
</event>
<event>
 8    1  0.1119901E+005  0.1043930E+01  0.7957747E-01            NaN
         13   -1    0    0    0    0  0.00000000000E+00  0.00000000000E+00  0.74505805969E-08  0.10566000000E+00  0.10566000000E+00 0.  1.
     999900   -1    0    0    0    0 -0.00000000000E+00 -0.00000000000E+00 -0.74505805969E-08  0.93827000000E+00  0.93827000000E+00 0.  1.
     999902    2    1    2    0    0 -0.59732325412E-02  0.93574753366E-02  0.20303440052E-01  0.10207897422E+01  0.10205274256E+01 0.  0.
     999903    2    3    3    0    0 -0.12317690918E-02  0.75706223091E-01 -0.10331921331E+00  0.12966281624E+00  0.20115581196E-01 0.  0.
         14    1    1    2    0    0  0.59732325412E-02 -0.93574753366E-02 -0.20303440052E-01  0.23140257769E-01  0.00000000000E+00 0. -1.
     999901    1    3    3    0    0 -0.47414634494E-02 -0.66348747755E-01  0.12362265336E+00  0.89112692599E+00  0.88000000000E+00 0. -1.
        -11    1    4    4    0    0 -0.72747954486E-02  0.55026889874E-01 -0.63148299514E-01  0.84076453961E-01  0.51100000000E-03 0. -1.
         11    1    4    4    0    0  0.60430263568E-02  0.20679333217E-01 -0.40170913793E-01  0.45586362279E-01  0.51100000000E-03 0.  1.
</event>
<event>
 8    1  0.1119901E+005  0.1043930E+01  0.7957747E-01            NaN
         13   -1    0    0    0    0  0.00000000000E+00  0.00000000000E+00  0.74505805969E-08  0.10566000000E+00  0.10566000000E+00 0.  1.
     999900   -1    0    0    0    0 -0.00000000000E+00 -0.00000000000E+00 -0.74505805969E-08  0.93827000000E+00  0.93827000000E+00 0.  1.
     999902    2    1    2    0    0 -0.21928146960E-02  0.58936760402E-02 -0.23134963310E-01  0.10199556308E+01  0.10196738294E+01 0.  0.
     999903    2    3    3    0    0 -0.12506478968E+00  0.17335331398E-01  0.24073389659E-01  0.13009212307E+00  0.20067811618E-01 0.  0.
         14    1    1    2    0    0  0.21928146960E-02 -0.58936760402E-02  0.23134963310E-01  0.23974369250E-01  0.00000000000E+00 0.  1.
     999901    1    3    3    0    0  0.12287197498E+00 -0.11441655358E-01 -0.47208352968E-01  0.88986350768E+00  0.88000000000E+00 0.  1.
        -11    1    4    4    0    0 -0.11349020431E+00  0.20779463263E-01  0.18777850690E-01  0.11689602801E+00  0.51100000000E-03 0.  1.
         11    1    4    4    0    0 -0.11574585367E-01 -0.34441318653E-02  0.52955389688E-02  0.13196095054E-01  0.51100000000E-03 0. -1.
</event>
<event>
 8    1  0.1119901E+005  0.1043930E+01  0.7957747E-01            NaN
         13   -1    0    0    0    0  0.00000000000E+00  0.00000000000E+00  0.74505805969E-08  0.10566000000E+00  0.10566000000E+00 0. -1.
     999900   -1    0    0    0    0 -0.00000000000E+00 -0.00000000000E+00 -0.74505805969E-08  0.93827000000E+00  0.93827000000E+00 0. -1.
     999902    2    1    2    0    0  0.48412893909E-02 -0.15958731384E-01 -0.20042879822E-01  0.10178563309E+01  0.10175223212E+01 0.  0.
     999903    2    3    3    0    0  0.19156592172E-01  0.81809547664E-01 -0.95251383938E-01  0.12913821843E+00  0.23325441161E-01 0.  0.
         14    1    1    2    0    0 -0.48412893909E-02  0.15958731384E-01  0.20042879822E-01  0.26073669130E-01  0.00000000000E+00 0. -1.
     999901    1    3    3    0    0 -0.14315302781E-01 -0.97768279048E-01  0.75208504117E-01  0.88871811244E+00  0.88000000000E+00 0.  1.
        -11    1    4    4    0    0  0.64778363594E-02  0.48644674649E-01 -0.39313871406E-01  0.62881701166E-01  0.51100000000E-03 0. -1.
         11    1    4    4    0    0  0.12678755813E-01  0.33164873014E-01 -0.55937512533E-01  0.66256517267E-01  0.51100000000E-03 0.  1.
</event>
<event>
 8    1  0.1119901E+005  0.1043930E+01  0.7957747E-01            NaN
         13   -1    0    0    0    0  0.00000000000E+00  0.00000000000E+00  0.74505805969E-08  0.10566000000E+00  0.10566000000E+00 0.  1.
     999900   -1    0    0    0    0 -0.00000000000E+00 -0.00000000000E+00 -0.74505805969E-08  0.93827000000E+00  0.93827000000E+00 0. -1.
     999902    2    1    2    0    0  0.12867712860E-01 -0.11487772413E-01  0.16872136956E-01  0.10198008484E+01  0.10195153528E+01 0.  0.
     999903    2    3    3    0    0 -0.11949621469E+00 -0.15451822257E-01 -0.38545281677E-01  0.12816919059E+00  0.20579080125E-01 0.  0.
         14    1    1    2    0    0 -0.12867712860E-01  0.11487772413E-01 -0.16872136956E-01  0.24129151554E-01  0.00000000000E+00 0. -1.
     999901    1    3    3    0    0  0.13236392755E+00  0.39640498443E-02  0.55417418632E-01  0.89163165786E+00  0.88000000000E+00 0.  1.
        -11    1    4    4    0    0 -0.50518103620E-01 -0.16791364783E-01 -0.17351321756E-01  0.55994269460E-01  0.51100000000E-03 0. -1.
         11    1    4    4    0    0 -0.68978111075E-01  0.13395425263E-02 -0.21193959921E-01  0.72174921128E-01  0.51100000000E-03 0.  1.
</event>
<event>
 8    1  0.1119901E+005  0.1043930E+01  0.7957747E-01            NaN
         13   -1    0    0    0    0  0.00000000000E+00  0.00000000000E+00  0.74505805969E-08  0.10566000000E+00  0.10566000000E+00 0.  1.
     999900   -1    0    0    0    0 -0.00000000000E+00 -0.00000000000E+00 -0.74505805969E-08  0.93827000000E+00  0.93827000000E+00 0.  1.
     999902    2    1    2    0    0  0.22453460193E-01 -0.79797820592E-03  0.79940593249E-02  0.10200825761E+01  0.10198037862E+01 0.  0.
     999903    2    3    3    0    0  0.81693848366E-01 -0.93558577445E-01  0.41871478617E-01  0.13257954401E+00  0.19925423332E-01 0.  0.
         14    1    1    2    0    0 -0.22453460193E-01  0.79797820592E-03 -0.79940593249E-02  0.23847423935E-01  0.00000000000E+00 0. -1.
     999901    1    3    3    0    0 -0.59240388173E-01  0.92760599239E-01 -0.33877419292E-01  0.88750303205E+00  0.88000000000E+00 0.  1.
        -11    1    4    4    0    0  0.24195479555E-01 -0.16064588902E-01  0.13256033960E-01  0.31929231197E-01  0.51100000000E-03 0. -1.
         11    1    4    4    0    0  0.57498368811E-01 -0.77493988542E-01  0.28615444657E-01  0.10065031282E+00  0.51100000000E-03 0.  1.
</event>
<event>
 8    1  0.1119901E+005  0.1043930E+01  0.7957747E-01            NaN
         13   -1    0    0    0    0  0.00000000000E+00  0.00000000000E+00  0.74505805969E-08  0.10566000000E+00  0.10566000000E+00 0. -1.
     999900   -1    0    0    0    0 -0.00000000000E+00 -0.00000000000E+00 -0.74505805969E-08  0.93827000000E+00  0.93827000000E+00 0. -1.
     999902    2    1    2    0    0  0.21312803239E-01  0.72684570679E-02  0.81639981025E-02  0.10199776115E+01  0.10196963328E+01 0.  0.
     999903    2    3    3    0    0 -0.56053418060E-01  0.11458225225E+00  0.15770081704E-01  0.13005647154E+00  0.19872395588E-01 0.  0.
         14    1    1    2    0    0 -0.21312803239E-01 -0.72684570679E-02 -0.81639981025E-02  0.23952388504E-01  0.00000000000E+00 0.  1.
     999901    1    3    3    0    0  0.77366221299E-01 -0.10731379518E+00 -0.76060836013E-02  0.88992113996E+00  0.88000000000E+00 0. -1.
        -11    1    4    4    0    0 -0.53664046047E-01  0.10287490697E+00  0.19212106933E-01  0.11761140462E+00  0.51100000000E-03 0. -1.
         11    1    4    4    0    0 -0.23893720133E-02  0.11707345278E-01 -0.34420252289E-02  0.12445066924E-01  0.51100000000E-03 0.  1.
</event>
<event>
 8    1  0.1119901E+005  0.1043930E+01  0.7957747E-01            NaN
         13   -1    0    0    0    0  0.00000000000E+00  0.00000000000E+00  0.74505805969E-08  0.10566000000E+00  0.10566000000E+00 0. -1.
     999900   -1    0    0    0    0 -0.00000000000E+00 -0.00000000000E+00 -0.74505805969E-08  0.93827000000E+00  0.93827000000E+00 0. -1.
     999902    2    1    2    0    0  0.84677504961E-02 -0.83697395698E-02  0.20678232041E-01  0.10200690566E+01  0.10197899468E+01 0.  0.
     999903    2    3    3    0    0  0.69842320820E-01  0.10348504329E+00  0.33610058107E-01  0.13077407605E+00  0.19624449009E-01 0.  0.
         14    1    1    2    0    0 -0.84677504961E-02  0.83697395698E-02 -0.20678232041E-01  0.23860943386E-01  0.00000000000E+00 0.  1.
     999901    1    3    3    0    0 -0.61374570324E-01 -0.11185478286E+00 -0.12931826066E-01  0.88929498056E+00  0.88000000000E+00 0.  1.
        -11    1    4    4    0    0  0.16319672684E-01  0.25987756796E-01  0.17162462976E-01  0.35163994031E-01  0.51100000000E-03 0.  1.
         11    1    4    4    0    0  0.53522648136E-01  0.77497286492E-01  0.16447595131E-01  0.95610082019E-01  0.51100000000E-03 0. -1.
</event>
<event>
 8    1  0.1119901E+005  0.1043930E+01  0.7957747E-01            NaN
         13   -1    0    0    0    0  0.00000000000E+00  0.00000000000E+00  0.74505805969E-08  0.10566000000E+00  0.10566000000E+00 0. -1.
     999900   -1    0    0    0    0 -0.00000000000E+00 -0.00000000000E+00 -0.74505805969E-08  0.93827000000E+00  0.93827000000E+00 0.  1.
     999902    2    1    2    0    0  0.15176836862E-01 -0.96819018087E-02 -0.17240048805E-01  0.10190042125E+01  0.10186993130E+01 0.  0.
     999903    2    3    3    0    0 -0.95627436233E-01  0.36827083200E-01 -0.75693999251E-01  0.12891571300E+00  0.19718998892E-01 0.  0.
         14    1    1    2    0    0 -0.15176836862E-01  0.96819018087E-02  0.17240048805E-01  0.24925787502E-01  0.00000000000E+00 0. -1.
     999901    1    3    3    0    0  0.11080427310E+00 -0.46508985008E-01  0.58453950446E-01  0.89008849950E+00  0.88000000000E+00 0.  1.
        -11    1    4    4    0    0 -0.41666112193E-01  0.21958205935E-01 -0.44688893464E-01  0.64927544488E-01  0.51100000000E-03 0.  1.
         11    1    4    4    0    0 -0.53961324040E-01  0.14868877265E-01 -0.31005105787E-01  0.63988168509E-01  0.51100000000E-03 0. -1.
</event>
<event>
 8    1  0.1119901E+005  0.1043930E+01  0.7957747E-01            NaN
         13   -1    0    0    0    0  0.00000000000E+00  0.00000000000E+00  0.74505805969E-08  0.10566000000E+00  0.10566000000E+00 0. -1.
     999900   -1    0    0    0    0 -0.00000000000E+00 -0.00000000000E+00 -0.74505805969E-08  0.93827000000E+00  0.93827000000E+00 0. -1.
     999902    2    1    2    0    0 -0.40022119114E-02  0.20822983077E-01  0.11539151217E-01  0.10197894463E+01  0.10195036775E+01 0.  0.
     999903    2    3    3    0    0 -0.12912859060E+00  0.12606125762E-02  0.15165882800E-03  0.13064999039E+00  0.19839731194E-01 0.  0.
         14    1    1    2    0    0  0.40022119114E-02 -0.20822983077E-01 -0.11539151217E-01  0.24140553747E-01  0.00000000000E+00 0.  1.
     999901    1    3    3    0    0  0.12512637869E+00  0.19562370501E-01  0.11387492389E-01  0.88913945586E+00  0.88000000000E+00 0.  1.
        -11    1    4    4    0    0 -0.10773372512E+00  0.64672463078E-02 -0.49474817380E-02  0.10804221166E+00  0.51100000000E-03 0. -1.
         11    1    4    4    0    0 -0.21394865483E-01 -0.52066337316E-02  0.50991405660E-02  0.22607778736E-01  0.51100000000E-03 0.  1.
</event>
<event>
 8    1  0.1119901E+005  0.1043930E+01  0.7957747E-01            NaN
         13   -1    0    0    0    0  0.00000000000E+00  0.00000000000E+00  0.74505805969E-08  0.10566000000E+00  0.10566000000E+00 0. -1.
     999900   -1    0    0    0    0 -0.00000000000E+00 -0.00000000000E+00 -0.74505805969E-08  0.93827000000E+00  0.93827000000E+00 0. -1.
     999902    2    1    2    0    0 -0.16243207425E-01 -0.59593960374E-02 -0.16598510657E-01  0.10199536211E+01  0.10196717719E+01 0.  0.
     999903    2    3    3    0    0 -0.12523092022E+00  0.36659978016E-01  0.34073436307E-02  0.13198123033E+00  0.19511478724E-01 0.  0.
         14    1    1    2    0    0  0.16243207425E-01  0.59593960374E-02  0.16598510657E-01  0.23976378888E-01  0.00000000000E+00 0. -1.
     999901    1    3    3    0    0  0.10898771279E+00 -0.42619374053E-01 -0.20005854288E-01  0.88797239078E+00  0.88000000000E+00 0. -1.
        -11    1    4    4    0    0 -0.24590406350E-01  0.93391661239E-02  0.82855702507E-02  0.27582964012E-01  0.51100000000E-03 0. -1.
         11    1    4    4    0    0 -0.10064051387E+00  0.27320811892E-01 -0.48782266199E-02  0.10439826632E+00  0.51100000000E-03 0.  1.
</event>
<event>
 8    1  0.1119901E+005  0.1043930E+01  0.7957747E-01            NaN
         13   -1    0    0    0    0  0.00000000000E+00  0.00000000000E+00  0.74505805969E-08  0.10566000000E+00  0.10566000000E+00 0.  1.
     999900   -1    0    0    0    0 -0.00000000000E+00 -0.00000000000E+00 -0.74505805969E-08  0.93827000000E+00  0.93827000000E+00 0. -1.
     999902    2    1    2    0    0  0.22497479272E-01  0.61240888345E-02 -0.88360941422E-02  0.10189957345E+01  0.10186906249E+01 0.  0.
     999903    2    3    3    0    0 -0.23361562542E-01  0.10891449359E+00 -0.64201353607E-01  0.13010078512E+00  0.19906555875E-01 0.  0.
         14    1    1    2    0    0 -0.22497479272E-01 -0.61240888345E-02  0.88360941422E-02  0.24934265527E-01  0.00000000000E+00 0.  1.
     999901    1    3    3    0    0  0.45859041815E-01 -0.10279040475E+00  0.55365259465E-01  0.88889494935E+00  0.88000000000E+00 0.  1.
        -11    1    4    4    0    0  0.14003014714E-02  0.37875269800E-01 -0.22640864582E-01  0.44151633907E-01  0.51100000000E-03 0.  1.
         11    1    4    4    0    0 -0.24761864014E-01  0.71039223787E-01 -0.41560489024E-01  0.85949151216E-01  0.51100000000E-03 0. -1.
</event>
<event>
 8    1  0.1119901E+005  0.1043930E+01  0.7957747E-01            NaN
         13   -1    0    0    0    0  0.00000000000E+00  0.00000000000E+00  0.74505805969E-08  0.10566000000E+00  0.10566000000E+00 0. -1.
     999900   -1    0    0    0    0 -0.00000000000E+00 -0.00000000000E+00 -0.74505805969E-08  0.93827000000E+00  0.93827000000E+00 0. -1.
     999902    2    1    2    0    0  0.93030539629E-02 -0.11919529897E-01 -0.19129572450E-01  0.10195463467E+01  0.10192547231E+01 0.  0.
     999903    2    3    3    0    0 -0.94821723866E-01  0.42377366999E-01 -0.75422450751E-01  0.12996273033E+00  0.20365771453E-01 0.  0.
         14    1    1    2    0    0 -0.93030539629E-02  0.11919529897E-01  0.19129572450E-01  0.24383653298E-01  0.00000000000E+00 0. -1.
     999901    1    3    3    0    0  0.10412477783E+00 -0.54296896896E-01  0.56292878301E-01  0.88958361637E+00  0.88000000000E+00 0. -1.
        -11    1    4    4    0    0 -0.60286867832E-01  0.24156920831E-01 -0.58475367568E-01  0.87393895612E-01  0.51100000000E-03 0.  1.
         11    1    4    4    0    0 -0.34534856034E-01  0.18220446168E-01 -0.16947083183E-01  0.42568834719E-01  0.51100000000E-03 0. -1.
</event>
<event>
 8    1  0.1119901E+005  0.1043930E+01  0.7957747E-01            NaN
         13   -1    0    0    0    0  0.00000000000E+00  0.00000000000E+00  0.74505805969E-08  0.10566000000E+00  0.10566000000E+00 0. -1.
     999900   -1    0    0    0    0 -0.00000000000E+00 -0.00000000000E+00 -0.74505805969E-08  0.93827000000E+00  0.93827000000E+00 0. -1.
     999902    2    1    2    0    0 -0.10894823335E-01  0.52447618895E-02 -0.21030495034E-01  0.10196712609E+01  0.10193826533E+01 0.  0.
     999903    2    3    3    0    0 -0.11536516250E+00  0.23499138374E-01 -0.57566172889E-01  0.13255112820E+00  0.19864720078E-01 0.  0.
         14    1    1    2    0    0  0.10894823335E-01 -0.52447618895E-02  0.21030495034E-01  0.24258739130E-01  0.00000000000E+00 0. -1.
     999901    1    3    3    0    0  0.10447033917E+00 -0.18254376484E-01  0.36535677855E-01  0.88712013267E+00  0.88000000000E+00 0.  1.
        -11    1    4    4    0    0 -0.31677630827E-01  0.15136887834E-01 -0.20310381462E-01  0.40563165363E-01  0.51100000000E-03 0. -1.
         11    1    4    4    0    0 -0.83687531673E-01  0.83622505393E-02 -0.37255791427E-01  0.91987962840E-01  0.51100000000E-03 0.  1.
</event>
<event>
 8    1  0.1119901E+005  0.1043930E+01  0.7957747E-01            NaN
         13   -1    0    0    0    0  0.00000000000E+00  0.00000000000E+00  0.74505805969E-08  0.10566000000E+00  0.10566000000E+00 0.  1.
     999900   -1    0    0    0    0 -0.00000000000E+00 -0.00000000000E+00 -0.74505805969E-08  0.93827000000E+00  0.93827000000E+00 0. -1.
     999902    2    1    2    0    0 -0.73007457701E-03 -0.17992415300E-01  0.16727920139E-01  0.10193518933E+01  0.10190555427E+01 0.  0.
     999903    2    3    3    0    0  0.10753647089E+00 -0.71639602981E-01 -0.34921361926E-02  0.13086524945E+00  0.20425308088E-01 0.  0.
         14    1    1    2    0    0  0.73007457701E-03  0.17992415300E-01 -0.16727920139E-01  0.24578106709E-01  0.00000000000E+00 0. -1.
     999901    1    3    3    0    0 -0.10826654547E+00  0.53647187681E-01  0.20220056332E-01  0.88848664385E+00  0.88000000000E+00 0.  1.
        -11    1    4    4    0    0  0.47550755012E-01 -0.37107977072E-01 -0.10749232396E-01  0.61268943052E-01  0.51100000000E-03 0.  1.
         11    1    4    4    0    0  0.59985715878E-01 -0.34531625909E-01  0.72570962037E-02  0.69596306394E-01  0.51100000000E-03 0. -1.
</event>
<event>
 8    1  0.1119901E+005  0.1043930E+01  0.7957747E-01            NaN
         13   -1    0    0    0    0  0.00000000000E+00  0.00000000000E+00  0.74505805969E-08  0.10566000000E+00  0.10566000000E+00 0.  1.
     999900   -1    0    0    0    0 -0.00000000000E+00 -0.00000000000E+00 -0.74505805969E-08  0.93827000000E+00  0.93827000000E+00 0. -1.
     999902    2    1    2    0    0 -0.20351986061E-01  0.12263675598E-01 -0.59439502742E-03  0.10201612310E+01  0.10198842987E+01 0.  0.
     999903    2    3    3    0    0 -0.90214586561E-01  0.60898982058E-01 -0.73674996534E-01  0.13303838136E+00  0.20587572863E-01 0.  0.
         14    1    1    2    0    0  0.20351986061E-01 -0.12263675598E-01  0.59439502742E-03  0.23768769031E-01  0.00000000000E+00 0.  1.
     999901    1    3    3    0    0  0.69862600500E-01 -0.48635306460E-01  0.73080601506E-01  0.88712284961E+00  0.88000000000E+00 0.  1.
        -11    1    4    4    0    0 -0.67915572194E-02  0.12674045947E-01 -0.10573878173E-01  0.17855663269E-01  0.51100000000E-03 0. -1.
         11    1    4    4    0    0 -0.83423029342E-01  0.48224936110E-01 -0.63101118360E-01  0.11518271809E+00  0.51100000000E-03 0.  1.
</event>
<event>
 8    1  0.1119901E+005  0.1043930E+01  0.7957747E-01            NaN
         13   -1    0    0    0    0  0.00000000000E+00  0.00000000000E+00  0.74505805969E-08  0.10566000000E+00  0.10566000000E+00 0.  1.
     999900   -1    0    0    0    0 -0.00000000000E+00 -0.00000000000E+00 -0.74505805969E-08  0.93827000000E+00  0.93827000000E+00 0. -1.
     999902    2    1    2    0    0 -0.16479172351E-01 -0.48124809322E-02 -0.15978491687E-01  0.10204771688E+01  0.10202076341E+01 0.  0.
     999903    2    3    3    0    0  0.65974976837E-01  0.55366814832E-01 -0.96405532675E-01  0.13093304777E+00  0.20766668368E-01 0.  0.
         14    1    1    2    0    0  0.16479172351E-01  0.48124809322E-02  0.15978491687E-01  0.23452831187E-01  0.00000000000E+00 0.  1.
     999901    1    3    3    0    0 -0.82454149188E-01 -0.60179295765E-01  0.80427040988E-01  0.88954412104E+00  0.88000000000E+00 0.  1.
        -11    1    4    4    0    0  0.37127954362E-01  0.18632493198E-01 -0.51147699709E-01  0.65893877594E-01  0.51100000000E-03 0. -1.
         11    1    4    4    0    0  0.28847022475E-01  0.36734321634E-01 -0.45257832966E-01  0.65039170177E-01  0.51100000000E-03 0.  1.
</event>
<event>
 8    1  0.1119901E+005  0.1043930E+01  0.7957747E-01            NaN
         13   -1    0    0    0    0  0.00000000000E+00  0.00000000000E+00  0.74505805969E-08  0.10566000000E+00  0.10566000000E+00 0. -1.
     999900   -1    0    0    0    0 -0.00000000000E+00 -0.00000000000E+00 -0.74505805969E-08  0.93827000000E+00  0.93827000000E+00 0.  1.
     999902    2    1    2    0    0 -0.11109681659E-01  0.11456213622E-01  0.21624998560E-01  0.10170541666E+01  0.10166990053E+01 0.  0.
     999903    2    3    3    0    0  0.12180184296E+00  0.21684824696E-01 -0.13683793158E-01  0.12631469369E+00  0.21499652931E-01 0.  0.
         14    1    1    2    0    0  0.11109681659E-01 -0.11456213622E-01 -0.21624998560E-01  0.26875833379E-01  0.00000000000E+00 0.  1.
     999901    1    3    3    0    0 -0.13291152462E+00 -0.10228611075E-01  0.35308791718E-01  0.89073947293E+00  0.88000000000E+00 0. -1.
        -11    1    4    4    0    0  0.40927307538E-01  0.17664641200E-01 -0.39043967435E-02  0.44750301518E-01  0.51100000000E-03 0. -1.
         11    1    4    4    0    0  0.80874535424E-01  0.40201834961E-02 -0.97793964145E-02  0.81564392173E-01  0.51100000000E-03 0.  1.
</event>
<event>
 8    1  0.1119901E+005  0.1043930E+01  0.7957747E-01            NaN
         13   -1    0    0    0    0  0.00000000000E+00  0.00000000000E+00  0.74505805969E-08  0.10566000000E+00  0.10566000000E+00 0. -1.
     999900   -1    0    0    0    0 -0.00000000000E+00 -0.00000000000E+00 -0.74505805969E-08  0.93827000000E+00  0.93827000000E+00 0.  1.
     999902    2    1    2    0    0 -0.85279275999E-03  0.10514826270E-02 -0.23412321317E-01  0.10204785680E+01  0.10202090659E+01 0.  0.
     999903    2    3    3    0    0  0.22225224299E-01 -0.12642483349E+00  0.11380244726E-01  0.13031379190E+00  0.19364278260E-01 0.  0.
         14    1    1    2    0    0  0.85279275999E-03 -0.10514826270E-02  0.23412321317E-01  0.23451431953E-01  0.00000000000E+00 0. -1.
     999901    1    3    3    0    0 -0.23078017059E-01  0.12747631611E+00 -0.34792566042E-01  0.89016477615E+00  0.88000000000E+00 0.  1.
        -11    1    4    4    0    0  0.45795255163E-02 -0.51077154457E-01 -0.38962832220E-02  0.51432381875E-01  0.51100000000E-03 0.  1.
         11    1    4    4    0    0  0.17645698782E-01 -0.75347679028E-01  0.15276527948E-01  0.78881410025E-01  0.51100000000E-03 0. -1.
</event>
<event>
 8    1  0.1119901E+005  0.1043930E+01  0.7957747E-01            NaN
         13   -1    0    0    0    0  0.00000000000E+00  0.00000000000E+00  0.74505805969E-08  0.10566000000E+00  0.10566000000E+00 0.  1.
     999900   -1    0    0    0    0 -0.00000000000E+00 -0.00000000000E+00 -0.74505805969E-08  0.93827000000E+00  0.93827000000E+00 0.  1.
     999902    2    1    2    0    0 -0.44286070209E-02  0.18269169676E-01  0.11489775314E-01  0.10218984304E+01  0.10216609086E+01 0.  0.
     999903    2    3    3    0    0 -0.74020648421E-01  0.55899342037E-01  0.95228690056E-01  0.13438995839E+00  0.19706970207E-01 0.  0.
         14    1    1    2    0    0  0.44286070209E-02 -0.18269169676E-01 -0.11489775314E-01  0.22031569567E-01  0.00000000000E+00 0.  1.
     999901    1    3    3    0    0  0.69592041400E-01 -0.37630172362E-01 -0.83738914742E-01  0.88750847204E+00  0.88000000000E+00 0.  1.
        -11    1    4    4    0    0 -0.71592343925E-01  0.54500594246E-01  0.85022263425E-01  0.12379347673E+00  0.51100000000E-03 0.  1.
         11    1    4    4    0    0 -0.24283044955E-02  0.13987477915E-02  0.10206426631E-01  0.10596481666E-01  0.51100000000E-03 0. -1.
</event>
<event>
 8    1  0.1119901E+005  0.1043930E+01  0.7957747E-01            NaN
         13   -1    0    0    0    0  0.00000000000E+00  0.00000000000E+00  0.74505805969E-08  0.10566000000E+00  0.10566000000E+00 0. -1.
     999900   -1    0    0    0    0 -0.00000000000E+00 -0.00000000000E+00 -0.74505805969E-08  0.93827000000E+00  0.93827000000E+00 0.  1.
     999902    2    1    2    0    0  0.27042589575E-02 -0.13274457767E-01 -0.20111926250E-01  0.10196810037E+01  0.10193926306E+01 0.  0.
     999903    2    3    3    0    0 -0.22355298240E-01  0.12243712066E+00 -0.26895414652E-01  0.12889953235E+00  0.20027936383E-01 0.  0.
         14    1    1    2    0    0 -0.27042589575E-02  0.13274457767E-01  0.20111926250E-01  0.24248996330E-01  0.00000000000E+00 0. -1.
     999901    1    3    3    0    0  0.25059557198E-01 -0.13571157843E+00  0.67834884021E-02  0.89078147132E+00  0.88000000000E+00 0.  1.
        -11    1    4    4    0    0 -0.11209753570E-01  0.79510697213E-01 -0.26456155670E-01  0.84544655894E-01  0.51100000000E-03 0. -1.
         11    1    4    4    0    0 -0.11145544670E-01  0.42926423450E-01 -0.43925898198E-03  0.44354876459E-01  0.51100000000E-03 0.  1.
</event>
<event>
 8    1  0.1119901E+005  0.1043930E+01  0.7957747E-01            NaN
         13   -1    0    0    0    0  0.00000000000E+00  0.00000000000E+00  0.74505805969E-08  0.10566000000E+00  0.10566000000E+00 0. -1.
     999900   -1    0    0    0    0 -0.00000000000E+00 -0.00000000000E+00 -0.74505805969E-08  0.93827000000E+00  0.93827000000E+00 0. -1.
     999902    2    1    2    0    0 -0.50648316005E-02  0.78646918367E-02  0.21670940714E-01  0.10203262806E+01  0.10200532258E+01 0.  0.
     999903    2    3    3    0    0 -0.29093814518E-01 -0.57502616227E-01  0.11307967705E+00  0.13285468443E+00  0.26652446363E-01 0.  0.
         14    1    1    2    0    0  0.50648316005E-02 -0.78646918367E-02 -0.21670940714E-01  0.23603719374E-01  0.00000000000E+00 0.  1.
     999901    1    3    3    0    0  0.24028982918E-01  0.65367308064E-01 -0.91408736332E-01  0.88747159620E+00  0.88000000000E+00 0. -1.
        -11    1    4    4    0    0 -0.43841511216E-02 -0.35809947215E-01  0.68949860390E-01  0.77819775568E-01  0.51100000000E-03 0. -1.
         11    1    4    4    0    0 -0.24709663397E-01 -0.21692669012E-01  0.44129816656E-01  0.55034908859E-01  0.51100000000E-03 0.  1.
</event>
<event>
 8    1  0.1119901E+005  0.1043930E+01  0.7957747E-01            NaN
         13   -1    0    0    0    0  0.00000000000E+00  0.00000000000E+00  0.74505805969E-08  0.10566000000E+00  0.10566000000E+00 0. -1.
     999900   -1    0    0    0    0 -0.00000000000E+00 -0.00000000000E+00 -0.74505805969E-08  0.93827000000E+00  0.93827000000E+00 0.  1.
     999902    2    1    2    0    0  0.60914976741E-02 -0.35539542682E-02  0.23317413601E-01  0.10195694025E+01  0.10192783367E+01 0.  0.
     999903    2    3    3    0    0  0.16471175389E-01 -0.58376238815E-01  0.11752619356E+00  0.13278390709E+00  0.11835325638E-01 0.  0.
         14    1    1    2    0    0 -0.60914976741E-02  0.35539542682E-02 -0.23317413601E-01  0.24360597528E-01  0.00000000000E+00 0.  1.
     999901    1    3    3    0    0 -0.10379677715E-01  0.54822284547E-01 -0.94208779961E-01  0.88678549538E+00  0.88000000000E+00 0.  1.
        -11    1    4    4    0    0  0.84260869643E-02 -0.24535271349E-01  0.62645447743E-01  0.67806280871E-01  0.51100000000E-03 0. -1.
         11    1    4    4    0    0  0.80450884245E-02 -0.33840967466E-01  0.54880745819E-01  0.64977626222E-01  0.51100000000E-03 0.  1.
</event>
<event>
 8    1  0.1119901E+005  0.1043930E+01  0.7957747E-01            NaN
         13   -1    0    0    0    0  0.00000000000E+00  0.00000000000E+00  0.74505805969E-08  0.10566000000E+00  0.10566000000E+00 0.  1.
     999900   -1    0    0    0    0 -0.00000000000E+00 -0.00000000000E+00 -0.74505805969E-08  0.93827000000E+00  0.93827000000E+00 0. -1.
     999902    2    1    2    0    0  0.12785992981E-01 -0.12566710606E-01  0.92076868732E-02  0.10237759600E+01  0.10235775647E+01 0.  0.
     999903    2    3    3    0    0 -0.26587809611E-01 -0.93814949616E-01  0.92070388818E-01  0.13528409166E+00  0.17795296265E-01 0.  0.
         14    1    1    2    0    0 -0.12785992981E-01  0.12566710606E-01 -0.92076868732E-02  0.20154040029E-01  0.00000000000E+00 0. -1.
     999901    1    3    3    0    0  0.39373802591E-01  0.81248239010E-01 -0.82862701945E-01  0.88849186831E+00  0.88000000000E+00 0. -1.
        -11    1    4    4    0    0 -0.75767662243E-03 -0.31968737199E-01  0.26757333085E-01  0.41698803661E-01  0.51100000000E-03 0. -1.
         11    1    4    4    0    0 -0.25830132988E-01 -0.61846212416E-01  0.65313055733E-01  0.93585288003E-01  0.51100000000E-03 0.  1.
</event>
<event>
 8    1  0.1119901E+005  0.1043930E+01  0.7957747E-01            NaN
         13   -1    0    0    0    0  0.00000000000E+00  0.00000000000E+00  0.74505805969E-08  0.10566000000E+00  0.10566000000E+00 0.  1.
     999900   -1    0    0    0    0 -0.00000000000E+00 -0.00000000000E+00 -0.74505805969E-08  0.93827000000E+00  0.93827000000E+00 0.  1.
     999902    2    1    2    0    0 -0.29555116066E-01 -0.13606906286E-01 -0.81162469278E-02  0.10103960434E+01  0.10098394121E+01 0.  0.
     999903    2    3    3    0    0 -0.10102128959E+00 -0.20779365713E-01 -0.68935658182E-01  0.12537747919E+00  0.18174276533E-01 0.  0.
         14    1    1    2    0    0  0.29555116066E-01  0.13606906286E-01  0.81162469278E-02  0.33533956649E-01  0.00000000000E+00 0. -1.
     999901    1    3    3    0    0  0.71466173526E-01  0.71724594273E-02  0.60819411255E-01  0.88501856417E+00  0.88000000000E+00 0.  1.
        -11    1    4    4    0    0 -0.49084693648E-01 -0.19093195656E-01 -0.37281886447E-01  0.64529508358E-01  0.51100000000E-03 0.  1.
         11    1    4    4    0    0 -0.51936595944E-01 -0.16861700573E-02 -0.31653771735E-01  0.60847970827E-01  0.51100000000E-03 0. -1.
</event>
<event>
 8    1  0.1119901E+005  0.1043930E+01  0.7957747E-01            NaN
         13   -1    0    0    0    0  0.00000000000E+00  0.00000000000E+00  0.74505805969E-08  0.10566000000E+00  0.10566000000E+00 0.  1.
     999900   -1    0    0    0    0 -0.00000000000E+00 -0.00000000000E+00 -0.74505805969E-08  0.93827000000E+00  0.93827000000E+00 0. -1.
     999902    2    1    2    0    0 -0.12387361197E-01 -0.55696021597E-03 -0.23585228857E-01  0.10172838006E+01  0.10169347624E+01 0.  0.
     999903    2    3    3    0    0  0.11254506251E+00  0.10205999871E-01 -0.56292604585E-01  0.12779309001E+00  0.19790477363E-01 0.  0.
         14    1    1    2    0    0  0.12387361197E-01  0.55696021597E-03  0.23585228857E-01  0.26646199398E-01  0.00000000000E+00 0.  1.
     999901    1    3    3    0    0 -0.12493242371E+00 -0.10762960087E-01  0.32707375728E-01  0.88949071059E+00  0.88000000000E+00 0.  1.
        -11    1    4    4    0    0  0.98166141170E-01  0.27746189639E-02 -0.44842584450E-01  0.10796021621E+00  0.51100000000E-03 0. -1.
         11    1    4    4    0    0  0.14378921341E-01  0.74313809073E-02 -0.11450020135E-01  0.19832873801E-01  0.51100000000E-03 0.  1.
</event>
<event>
 8    1  0.1119901E+005  0.1043930E+01  0.7957747E-01            NaN
         13   -1    0    0    0    0  0.00000000000E+00  0.00000000000E+00  0.74505805969E-08  0.10566000000E+00  0.10566000000E+00 0. -1.
     999900   -1    0    0    0    0 -0.00000000000E+00 -0.00000000000E+00 -0.74505805969E-08  0.93827000000E+00  0.93827000000E+00 0. -1.
     999902    2    1    2    0    0  0.12891191897E-01  0.53996726381E-02  0.18200451350E-01  0.10209823264E+01  0.10207244071E+01 0.  0.
     999903    2    3    3    0    0  0.56494407926E-01 -0.52515142102E-01 -0.10247868872E+00  0.12979277248E+00  0.19870175361E-01 0.  0.
         14    1    1    2    0    0 -0.12891191897E-01 -0.53996726381E-02 -0.18200451350E-01  0.22947673574E-01  0.00000000000E+00 0.  1.
     999901    1    3    3    0    0 -0.43603216030E-01  0.57914814740E-01  0.12067914007E+00  0.89118955395E+00  0.88000000000E+00 0.  1.
        -11    1    4    4    0    0  0.13252122280E-01 -0.19687663051E-01 -0.44006524408E-01  0.50000581325E-01  0.51100000000E-03 0.  1.
         11    1    4    4    0    0  0.43242285647E-01 -0.32827479050E-01 -0.58472164314E-01  0.79792191155E-01  0.51100000000E-03 0. -1.
</event>
<event>
 8    1  0.1119901E+005  0.1043930E+01  0.7957747E-01            NaN
         13   -1    0    0    0    0  0.00000000000E+00  0.00000000000E+00  0.74505805969E-08  0.10566000000E+00  0.10566000000E+00 0.  1.
     999900   -1    0    0    0    0 -0.00000000000E+00 -0.00000000000E+00 -0.74505805969E-08  0.93827000000E+00  0.93827000000E+00 0. -1.
     999902    2    1    2    0    0  0.11466247768E-01  0.18804257822E-01 -0.46153422300E-03  0.10219007475E+01  0.10216632762E+01 0.  0.
     999903    2    3    3    0    0  0.41071983184E-01  0.39825297641E-01 -0.11862781518E+00  0.13326040767E+00  0.20317863676E-01 0.  0.
         14    1    1    2    0    0 -0.11466247768E-01 -0.18804257822E-01  0.46153422300E-03  0.22029252461E-01  0.00000000000E+00 0. -1.
     999901    1    3    3    0    0 -0.29605735416E-01 -0.21021039819E-01  0.11816628095E+00  0.88864033987E+00  0.88000000000E+00 0.  1.
        -11    1    4    4    0    0  0.41006382684E-01  0.31719697547E-01 -0.94295932536E-01  0.10760876659E+00  0.51100000000E-03 0. -1.
         11    1    4    4    0    0  0.65600499636E-04  0.81056000943E-02 -0.24331882641E-01  0.25651641082E-01  0.51100000000E-03 0.  1.
</event>
<event>
 7    1  0.1319416E+005  0.1043930E+01  0.7957747E-01            NaN
         13   -1    0    0    0    0  0.00000000000E+00  0.00000000000E+00  0.74505805969E-08  0.10566000000E+00  0.10566000000E+00 0. -1.
     999900   -1    0    0    0    0 -0.00000000000E+00 -0.00000000000E+00 -0.74505805969E-08  0.93827000000E+00  0.93827000000E+00 0. -1.
     999903    2    1    2    0    0 -0.10389167430E+00 -0.70577795383E-03 -0.31503965491E-01  0.11094768561E+00  0.22867247108E-01 0.  0.
         14    1    1    2    0    0  0.47127893373E-01 -0.73070178437E-02 -0.14706847536E-01  0.49907135842E-01  0.00000000000E+00 0. -1.
     999901    1    1    2    0    0  0.56763780925E-01  0.80127957975E-02  0.46210813027E-01  0.88307517854E+00  0.88000000000E+00 0.  1.
        -11    1    3    3    0    0 -0.41768155396E-01  0.10911813795E-01 -0.13331751489E-01  0.45184546078E-01  0.51100000000E-03 0.  1.
         11    1    3    3    0    0 -0.62123518901E-01 -0.11617591749E-01 -0.18172214002E-01  0.65763139535E-01  0.51100000000E-03 0. -1.
</event>
<event>
 8    1  0.1119901E+005  0.1043930E+01  0.7957747E-01            NaN
         13   -1    0    0    0    0  0.00000000000E+00  0.00000000000E+00  0.74505805969E-08  0.10566000000E+00  0.10566000000E+00 0. -1.
     999900   -1    0    0    0    0 -0.00000000000E+00 -0.00000000000E+00 -0.74505805969E-08  0.93827000000E+00  0.93827000000E+00 0. -1.
     999902    2    1    2    0    0 -0.11283793392E-02 -0.14018856890E-01  0.17166323093E-01  0.10217380141E+01  0.10214969825E+01 0.  0.
     999903    2    3    3    0    0  0.22865986288E-01 -0.12911921736E+00 -0.15638590144E-01  0.13331244893E+00  0.18248778522E-01 0.  0.
         14    1    1    2    0    0  0.11283793392E-02  0.14018856890E-01 -0.17166323093E-01  0.22191985873E-01  0.00000000000E+00 0.  1.
     999901    1    3    3    0    0 -0.23994365627E-01  0.11510036047E+00  0.32804913237E-01  0.88842556520E+00  0.88000000000E+00 0. -1.
        -11    1    4    4    0    0  0.97886949561E-02 -0.84999260524E-01 -0.17163748905E-01  0.87267108558E-01  0.51100000000E-03 0.  1.
         11    1    4    4    0    0  0.13077291332E-01 -0.44119956836E-01  0.15251587609E-02  0.46045340373E-01  0.51100000000E-03 0. -1.
</event>
<event>
 8    1  0.1119901E+005  0.1043930E+01  0.7957747E-01            NaN
         13   -1    0    0    0    0  0.00000000000E+00  0.00000000000E+00  0.74505805969E-08  0.10566000000E+00  0.10566000000E+00 0.  1.
     999900   -1    0    0    0    0 -0.00000000000E+00 -0.00000000000E+00 -0.74505805969E-08  0.93827000000E+00  0.93827000000E+00 0.  1.
     999902    2    1    2    0    0 -0.19819208382E-01  0.63284977846E-03 -0.13350720812E-01  0.10200251205E+01  0.10197449696E+01 0.  0.
     999903    2    3    3    0    0 -0.36121897648E-01  0.18374004275E-02  0.12265419550E+00  0.12942725055E+00  0.19979839378E-01 0.  0.
         14    1    1    2    0    0  0.19819208382E-01 -0.63284977846E-03  0.13350720812E-01  0.23904879542E-01  0.00000000000E+00 0.  1.
     999901    1    3    3    0    0  0.16302689266E-01 -0.12045506490E-02 -0.13600491631E+00  0.89059786991E+00  0.88000000000E+00 0.  1.
        -11    1    4    4    0    0 -0.15070520657E-01 -0.82348774385E-02  0.39855290333E-01  0.43400911140E-01  0.51100000000E-03 0. -1.
         11    1    4    4    0    0 -0.21051376991E-01  0.10072277866E-01  0.82798905168E-01  0.86026339412E-01  0.51100000000E-03 0.  1.
</event>
<event>
 8    1  0.1119901E+005  0.1043930E+01  0.7957747E-01            NaN
         13   -1    0    0    0    0  0.00000000000E+00  0.00000000000E+00  0.74505805969E-08  0.10566000000E+00  0.10566000000E+00 0. -1.
     999900   -1    0    0    0    0 -0.00000000000E+00 -0.00000000000E+00 -0.74505805969E-08  0.93827000000E+00  0.93827000000E+00 0.  1.
     999902    2    1    2    0    0 -0.39283673144E-02 -0.22007932644E-01 -0.36857949125E-02  0.10212724129E+01  0.10210210454E+01 0.  0.
     999903    2    3    3    0    0  0.10517017746E+00 -0.37927230477E-01  0.66355376081E-01  0.13163109071E+00  0.20602598558E-01 0.  0.
         14    1    1    2    0    0  0.39283673144E-02  0.22007932644E-01  0.36857949125E-02  0.22657587099E-01  0.00000000000E+00 0.  1.
     999901    1    3    3    0    0 -0.10909854478E+00  0.15919297833E-01 -0.70041170994E-01  0.88964132219E+00  0.88000000000E+00 0.  1.
        -11    1    4    4    0    0  0.10293123652E-01 -0.10972031705E-02  0.43811854227E-03  0.10373298326E-01  0.51100000000E-03 0.  1.
         11    1    4    4    0    0  0.94877053811E-01 -0.36830027307E-01  0.65917257539E-01  0.12125779238E+00  0.51100000000E-03 0. -1.
</event>
<event>
 8    1  0.1119901E+005  0.1043930E+01  0.7957747E-01            NaN
         13   -1    0    0    0    0  0.00000000000E+00  0.00000000000E+00  0.74505805969E-08  0.10566000000E+00  0.10566000000E+00 0.  1.
     999900   -1    0    0    0    0 -0.00000000000E+00 -0.00000000000E+00 -0.74505805969E-08  0.93827000000E+00  0.93827000000E+00 0. -1.
     999902    2    1    2    0    0  0.11261703559E-01  0.83483875644E-02  0.19864011152E-01  0.10196174419E+01  0.10193275368E+01 0.  0.
     999903    2    3    3    0    0  0.79432563755E-01  0.92899433734E-02 -0.99216258424E-01  0.12898381167E+00  0.19927932773E-01 0.  0.
         14    1    1    2    0    0 -0.11261703559E-01 -0.83483875644E-02 -0.19864011152E-01  0.24312558093E-01  0.00000000000E+00 0. -1.
     999901    1    3    3    0    0 -0.68170860196E-01 -0.94155580905E-03  0.11908026958E+00  0.89063363024E+00  0.88000000000E+00 0.  1.
        -11    1    4    4    0    0  0.53156644389E-01  0.54843705591E-02 -0.50641178211E-01  0.73624026070E-01  0.51100000000E-03 0. -1.
         11    1    4    4    0    0  0.26275919366E-01  0.38055728143E-02 -0.48575080213E-01  0.55359785599E-01  0.51100000000E-03 0.  1.
</event>
<event>
 8    1  0.1119901E+005  0.1043930E+01  0.7957747E-01            NaN
         13   -1    0    0    0    0  0.00000000000E+00  0.00000000000E+00  0.74505805969E-08  0.10566000000E+00  0.10566000000E+00 0. -1.
     999900   -1    0    0    0    0 -0.00000000000E+00 -0.00000000000E+00 -0.74505805969E-08  0.93827000000E+00  0.93827000000E+00 0. -1.
     999902    2    1    2    0    0  0.22433492843E-01  0.46721860147E-02 -0.45737880410E-02  0.10205631333E+01  0.10202955937E+01 0.  0.
     999903    2    3    3    0    0  0.68457274926E-01  0.86853559205E-01 -0.71075038023E-01  0.13304165023E+00  0.20456794234E-01 0.  0.
         14    1    1    2    0    0 -0.22433492843E-01 -0.46721860147E-02  0.45737880410E-02  0.23366866721E-01  0.00000000000E+00 0. -1.
     999901    1    3    3    0    0 -0.46023782083E-01 -0.82181373190E-01  0.66501249982E-01  0.88752148304E+00  0.88000000000E+00 0. -1.
        -11    1    4    4    0    0  0.38956147388E-01  0.37536379201E-01 -0.26107600381E-01  0.60070201444E-01  0.51100000000E-03 0.  1.
         11    1    4    4    0    0  0.29501127538E-01  0.49317180004E-01 -0.44967437642E-01  0.72971448790E-01  0.51100000000E-03 0. -1.
</event>
<event>
 8    1  0.1119901E+005  0.1043930E+01  0.7957747E-01            NaN
         13   -1    0    0    0    0  0.00000000000E+00  0.00000000000E+00  0.74505805969E-08  0.10566000000E+00  0.10566000000E+00 0. -1.
     999900   -1    0    0    0    0 -0.00000000000E+00 -0.00000000000E+00 -0.74505805969E-08  0.93827000000E+00  0.93827000000E+00 0. -1.
     999902    2    1    2    0    0 -0.73288173457E-02 -0.46753620311E-02  0.16148489285E-01  0.10255903086E+01  0.10254263196E+01 0.  0.
     999903    2    3    3    0    0  0.86943402832E-01 -0.95257711550E-01 -0.32320976809E-01  0.13461236126E+00  0.21039376307E-01 0.  0.
         14    1    1    2    0    0  0.73288173457E-02  0.46753620311E-02 -0.16148489285E-01  0.18339691382E-01  0.00000000000E+00 0.  1.
     999901    1    3    3    0    0 -0.94272220177E-01  0.90582349519E-01  0.48469466094E-01  0.89097794736E+00  0.88000000000E+00 0. -1.
        -11    1    4    4    0    0  0.74602570180E-01 -0.88963930642E-01 -0.33090603184E-01  0.12072851185E+00  0.51100000000E-03 0.  1.
         11    1    4    4    0    0  0.12340832651E-01 -0.62937809080E-02  0.76962637563E-03  0.13883849409E-01  0.51100000000E-03 0. -1.
</event>
<event>
 8    1  0.1119901E+005  0.1043930E+01  0.7957747E-01            NaN
         13   -1    0    0    0    0  0.00000000000E+00  0.00000000000E+00  0.74505805969E-08  0.10566000000E+00  0.10566000000E+00 0. -1.
     999900   -1    0    0    0    0 -0.00000000000E+00 -0.00000000000E+00 -0.74505805969E-08  0.93827000000E+00  0.93827000000E+00 0.  1.
     999902    2    1    2    0    0  0.14226631231E-01  0.14005611844E-01 -0.12731386240E-01  0.10202521117E+01  0.10199773179E+01 0.  0.
     999903    2    3    3    0    0  0.86518822512E-02  0.11901267693E+00 -0.55961251513E-01  0.13293797183E+00  0.17377293950E-01 0.  0.
         14    1    1    2    0    0 -0.14226631231E-01 -0.14005611844E-01  0.12731386240E-01  0.23677888312E-01  0.00000000000E+00 0.  1.
     999901    1    3    3    0    0  0.55747489803E-02 -0.10500706509E+00  0.43229865274E-01  0.88731413986E+00  0.88000000000E+00 0.  1.
        -11    1    4    4    0    0  0.15868414737E-02  0.55629979413E-01 -0.35263634870E-01  0.65886248494E-01  0.51100000000E-03 0. -1.
         11    1    4    4    0    0  0.70650407774E-02  0.63382697522E-01 -0.20697616644E-01  0.67051723334E-01  0.51100000000E-03 0.  1.
</event>
<event>
 8    1  0.1119901E+005  0.1043930E+01  0.7957747E-01            NaN
         13   -1    0    0    0    0  0.00000000000E+00  0.00000000000E+00  0.74505805969E-08  0.10566000000E+00  0.10566000000E+00 0. -1.
     999900   -1    0    0    0    0 -0.00000000000E+00 -0.00000000000E+00 -0.74505805969E-08  0.93827000000E+00  0.93827000000E+00 0. -1.
     999902    2    1    2    0    0 -0.26697350930E-02 -0.68217178359E-03 -0.23150778005E-01  0.10206158119E+01  0.10203494912E+01 0.  0.
     999903    2    3    3    0    0  0.11328791058E+00  0.51655460378E-01 -0.36687335009E-01  0.13136408057E+00  0.20202075186E-01 0.  0.
         14    1    1    2    0    0  0.26697350930E-02  0.68217178359E-03  0.23150778005E-01  0.23314188084E-01  0.00000000000E+00 0. -1.
     999901    1    3    3    0    0 -0.11595764568E+00 -0.52337632162E-01  0.13536557004E-01  0.88925173135E+00  0.88000000000E+00 0.  1.
        -11    1    4    4    0    0  0.14112323119E-01  0.12481509929E-01 -0.10450792999E-01  0.21550544059E-01  0.51100000000E-03 0.  1.
         11    1    4    4    0    0  0.99175587465E-01  0.39173950450E-01 -0.26236542010E-01  0.10981353651E+00  0.51100000000E-03 0. -1.
</event>
<event>
 8    1  0.1119901E+005  0.1043930E+01  0.7957747E-01            NaN
         13   -1    0    0    0    0  0.00000000000E+00  0.00000000000E+00  0.74505805969E-08  0.10566000000E+00  0.10566000000E+00 0. -1.
     999900   -1    0    0    0    0 -0.00000000000E+00 -0.00000000000E+00 -0.74505805969E-08  0.93827000000E+00  0.93827000000E+00 0.  1.
     999902    2    1    2    0    0 -0.18076378833E-01  0.17636180513E-01  0.34998517115E-02  0.10184341318E+01  0.10181149451E+01 0.  0.
     999903    2    3    3    0    0  0.10987353796E+00  0.51700499006E-01 -0.34340554104E-01  0.12772460824E+00  0.19727289512E-01 0.  0.
         14    1    1    2    0    0  0.18076378833E-01 -0.17636180513E-01 -0.34998517115E-02  0.25495868230E-01  0.00000000000E+00 0. -1.
     999901    1    3    3    0    0 -0.12794991679E+00 -0.34064318494E-01  0.37840405815E-01  0.89070952353E+00  0.88000000000E+00 0.  1.
        -11    1    4    4    0    0  0.22530921256E-01  0.17748380550E-01 -0.26864174829E-02  0.28811896582E-01  0.51100000000E-03 0.  1.
         11    1    4    4    0    0  0.87342616705E-01  0.33952118456E-01 -0.31654136621E-01  0.98912711654E-01  0.51100000000E-03 0. -1.
</event>
<event>
 8    1  0.1119901E+005  0.1043930E+01  0.7957747E-01            NaN
         13   -1    0    0    0    0  0.00000000000E+00  0.00000000000E+00  0.74505805969E-08  0.10566000000E+00  0.10566000000E+00 0.  1.
     999900   -1    0    0    0    0 -0.00000000000E+00 -0.00000000000E+00 -0.74505805969E-08  0.93827000000E+00  0.93827000000E+00 0. -1.
     999902    2    1    2    0    0  0.66920929306E-02  0.10869476826E-02 -0.22927536496E-01  0.10200210583E+01  0.10197408111E+01 0.  0.
     999903    2    3    3    0    0  0.94161018666E-01  0.88607304512E-01  0.49273658231E-02  0.13092796902E+00  0.20007555820E-01 0.  0.
         14    1    1    2    0    0 -0.66920929306E-02 -0.10869476826E-02  0.22927536496E-01  0.23908941692E-01  0.00000000000E+00 0.  1.
     999901    1    3    3    0    0 -0.87468925735E-01 -0.87520356829E-01 -0.27854902319E-01  0.88909308928E+00  0.88000000000E+00 0.  1.
        -11    1    4    4    0    0  0.62982890123E-01  0.70518738800E-01  0.58220986434E-04  0.94551581059E-01  0.51100000000E-03 0. -1.
         11    1    4    4    0    0  0.31178128543E-01  0.18088565712E-01  0.48691448367E-02  0.36376387965E-01  0.51100000000E-03 0.  1.
</event>
<event>
 8    1  0.1119901E+005  0.1043930E+01  0.7957747E-01            NaN
         13   -1    0    0    0    0  0.00000000000E+00  0.00000000000E+00  0.74505805969E-08  0.10566000000E+00  0.10566000000E+00 0.  1.
     999900   -1    0    0    0    0 -0.00000000000E+00 -0.00000000000E+00 -0.74505805969E-08  0.93827000000E+00  0.93827000000E+00 0. -1.
     999902    2    1    2    0    0  0.74563563683E-02 -0.19065845933E-01 -0.13942799329E-01  0.10191609592E+01  0.10188599292E+01 0.  0.
     999903    2    3    3    0    0 -0.54361748684E-01  0.32917736538E-01 -0.11235814826E+00  0.12999879629E+00  0.15380391991E-01 0.  0.
         14    1    1    2    0    0 -0.74563563683E-02  0.19065845933E-01  0.13942799329E-01  0.24769040848E-01  0.00000000000E+00 0.  1.
     999901    1    3    3    0    0  0.61818105052E-01 -0.51983582471E-01  0.98415348931E-01  0.88916216286E+00  0.88000000000E+00 0.  1.
        -11    1    4    4    0    0 -0.19335668538E-01  0.16315455996E-01 -0.32147470403E-01  0.40911895049E-01  0.51100000000E-03 0.  1.
         11    1    4    4    0    0 -0.35026080146E-01  0.16602280542E-01 -0.80210677857E-01  0.89086901242E-01  0.51100000000E-03 0. -1.
</event>
<event>
 8    1  0.1119901E+005  0.1043930E+01  0.7957747E-01            NaN
         13   -1    0    0    0    0  0.00000000000E+00  0.00000000000E+00  0.74505805969E-08  0.10566000000E+00  0.10566000000E+00 0. -1.
     999900   -1    0    0    0    0 -0.00000000000E+00 -0.00000000000E+00 -0.74505805969E-08  0.93827000000E+00  0.93827000000E+00 0. -1.
     999902    2    1    2    0    0  0.24888685805E-02  0.39492782066E-02  0.23631967058E-01  0.10198413900E+01  0.10195568643E+01 0.  0.
     999903    2    3    3    0    0  0.64459019795E-01 -0.77465892677E-01 -0.76851169893E-01  0.12823296108E+00  0.19536126345E-01 0.  0.
         14    1    1    2    0    0 -0.24888685805E-02 -0.39492782066E-02 -0.23631967058E-01  0.24088610009E-01  0.00000000000E+00 0.  1.
     999901    1    3    3    0    0 -0.61970151215E-01  0.81415170883E-01  0.10048313695E+00  0.89160842891E+00  0.88000000000E+00 0.  1.
        -11    1    4    4    0    0  0.67948340208E-02 -0.17763663227E-01 -0.91089588773E-02  0.21093879525E-01  0.51100000000E-03 0. -1.
         11    1    4    4    0    0  0.57664185774E-01 -0.59702229450E-01 -0.67742211015E-01  0.10713908156E+00  0.51100000000E-03 0.  1.
</event>
<event>
 8    1  0.1119901E+005  0.1043930E+01  0.7957747E-01            NaN
         13   -1    0    0    0    0  0.00000000000E+00  0.00000000000E+00  0.74505805969E-08  0.10566000000E+00  0.10566000000E+00 0. -1.
     999900   -1    0    0    0    0 -0.00000000000E+00 -0.00000000000E+00 -0.74505805969E-08  0.93827000000E+00  0.93827000000E+00 0. -1.
     999902    2    1    2    0    0 -0.11003108660E-01  0.16737194474E-01 -0.65303252912E-02  0.10228623179E+01  0.10226453316E+01 0.  0.
     999903    2    3    3    0    0 -0.36987989711E-01  0.22733055816E-01 -0.12545376515E+00  0.13446266185E+00  0.21369535127E-01 0.  0.
         14    1    1    2    0    0  0.11003108660E-01 -0.16737194474E-01  0.65303252912E-02  0.21067682062E-01  0.00000000000E+00 0. -1.
     999901    1    3    3    0    0  0.25984881051E-01 -0.59958613425E-02  0.11892343986E+00  0.88839965609E+00  0.88000000000E+00 0.  1.
        -11    1    4    4    0    0 -0.36415569338E-02 -0.25832192736E-02 -0.40800340309E-02  0.60697411321E-02  0.51100000000E-03 0. -1.
         11    1    4    4    0    0 -0.33346432778E-01  0.25316275090E-01 -0.12137373112E+00  0.12839292071E+00  0.51100000000E-03 0.  1.
</event>
<event>
 8    1  0.1119901E+005  0.1043930E+01  0.7957747E-01            NaN
         13   -1    0    0    0    0  0.00000000000E+00  0.00000000000E+00  0.74505805969E-08  0.10566000000E+00  0.10566000000E+00 0. -1.
     999900   -1    0    0    0    0 -0.00000000000E+00 -0.00000000000E+00 -0.74505805969E-08  0.93827000000E+00  0.93827000000E+00 0.  1.
     999902    2    1    2    0    0 -0.69541985966E-02  0.25693533795E-01 -0.18805405887E-01  0.10113391754E+01  0.10108139126E+01 0.  0.
     999903    2    3    3    0    0  0.25828333380E-01 -0.11211403857E+00 -0.27146930134E-01  0.11997213404E+00  0.20486499996E-01 0.  0.
         14    1    1    2    0    0  0.69541985966E-02 -0.25693533795E-01  0.18805405887E-01  0.32590824592E-01  0.00000000000E+00 0. -1.
     999901    1    3    3    0    0 -0.32782531977E-01  0.13780757236E+00  0.83415242474E-02  0.89136704136E+00  0.88000000000E+00 0.  1.
        -11    1    4    4    0    0  0.78922357480E-02 -0.54129684414E-01 -0.22322366547E-01  0.59083494219E-01  0.51100000000E-03 0. -1.
         11    1    4    4    0    0  0.17936097632E-01 -0.57984354154E-01 -0.48245635874E-02  0.60888639825E-01  0.51100000000E-03 0.  1.
</event>
<event>
 8    1  0.1119901E+005  0.1043930E+01  0.7957747E-01            NaN
         13   -1    0    0    0    0  0.00000000000E+00  0.00000000000E+00  0.74505805969E-08  0.10566000000E+00  0.10566000000E+00 0.  1.
     999900   -1    0    0    0    0 -0.00000000000E+00 -0.00000000000E+00 -0.74505805969E-08  0.93827000000E+00  0.93827000000E+00 0.  1.
     999902    2    1    2    0    0 -0.77582398805E-02  0.17692676348E-01  0.12389727276E-01  0.10209794788E+01  0.10207214947E+01 0.  0.
     999903    2    3    3    0    0  0.79395378661E-02  0.13024467125E+00 -0.16607533762E-01  0.13319841741E+00  0.20959426815E-01 0.  0.
         14    1    1    2    0    0  0.77582398805E-02 -0.17692676348E-01 -0.12389727276E-01  0.22950521222E-01  0.00000000000E+00 0. -1.
     999901    1    3    3    0    0 -0.15697777747E-01 -0.11255199490E+00  0.28997261039E-01  0.88778106137E+00  0.88000000000E+00 0. -1.
        -11    1    4    4    0    0  0.47155150524E-02  0.10156275149E+00 -0.41502214117E-02  0.10175811531E+00  0.51100000000E-03 0. -1.
         11    1    4    4    0    0  0.32240228137E-02  0.28681919756E-01 -0.12457312351E-01  0.31440302098E-01  0.51100000000E-03 0.  1.
</event>
<event>
 8    1  0.1119901E+005  0.1043930E+01  0.7957747E-01            NaN
         13   -1    0    0    0    0  0.00000000000E+00  0.00000000000E+00  0.74505805969E-08  0.10566000000E+00  0.10566000000E+00 0. -1.
     999900   -1    0    0    0    0 -0.00000000000E+00 -0.00000000000E+00 -0.74505805969E-08  0.93827000000E+00  0.93827000000E+00 0. -1.
     999902    2    1    2    0    0  0.60843737914E-02  0.13492259592E-01 -0.18646567970E-01  0.10201233797E+01  0.10198455543E+01 0.  0.
     999903    2    3    3    0    0  0.36303183831E-01  0.40041251581E-01 -0.12011687659E+00  0.13337975892E+00  0.20996977475E-01 0.  0.
         14    1    1    2    0    0 -0.60843737914E-02 -0.13492259592E-01  0.18646567970E-01  0.23806620306E-01  0.00000000000E+00 0. -1.
     999901    1    3    3    0    0 -0.30218810040E-01 -0.26548991989E-01  0.10147030862E+00  0.88674362078E+00  0.88000000000E+00 0.  1.
        -11    1    4    4    0    0  0.19071961264E-01  0.27386193577E-01 -0.50342549486E-01  0.60401793970E-01  0.51100000000E-03 0.  1.
         11    1    4    4    0    0  0.17231222568E-01  0.12655058004E-01 -0.69774327103E-01  0.72977964948E-01  0.51100000000E-03 0. -1.
</event>
<event>
 8    1  0.1119901E+005  0.1043930E+01  0.7957747E-01            NaN
         13   -1    0    0    0    0  0.00000000000E+00  0.00000000000E+00  0.74505805969E-08  0.10566000000E+00  0.10566000000E+00 0.  1.
     999900   -1    0    0    0    0 -0.00000000000E+00 -0.00000000000E+00 -0.74505805969E-08  0.93827000000E+00  0.93827000000E+00 0. -1.
     999902    2    1    2    0    0 -0.66598784540E-02 -0.67065773713E-02 -0.21671746699E-01  0.10202868876E+01  0.10200129098E+01 0.  0.
     999903    2    3    3    0    0 -0.10687635546E+00  0.72391457628E-01  0.41360089040E-02  0.13069940920E+00  0.20053690484E-01 0.  0.
         14    1    1    2    0    0  0.66598784540E-02  0.67065773713E-02  0.21671746699E-01  0.23643112444E-01  0.00000000000E+00 0.  1.
     999901    1    3    3    0    0  0.10021647700E+00 -0.79098034999E-01 -0.25807755603E-01  0.88958747836E+00  0.88000000000E+00 0. -1.
        -11    1    4    4    0    0 -0.16208448585E-01  0.32998412951E-02  0.21537566058E-02  0.16688395568E-01  0.51100000000E-03 0. -1.
         11    1    4    4    0    0 -0.90667906870E-01  0.69091616333E-01  0.19822522983E-02  0.11401101363E+00  0.51100000000E-03 0.  1.
</event>
<event>
 8    1  0.1119901E+005  0.1043930E+01  0.7957747E-01            NaN
         13   -1    0    0    0    0  0.00000000000E+00  0.00000000000E+00  0.74505805969E-08  0.10566000000E+00  0.10566000000E+00 0.  1.
     999900   -1    0    0    0    0 -0.00000000000E+00 -0.00000000000E+00 -0.74505805969E-08  0.93827000000E+00  0.93827000000E+00 0.  1.
     999902    2    1    2    0    0 -0.12791463435E-01 -0.28233254617E-03  0.20905815346E-01  0.10194197090E+01  0.10191250114E+01 0.  0.
     999903    2    3    3    0    0 -0.80648659907E-01  0.85256484362E-01  0.56974063601E-01  0.13193877580E+00  0.19721109617E-01 0.  0.
         14    1    1    2    0    0  0.12791463435E-01  0.28233254617E-03 -0.20905815346E-01  0.24510290977E-01  0.00000000000E+00 0. -1.
     999901    1    3    3    0    0  0.67857196472E-01 -0.85538816908E-01 -0.36068248255E-01  0.88748093323E+00  0.88000000000E+00 0.  1.
        -11    1    4    4    0    0 -0.59515487330E-01  0.73784662195E-01  0.48102622400E-01  0.10630330668E+00  0.51100000000E-03 0.  1.
         11    1    4    4    0    0 -0.21133172577E-01  0.11471822167E-01  0.88714412006E-02  0.25635469119E-01  0.51100000000E-03 0. -1.
</event>
<event>
 8    1  0.1119901E+005  0.1043930E+01  0.7957747E-01            NaN
         13   -1    0    0    0    0  0.00000000000E+00  0.00000000000E+00  0.74505805969E-08  0.10566000000E+00  0.10566000000E+00 0. -1.
     999900   -1    0    0    0    0 -0.00000000000E+00 -0.00000000000E+00 -0.74505805969E-08  0.93827000000E+00  0.93827000000E+00 0.  1.
     999902    2    1    2    0    0 -0.97116808830E-03  0.20592818129E-01  0.11688744154E-01  0.10202311801E+01  0.10199558945E+01 0.  0.
     999903    2    3    3    0    0 -0.90201945089E-01 -0.73176730070E-01  0.54081281914E-01  0.12975266434E+00  0.20487657929E-01 0.  0.
         14    1    1    2    0    0  0.97116808830E-03 -0.20592818129E-01 -0.11688744154E-01  0.23698819925E-01  0.00000000000E+00 0.  1.
     999901    1    3    3    0    0  0.89230777001E-01  0.93769548199E-01 -0.42392537760E-01  0.89047851574E+00  0.88000000000E+00 0. -1.
        -11    1    4    4    0    0 -0.30204234078E-01 -0.18754683787E-01  0.25885060692E-01  0.43981034642E-01  0.51100000000E-03 0.  1.
         11    1    4    4    0    0 -0.59997711012E-01 -0.54422046283E-01  0.28196221222E-01  0.85771629695E-01  0.51100000000E-03 0. -1.
</event>
<event>
 8    1  0.1119901E+005  0.1043930E+01  0.7957747E-01            NaN
         13   -1    0    0    0    0  0.00000000000E+00  0.00000000000E+00  0.74505805969E-08  0.10566000000E+00  0.10566000000E+00 0. -1.
     999900   -1    0    0    0    0 -0.00000000000E+00 -0.00000000000E+00 -0.74505805969E-08  0.93827000000E+00  0.93827000000E+00 0. -1.
     999902    2    1    2    0    0 -0.89734944252E-02  0.19111327926E-01  0.11178137395E-01  0.10200403116E+01  0.10197605209E+01 0.  0.
     999903    2    3    3    0    0 -0.34468644109E-01 -0.48565384641E-01 -0.11208627814E+00  0.12851114424E+00  0.20127007584E-01 0.  0.
         14    1    1    2    0    0  0.89734944252E-02 -0.19111327926E-01 -0.11178137395E-01  0.23889688422E-01  0.00000000000E+00 0.  1.
     999901    1    3    3    0    0  0.25495149684E-01  0.67676712567E-01  0.12326441553E+00  0.89152916734E+00  0.88000000000E+00 0.  1.
        -11    1    4    4    0    0 -0.13606623821E-01 -0.20436784424E-01 -0.67401881483E-01  0.71736163250E-01  0.51100000000E-03 0. -1.
         11    1    4    4    0    0 -0.20862020288E-01 -0.28128600217E-01 -0.44684396656E-01  0.56774980988E-01  0.51100000000E-03 0.  1.
</event>
<event>
 8    1  0.1119901E+005  0.1043930E+01  0.7957747E-01            NaN
         13   -1    0    0    0    0  0.00000000000E+00  0.00000000000E+00  0.74505805969E-08  0.10566000000E+00  0.10566000000E+00 0. -1.
     999900   -1    0    0    0    0 -0.00000000000E+00 -0.00000000000E+00 -0.74505805969E-08  0.93827000000E+00  0.93827000000E+00 0. -1.
     999902    2    1    2    0    0  0.14318682674E-01  0.32459462020E-03 -0.18400092847E-01  0.10206127649E+01  0.10203463738E+01 0.  0.
     999903    2    3    3    0    0  0.31920451192E-01 -0.12232745324E+00 -0.31921257572E-01  0.13182923166E+00  0.19417997134E-01 0.  0.
         14    1    1    2    0    0 -0.14318682674E-01 -0.32459462020E-03  0.18400092847E-01  0.23317235084E-01  0.00000000000E+00 0. -1.
     999901    1    3    3    0    0 -0.17601768518E-01  0.12265204786E+00  0.13521164725E-01  0.88878353326E+00  0.88000000000E+00 0. -1.
        -11    1    4    4    0    0  0.11231376554E-01 -0.16908473632E-01 -0.26177991475E-02  0.20473258002E-01  0.51100000000E-03 0.  1.
         11    1    4    4    0    0  0.20689074638E-01 -0.10541897961E+00 -0.29303458424E-01  0.11135597365E+00  0.51100000000E-03 0. -1.
</event>
<event>
 8    1  0.1119901E+005  0.1043930E+01  0.7957747E-01            NaN
         13   -1    0    0    0    0  0.00000000000E+00  0.00000000000E+00  0.74505805969E-08  0.10566000000E+00  0.10566000000E+00 0.  1.
     999900   -1    0    0    0    0 -0.00000000000E+00 -0.00000000000E+00 -0.74505805969E-08  0.93827000000E+00  0.93827000000E+00 0. -1.
     999902    2    1    2    0    0 -0.14192751185E-01 -0.64848994920E-03 -0.21015531862E-01  0.10185625542E+01  0.10182466153E+01 0.  0.
     999903    2    3    3    0    0  0.92890361966E-01 -0.65630989132E-01 -0.57562080470E-01  0.12894175381E+00  0.19404553261E-01 0.  0.
         14    1    1    2    0    0  0.14192751185E-01  0.64848994920E-03  0.21015531862E-01  0.25367445769E-01  0.00000000000E+00 0.  1.
     999901    1    3    3    0    0 -0.10708311315E+00  0.64982499183E-01  0.36546548608E-01  0.88962080042E+00  0.88000000000E+00 0.  1.
        -11    1    4    4    0    0  0.40213688814E-01 -0.38596039744E-01 -0.22374041501E-01  0.60063748684E-01  0.51100000000E-03 0.  1.
         11    1    4    4    0    0  0.52676673152E-01 -0.27034949389E-01 -0.35188038970E-01  0.68878005128E-01  0.51100000000E-03 0. -1.
</event>
<event>
 8    1  0.1119901E+005  0.1043930E+01  0.7957747E-01            NaN
         13   -1    0    0    0    0  0.00000000000E+00  0.00000000000E+00  0.74505805969E-08  0.10566000000E+00  0.10566000000E+00 0.  1.
     999900   -1    0    0    0    0 -0.00000000000E+00 -0.00000000000E+00 -0.74505805969E-08  0.93827000000E+00  0.93827000000E+00 0.  1.
     999902    2    1    2    0    0  0.51693570024E-02  0.94037916712E-02  0.21635135517E-01  0.10197797901E+01  0.10194937899E+01 0.  0.
     999903    2    3    3    0    0  0.12178720576E+00 -0.91898812854E-02 -0.39084514220E-01  0.12981781159E+00  0.20211074921E-01 0.  0.
         14    1    1    2    0    0 -0.51693570024E-02 -0.94037916712E-02 -0.21635135517E-01  0.24150209905E-01  0.00000000000E+00 0. -1.
     999901    1    3    3    0    0 -0.11661784876E+00  0.18593672957E-01  0.60719649737E-01  0.88996197851E+00  0.88000000000E+00 0.  1.
        -11    1    4    4    0    0  0.53403819019E-01 -0.13003174433E-01 -0.12659302140E-01  0.56405402958E-01  0.51100000000E-03 0.  1.
         11    1    4    4    0    0  0.68383386739E-01  0.38132931475E-02 -0.26425212080E-01  0.73412408631E-01  0.51100000000E-03 0. -1.
</event>
<event>
 8    1  0.1119901E+005  0.1043930E+01  0.7957747E-01            NaN
         13   -1    0    0    0    0  0.00000000000E+00  0.00000000000E+00  0.74505805969E-08  0.10566000000E+00  0.10566000000E+00 0.  1.
     999900   -1    0    0    0    0 -0.00000000000E+00 -0.00000000000E+00 -0.74505805969E-08  0.93827000000E+00  0.93827000000E+00 0.  1.
     999902    2    1    2    0    0 -0.11708374019E-01  0.15894070215E-01  0.99014846941E-03  0.10241641738E+01  0.10239734211E+01 0.  0.
     999903    2    3    3    0    0  0.84443792374E-01 -0.13654285164E-01 -0.99540829879E-01  0.13274686302E+00  0.19903749757E-01 0.  0.
         14    1    1    2    0    0  0.11708374019E-01 -0.15894070215E-01 -0.99014846941E-03  0.19765826170E-01  0.00000000000E+00 0.  1.
     999901    1    3    3    0    0 -0.96152166392E-01  0.29548355380E-01  0.10053097835E+00  0.89141731081E+00  0.88000000000E+00 0. -1.
        -11    1    4    4    0    0  0.39494967781E-01  0.14069554609E-02 -0.35936705579E-01  0.53418535478E-01  0.51100000000E-03 0.  1.
         11    1    4    4    0    0  0.44948824592E-01 -0.15061240625E-01 -0.63604124300E-01  0.79328327541E-01  0.51100000000E-03 0. -1.
</event>
<event>
 8    1  0.1119901E+005  0.1043930E+01  0.7957747E-01            NaN
         13   -1    0    0    0    0  0.00000000000E+00  0.00000000000E+00  0.74505805969E-08  0.10566000000E+00  0.10566000000E+00 0.  1.
     999900   -1    0    0    0    0 -0.00000000000E+00 -0.00000000000E+00 -0.74505805969E-08  0.93827000000E+00  0.93827000000E+00 0. -1.
     999902    2    1    2    0    0  0.12940967703E-01 -0.13499552568E-01  0.23789243834E-01  0.10136705438E+01  0.10132188000E+01 0.  0.
     999903    2    3    3    0    0  0.81833252937E-01 -0.85879987844E-01 -0.36667280877E-01  0.12595433595E+00  0.21164868525E-01 0.  0.
         14    1    1    2    0    0 -0.12940967703E-01  0.13499552568E-01 -0.23789243834E-01  0.30259456155E-01  0.00000000000E+00 0. -1.
     999901    1    3    3    0    0 -0.68892285234E-01  0.72380435276E-01  0.60456524711E-01  0.88771620789E+00  0.88000000000E+00 0.  1.
        -11    1    4    4    0    0  0.35157150130E-01 -0.22360177182E-01 -0.13139941241E-01  0.43691210851E-01  0.51100000000E-03 0. -1.
         11    1    4    4    0    0  0.46676102808E-01 -0.63519810663E-01 -0.23527339636E-01  0.82263125101E-01  0.51100000000E-03 0.  1.
</event>
<event>
 8    1  0.1119901E+005  0.1043930E+01  0.7957747E-01            NaN
         13   -1    0    0    0    0  0.00000000000E+00  0.00000000000E+00  0.74505805969E-08  0.10566000000E+00  0.10566000000E+00 0. -1.
     999900   -1    0    0    0    0 -0.00000000000E+00 -0.00000000000E+00 -0.74505805969E-08  0.93827000000E+00  0.93827000000E+00 0.  1.
     999902    2    1    2    0    0  0.12465561463E-01  0.20088665384E-01 -0.74406722992E-02  0.10191447563E+01  0.10188433275E+01 0.  0.
     999903    2    3    3    0    0  0.37206816323E-01 -0.11222721200E+00  0.43362398808E-01  0.12746063449E+00  0.19662691075E-01 0.  0.
         14    1    1    2    0    0 -0.12465561463E-01 -0.20088665384E-01  0.74406722992E-02  0.24785243670E-01  0.00000000000E+00 0.  1.
     999901    1    3    3    0    0 -0.24741254860E-01  0.13231587739E+00 -0.50803071107E-01  0.89168412184E+00  0.88000000000E+00 0.  1.
        -11    1    4    4    0    0  0.18735869481E-01 -0.78902581878E-01  0.23204845247E-01  0.84352689324E-01  0.51100000000E-03 0.  1.
         11    1    4    4    0    0  0.18470946842E-01 -0.33324630125E-01  0.20157553561E-01  0.43107945170E-01  0.51100000000E-03 0. -1.
</event>
<event>
 8    1  0.1119901E+005  0.1043930E+01  0.7957747E-01            NaN
         13   -1    0    0    0    0  0.00000000000E+00  0.00000000000E+00  0.74505805969E-08  0.10566000000E+00  0.10566000000E+00 0. -1.
     999900   -1    0    0    0    0 -0.00000000000E+00 -0.00000000000E+00 -0.74505805969E-08  0.93827000000E+00  0.93827000000E+00 0. -1.
     999902    2    1    2    0    0 -0.15694389870E-01 -0.17606512053E-01  0.34364949006E-02  0.10200948865E+01  0.10198163878E+01 0.  0.
     999903    2    3    3    0    0  0.67002233241E-01 -0.65039229859E-01  0.89724238026E-01  0.13075008898E+00  0.18048440382E-01 0.  0.
         14    1    1    2    0    0  0.15694389870E-01  0.17606512053E-01 -0.34364949006E-02  0.23835113535E-01  0.00000000000E+00 0.  1.
     999901    1    3    3    0    0 -0.82696623110E-01  0.47432717806E-01 -0.86287743125E-01  0.88934479748E+00  0.88000000000E+00 0. -1.
        -11    1    4    4    0    0  0.14803167025E-01 -0.13068046378E-01  0.97717910250E-02  0.22037618087E-01  0.51100000000E-03 0. -1.
         11    1    4    4    0    0  0.52199066215E-01 -0.51971183481E-01  0.79952447000E-01  0.10871247090E+00  0.51100000000E-03 0.  1.
</event>
<event>
 8    1  0.1119901E+005  0.1043930E+01  0.7957747E-01            NaN
         13   -1    0    0    0    0  0.00000000000E+00  0.00000000000E+00  0.74505805969E-08  0.10566000000E+00  0.10566000000E+00 0.  1.
     999900   -1    0    0    0    0 -0.00000000000E+00 -0.00000000000E+00 -0.74505805969E-08  0.93827000000E+00  0.93827000000E+00 0. -1.
     999902    2    1    2    0    0  0.75159392735E-02  0.47482260773E-02  0.22983564760E-01  0.10192869636E+01  0.10189890259E+01 0.  0.
     999903    2    3    3    0    0  0.48090714652E-01  0.11010798600E+00 -0.44019127339E-01  0.12954747804E+00  0.20208416041E-01 0.  0.
         14    1    1    2    0    0 -0.75159392735E-02 -0.47482260773E-02 -0.22983564760E-01  0.24643036403E-01  0.00000000000E+00 0. -1.
     999901    1    3    3    0    0 -0.40574775378E-01 -0.10535975992E+00  0.67002692099E-01  0.88973948556E+00  0.88000000000E+00 0.  1.
        -11    1    4    4    0    0  0.35139938395E-01  0.64940568261E-01 -0.18704297441E-01  0.76172203199E-01  0.51100000000E-03 0.  1.
         11    1    4    4    0    0  0.12950776257E-01  0.45167417738E-01 -0.25314829898E-01  0.53375274843E-01  0.51100000000E-03 0. -1.
</event>
<event>
 8    1  0.1119901E+005  0.1043930E+01  0.7957747E-01            NaN
         13   -1    0    0    0    0  0.00000000000E+00  0.00000000000E+00  0.74505805969E-08  0.10566000000E+00  0.10566000000E+00 0. -1.
     999900   -1    0    0    0    0 -0.00000000000E+00 -0.00000000000E+00 -0.74505805969E-08  0.93827000000E+00  0.93827000000E+00 0.  1.
     999902    2    1    2    0    0 -0.11251171674E-01  0.52749604750E-02 -0.20722396362E-01  0.10197673887E+01  0.10194810912E+01 0.  0.
     999903    2    3    3    0    0 -0.11820641748E+00 -0.36330601822E-01 -0.42009586560E-01  0.13206045969E+00  0.19557348668E-01 0.  0.
         14    1    1    2    0    0  0.11251171674E-01 -0.52749604750E-02  0.20722396362E-01  0.24162611263E-01  0.00000000000E+00 0. -1.
     999901    1    3    3    0    0  0.10695524581E+00  0.41605562297E-01  0.21287190198E-01  0.88770692905E+00  0.88000000000E+00 0. -1.
        -11    1    4    4    0    0 -0.69023283095E-01 -0.12520938603E-01 -0.28852482374E-01  0.75853242335E-01  0.51100000000E-03 0.  1.
         11    1    4    4    0    0 -0.49183134386E-01 -0.23809663219E-01 -0.13157104186E-01  0.56207217350E-01  0.51100000000E-03 0. -1.
</event>
<event>
 8    1  0.1119901E+005  0.1043930E+01  0.7957747E-01            NaN
         13   -1    0    0    0    0  0.00000000000E+00  0.00000000000E+00  0.74505805969E-08  0.10566000000E+00  0.10566000000E+00 0.  1.
     999900   -1    0    0    0    0 -0.00000000000E+00 -0.00000000000E+00 -0.74505805969E-08  0.93827000000E+00  0.93827000000E+00 0. -1.
     999902    2    1    2    0    0 -0.82762772405E-02  0.18709722189E-01  0.78385302773E-02  0.10220212569E+01  0.10217864045E+01 0.  0.
     999903    2    3    3    0    0 -0.11382892022E+00  0.55088175688E-01 -0.39380126252E-01  0.13371142698E+00  0.18336335074E-01 0.  0.
         14    1    1    2    0    0  0.82762772405E-02 -0.18709722189E-01 -0.78385302773E-02  0.21908743147E-01  0.00000000000E+00 0.  1.
     999901    1    3    3    0    0  0.10555264298E+00 -0.36378453499E-01  0.47218656529E-01  0.88830982987E+00  0.88000000000E+00 0.  1.
        -11    1    4    4    0    0 -0.16507825653E-01  0.15182139683E-01 -0.95110742715E-02  0.24366520636E-01  0.51100000000E-03 0.  1.
         11    1    4    4    0    0 -0.97321094565E-01  0.39906036005E-01 -0.29869051981E-01  0.10934490635E+00  0.51100000000E-03 0. -1.
</event>
<event>
 8    1  0.1119901E+005  0.1043930E+01  0.7957747E-01            NaN
         13   -1    0    0    0    0  0.00000000000E+00  0.00000000000E+00  0.74505805969E-08  0.10566000000E+00  0.10566000000E+00 0.  1.
     999900   -1    0    0    0    0 -0.00000000000E+00 -0.00000000000E+00 -0.74505805969E-08  0.93827000000E+00  0.93827000000E+00 0. -1.
     999902    2    1    2    0    0  0.47127214553E-02 -0.20140990148E-01  0.42346717251E-02  0.10228159840E+01  0.10225980322E+01 0.  0.
     999903    2    3    3    0    0  0.59984713431E-01 -0.22190406206E-01  0.11606631334E+00  0.13401594502E+00  0.19957566340E-01 0.  0.
         14    1    1    2    0    0 -0.47127214553E-02  0.20140990148E-01 -0.42346717251E-02  0.21114016015E-01  0.00000000000E+00 0. -1.
     999901    1    3    3    0    0 -0.55271991976E-01  0.20494160579E-02 -0.11183164161E+00  0.88880003897E+00  0.88000000000E+00 0. -1.
        -11    1    4    4    0    0  0.37622178818E-01 -0.34251948822E-02  0.67117721239E-01  0.77020840844E-01  0.51100000000E-03 0.  1.
         11    1    4    4    0    0  0.22362534614E-01 -0.18765211324E-01  0.48948592098E-01  0.56995104173E-01  0.51100000000E-03 0. -1.
</event>
<event>
 8    1  0.1119901E+005  0.1043930E+01  0.7957747E-01            NaN
         13   -1    0    0    0    0  0.00000000000E+00  0.00000000000E+00  0.74505805969E-08  0.10566000000E+00  0.10566000000E+00 0.  1.
     999900   -1    0    0    0    0 -0.00000000000E+00 -0.00000000000E+00 -0.74505805969E-08  0.93827000000E+00  0.93827000000E+00 0. -1.
     999902    2    1    2    0    0  0.13060599690E-01  0.79234411990E-02  0.18591589986E-01  0.10198674273E+01  0.10195835238E+01 0.  0.
     999903    2    3    3    0    0  0.16005268269E-01  0.12737817768E+00  0.22205535590E-01  0.13178456761E+00  0.19817105990E-01 0.  0.
         14    1    1    2    0    0 -0.13060599690E-01 -0.79234411990E-02 -0.18591589986E-01  0.24062572658E-01  0.00000000000E+00 0. -1.
     999901    1    3    3    0    0 -0.29446685790E-02 -0.11945473648E+00 -0.36139456036E-02  0.88808285973E+00  0.88000000000E+00 0.  1.
        -11    1    4    4    0    0  0.61524481849E-02  0.75428856923E-01  0.37336457415E-02  0.75773123909E-01  0.51100000000E-03 0.  1.
         11    1    4    4    0    0  0.98528200841E-02  0.51949320753E-01  0.18471889848E-01  0.56011443705E-01  0.51100000000E-03 0. -1.
</event>
<event>
 8    1  0.1196757E+005  0.1043930E+01  0.7957747E-01            NaN
         13   -1    0    0    0    0  0.00000000000E+00  0.00000000000E+00  0.74505805969E-08  0.10566000000E+00  0.10566000000E+00 0.  1.
     999900   -1    0    0    0    0 -0.00000000000E+00 -0.00000000000E+00 -0.74505805969E-08  0.93827000000E+00  0.93827000000E+00 0.  1.
     999902    2    1    2    0    0  0.19553681501E-02  0.15643965340E-01 -0.19545464361E-01  0.10188186023E+01  0.10185090879E+01 0.  0.
     999903    2    3    3    0    0 -0.36765765787E-01 -0.86393158395E-01 -0.86863381062E-01  0.12952528584E+00  0.20397385890E-01 0.  0.
         14    1    1    2    0    0 -0.19553681501E-02 -0.15643965340E-01  0.19545464361E-01  0.25111397676E-01  0.00000000000E+00 0.  1.
     999901    1    3    3    0    0  0.38721133937E-01  0.10203712374E+00  0.67317916701E-01  0.88929331648E+00  0.88000000000E+00 0.  1.
        -11    1    4    4    0    0 -0.36268764626E-01 -0.63144030019E-01 -0.65714451174E-01  0.98087930087E-01  0.51100000000E-03 0.  1.
         11    1    4    4    0    0 -0.49700116077E-03 -0.23249128375E-01 -0.21148929888E-01  0.31437355753E-01  0.51100000000E-03 0. -1.
</event>
<event>
 8    1  0.1119901E+005  0.1043930E+01  0.7957747E-01            NaN
         13   -1    0    0    0    0  0.00000000000E+00  0.00000000000E+00  0.74505805969E-08  0.10566000000E+00  0.10566000000E+00 0. -1.
     999900   -1    0    0    0    0 -0.00000000000E+00 -0.00000000000E+00 -0.74505805969E-08  0.93827000000E+00  0.93827000000E+00 0. -1.
     999902    2    1    2    0    0 -0.26816352186E-02 -0.81163047067E-02  0.22407271241E-01  0.10199476862E+01  0.10196656958E+01 0.  0.
     999903    2    3    3    0    0  0.11636190797E+00  0.50239974595E-01  0.21351739848E-01  0.13001626490E+00  0.19600603847E-01 0.  0.
         14    1    1    2    0    0  0.26816352186E-02  0.81163047067E-02 -0.22407271241E-01  0.23982313775E-01  0.00000000000E+00 0.  1.
     999901    1    3    3    0    0 -0.11904354319E+00 -0.58356279302E-01  0.10555313933E-02  0.88993142132E+00  0.88000000000E+00 0. -1.
        -11    1    4    4    0    0  0.41172780436E-01  0.80591622618E-02  0.48443445136E-02  0.42235965005E-01  0.51100000000E-03 0.  1.
         11    1    4    4    0    0  0.75189127534E-01  0.42180812334E-01  0.16507395335E-01  0.87780299898E-01  0.51100000000E-03 0. -1.
</event>
<event>
 8    1  0.1119901E+005  0.1043930E+01  0.7957747E-01            NaN
         13   -1    0    0    0    0  0.00000000000E+00  0.00000000000E+00  0.74505805969E-08  0.10566000000E+00  0.10566000000E+00 0. -1.
     999900   -1    0    0    0    0 -0.00000000000E+00 -0.00000000000E+00 -0.74505805969E-08  0.93827000000E+00  0.93827000000E+00 0. -1.
     999902    2    1    2    0    0 -0.17750842180E-01 -0.15773287000E-01  0.23722820860E-02  0.10200654509E+01  0.10197862558E+01 0.  0.
     999903    2    3    3    0    0  0.21889718499E-01 -0.79113559163E-01 -0.99993814566E-01  0.13098604958E+00  0.20505297212E-01 0.  0.
         14    1    1    2    0    0  0.17750842180E-01  0.15773287000E-01 -0.23722820860E-02  0.23864549088E-01  0.00000000000E+00 0. -1.
     999901    1    3    3    0    0 -0.39640560679E-01  0.63340272164E-01  0.10236609665E+00  0.88907940133E+00  0.88000000000E+00 0.  1.
        -11    1    4    4    0    0  0.64098334091E-02 -0.15238988969E-01 -0.34190367745E-01  0.37980983619E-01  0.51100000000E-03 0.  1.
         11    1    4    4    0    0  0.15479885090E-01 -0.63874570195E-01 -0.65803446820E-01  0.93005065961E-01  0.51100000000E-03 0. -1.
</event>
<event>
 8    1  0.1119901E+005  0.1043930E+01  0.7957747E-01            NaN
         13   -1    0    0    0    0  0.00000000000E+00  0.00000000000E+00  0.74505805969E-08  0.10566000000E+00  0.10566000000E+00 0.  1.
     999900   -1    0    0    0    0 -0.00000000000E+00 -0.00000000000E+00 -0.74505805969E-08  0.93827000000E+00  0.93827000000E+00 0.  1.
     999902    2    1    2    0    0  0.13779351405E-01 -0.13004692082E-01 -0.17214822184E-01  0.10183303390E+01  0.10180085150E+01 0.  0.
     999903    2    3    3    0    0 -0.51501457357E-01  0.52727754932E-01 -0.10424287305E+00  0.12919805399E+00  0.19822823270E-01 0.  0.
         14    1    1    2    0    0 -0.13779351405E-01  0.13004692082E-01  0.17214822184E-01  0.25599661015E-01  0.00000000000E+00 0. -1.
     999901    1    3    3    0    0  0.65280808763E-01 -0.65732447014E-01  0.87028050868E-01  0.88913228500E+00  0.88000000000E+00 0. -1.
        -11    1    4    4    0    0 -0.15919814997E-01  0.50583181467E-02 -0.26039157728E-01  0.30940684352E-01  0.51100000000E-03 0. -1.
         11    1    4    4    0    0 -0.35581642360E-01  0.47669436785E-01 -0.78203715324E-01  0.98257369637E-01  0.51100000000E-03 0.  1.
</event>
<event>
 8    1  0.1119901E+005  0.1043930E+01  0.7957747E-01            NaN
         13   -1    0    0    0    0  0.00000000000E+00  0.00000000000E+00  0.74505805969E-08  0.10566000000E+00  0.10566000000E+00 0. -1.
     999900   -1    0    0    0    0 -0.00000000000E+00 -0.00000000000E+00 -0.74505805969E-08  0.93827000000E+00  0.93827000000E+00 0. -1.
     999902    2    1    2    0    0  0.38428027480E-02  0.21951283500E-01  0.74198766502E-02  0.10204421191E+01  0.10201717688E+01 0.  0.
     999903    2    3    3    0    0  0.51265380689E-01  0.32107655262E-03  0.11952697830E+00  0.13180002635E+00  0.21361321522E-01 0.  0.
         14    1    1    2    0    0 -0.38428027480E-02 -0.21951283500E-01 -0.74198766502E-02  0.23487880913E-01  0.00000000000E+00 0.  1.
     999901    1    3    3    0    0 -0.47422577941E-01  0.21630206948E-01 -0.11210710165E+00  0.88864209274E+00  0.88000000000E+00 0. -1.
        -11    1    4    4    0    0  0.41132797216E-02  0.57758089413E-03  0.32943133187E-01  0.33207887842E-01  0.51100000000E-03 0. -1.
         11    1    4    4    0    0  0.47152100967E-01 -0.25650434152E-03  0.86583845109E-01  0.98592138505E-01  0.51100000000E-03 0.  1.
</event>
<event>
 8    1  0.1119901E+005  0.1043930E+01  0.7957747E-01            NaN
         13   -1    0    0    0    0  0.00000000000E+00  0.00000000000E+00  0.74505805969E-08  0.10566000000E+00  0.10566000000E+00 0. -1.
     999900   -1    0    0    0    0 -0.00000000000E+00 -0.00000000000E+00 -0.74505805969E-08  0.93827000000E+00  0.93827000000E+00 0. -1.
     999902    2    1    2    0    0 -0.15160040035E-01 -0.15832682246E-01  0.90530257199E-02  0.10202138048E+01  0.10199381106E+01 0.  0.
     999903    2    3    3    0    0 -0.95026863804E-01  0.10160836117E-01 -0.87419329198E-01  0.13096620833E+00  0.19407760590E-01 0.  0.
         14    1    1    2    0    0  0.15160040035E-01  0.15832682246E-01 -0.90530257199E-02  0.23716195219E-01  0.00000000000E+00 0.  1.
     999901    1    3    3    0    0  0.79866823769E-01 -0.25993518363E-01  0.96472354918E-01  0.88924759645E+00  0.88000000000E+00 0.  1.
        -11    1    4    4    0    0 -0.75636924712E-01  0.42989930705E-02 -0.58809481933E-01  0.95907465859E-01  0.51100000000E-03 0. -1.
         11    1    4    4    0    0 -0.19389939092E-01  0.58618430469E-02 -0.28609847266E-01  0.35058742468E-01  0.51100000000E-03 0.  1.
</event>
<event>
 8    1  0.1119901E+005  0.1043930E+01  0.7957747E-01            NaN
         13   -1    0    0    0    0  0.00000000000E+00  0.00000000000E+00  0.74505805969E-08  0.10566000000E+00  0.10566000000E+00 0.  1.
     999900   -1    0    0    0    0 -0.00000000000E+00 -0.00000000000E+00 -0.74505805969E-08  0.93827000000E+00  0.93827000000E+00 0. -1.
     999902    2    1    2    0    0  0.13233036628E-01 -0.18070338026E-01 -0.29952923494E-02  0.10213330500E+01  0.10210830411E+01 0.  0.
     999903    2    3    3    0    0 -0.11964701236E+00  0.36906658473E-01  0.25481971090E-01  0.12920607912E+00  0.19166925280E-01 0.  0.
         14    1    1    2    0    0 -0.13233036628E-01  0.18070338026E-01  0.29952923494E-02  0.22596950039E-01  0.00000000000E+00 0.  1.
     999901    1    3    3    0    0  0.13288004899E+00 -0.54976996500E-01 -0.28477263439E-01  0.89212697084E+00  0.88000000000E+00 0. -1.
        -11    1    4    4    0    0 -0.10908176709E+00  0.27780852887E-01  0.24507633631E-01  0.11520196581E+00  0.51100000000E-03 0. -1.
         11    1    4    4    0    0 -0.10565245271E-01  0.91258055865E-02  0.97433745908E-03  0.14004113315E-01  0.51100000000E-03 0.  1.
</event>
<event>
 8    1  0.1119901E+005  0.1043930E+01  0.7957747E-01            NaN
         13   -1    0    0    0    0  0.00000000000E+00  0.00000000000E+00  0.74505805969E-08  0.10566000000E+00  0.10566000000E+00 0. -1.
     999900   -1    0    0    0    0 -0.00000000000E+00 -0.00000000000E+00 -0.74505805969E-08  0.93827000000E+00  0.93827000000E+00 0. -1.
     999902    2    1    2    0    0 -0.50873778168E-03 -0.18243439081E-01  0.37210188262E-02  0.10253040003E+01  0.10251348034E+01 0.  0.
     999903    2    3    3    0    0 -0.13164621207E+00 -0.69073998664E-02 -0.23631636790E-01  0.13509407522E+00  0.17706427560E-01 0.  0.
         14    1    1    2    0    0  0.50873778168E-03  0.18243439081E-01 -0.37210188262E-02  0.18625999697E-01  0.00000000000E+00 0. -1.
     999901    1    3    3    0    0  0.13113747429E+00 -0.11336039214E-01  0.27352655616E-01  0.89020992508E+00  0.88000000000E+00 0.  1.
        -11    1    4    4    0    0 -0.70242234617E-01 -0.12479595743E-01 -0.11907590321E-01  0.72330931572E-01  0.51100000000E-03 0.  1.
         11    1    4    4    0    0 -0.61403977452E-01  0.55721958762E-02 -0.11724046469E-01  0.62763143647E-01  0.51100000000E-03 0. -1.
</event>
<event>
 8    1  0.1119901E+005  0.1043930E+01  0.7957747E-01            NaN
         13   -1    0    0    0    0  0.00000000000E+00  0.00000000000E+00  0.74505805969E-08  0.10566000000E+00  0.10566000000E+00 0.  1.
     999900   -1    0    0    0    0 -0.00000000000E+00 -0.00000000000E+00 -0.74505805969E-08  0.93827000000E+00  0.93827000000E+00 0. -1.
     999902    2    1    2    0    0 -0.14885978489E-01  0.15716687395E-01  0.12707420575E-01  0.10188285029E+01  0.10185192356E+01 0.  0.
     999903    2    3    3    0    0 -0.91155758550E-01 -0.87591450643E-01  0.19212398780E-01  0.12948494417E+00  0.20386268855E-01 0.  0.
         14    1    1    2    0    0  0.14885978489E-01 -0.15716687395E-01 -0.12707420575E-01  0.25101497085E-01  0.00000000000E+00 0. -1.
     999901    1    3    3    0    0  0.76269780062E-01  0.10330813804E+00 -0.65049782043E-02  0.88934355874E+00  0.88000000000E+00 0.  1.
        -11    1    4    4    0    0 -0.26859067515E-01 -0.15584570835E-01  0.10712963393E-04  0.31057198709E-01  0.51100000000E-03 0. -1.
         11    1    4    4    0    0 -0.64296691035E-01 -0.72006879809E-01  0.19201685816E-01  0.98427745464E-01  0.51100000000E-03 0.  1.
</event>
<event>
 8    1  0.1119901E+005  0.1043930E+01  0.7957747E-01            NaN
         13   -1    0    0    0    0  0.00000000000E+00  0.00000000000E+00  0.74505805969E-08  0.10566000000E+00  0.10566000000E+00 0.  1.
     999900   -1    0    0    0    0 -0.00000000000E+00 -0.00000000000E+00 -0.74505805969E-08  0.93827000000E+00  0.93827000000E+00 0.  1.
     999902    2    1    2    0    0  0.18216021683E-01  0.14259043963E-01  0.29460234318E-02  0.10206099907E+01  0.10203435354E+01 0.  0.
     999903    2    3    3    0    0 -0.11639567107E+00  0.32833399556E-01  0.41477218163E-01  0.12934686035E+00  0.19602711189E-01 0.  0.
         14    1    1    2    0    0 -0.18216021683E-01 -0.14259043963E-01 -0.29460234318E-02  0.23320009321E-01  0.00000000000E+00 0. -1.
     999901    1    3    3    0    0  0.13461169275E+00 -0.18574355593E-01 -0.38531194731E-01  0.89126313033E+00  0.88000000000E+00 0.  1.
        -11    1    4    4    0    0 -0.71707526154E-01  0.11062163296E-01  0.28628948895E-01  0.78001401268E-01  0.51100000000E-03 0. -1.
         11    1    4    4    0    0 -0.44688144917E-01  0.21771236260E-01  0.12848269268E-01  0.51345459084E-01  0.51100000000E-03 0.  1.
</event>
<event>
 8    1  0.1119901E+005  0.1043930E+01  0.7957747E-01            NaN
         13   -1    0    0    0    0  0.00000000000E+00  0.00000000000E+00  0.74505805969E-08  0.10566000000E+00  0.10566000000E+00 0.  1.
     999900   -1    0    0    0    0 -0.00000000000E+00 -0.00000000000E+00 -0.74505805969E-08  0.93827000000E+00  0.93827000000E+00 0.  1.
     999902    2    1    2    0    0  0.79363931700E-02 -0.15710922592E-01  0.16308020267E-01  0.10199347723E+01  0.10196524746E+01 0.  0.
     999903    2    3    3    0    0 -0.91877173632E-01  0.69193103301E-01 -0.51482185351E-01  0.12765289216E+00  0.20389823168E-01 0.  0.
         14    1    1    2    0    0 -0.79363931700E-02  0.15710922592E-01 -0.16308020267E-01  0.23995227656E-01  0.00000000000E+00 0. -1.
     999901    1    3    3    0    0  0.99813566802E-01 -0.84904025893E-01  0.67790205618E-01  0.89228188019E+00  0.88000000000E+00 0. -1.
        -11    1    4    4    0    0 -0.73752882914E-01  0.44617076084E-01 -0.36049275716E-01  0.93434375992E-01  0.51100000000E-03 0. -1.
         11    1    4    4    0    0 -0.18124290718E-01  0.24576027217E-01 -0.15432909635E-01  0.34218516166E-01  0.51100000000E-03 0.  1.
</event>
<event>
 8    1  0.1119901E+005  0.1043930E+01  0.7957747E-01            NaN
         13   -1    0    0    0    0  0.00000000000E+00  0.00000000000E+00  0.74505805969E-08  0.10566000000E+00  0.10566000000E+00 0. -1.
     999900   -1    0    0    0    0 -0.00000000000E+00 -0.00000000000E+00 -0.74505805969E-08  0.93827000000E+00  0.93827000000E+00 0. -1.
     999902    2    1    2    0    0  0.21759579158E-01 -0.75447378356E-02  0.75227572495E-02  0.10197020362E+01  0.10194141692E+01 0.  0.
     999903    2    3    3    0    0  0.34524732264E-02 -0.12528312127E+00 -0.31037999731E-01  0.13083511192E+00  0.21135019214E-01 0.  0.
         14    1    1    2    0    0 -0.21759579158E-01  0.75447378356E-02 -0.75227572495E-02  0.24227963818E-01  0.00000000000E+00 0.  1.
     999901    1    3    3    0    0  0.18307105932E-01  0.11773838344E+00  0.38560756980E-01  0.88886692426E+00  0.88000000000E+00 0.  1.
        -11    1    4    4    0    0 -0.46381082890E-02 -0.16070060123E-01 -0.94376598703E-02  0.19211700229E-01  0.51100000000E-03 0.  1.
         11    1    4    4    0    0  0.80905815154E-02 -0.10921306115E+00 -0.21600339861E-01  0.11162341169E+00  0.51100000000E-03 0. -1.
</event>
<event>
 8    1  0.1119901E+005  0.1043930E+01  0.7957747E-01            NaN
         13   -1    0    0    0    0  0.00000000000E+00  0.00000000000E+00  0.74505805969E-08  0.10566000000E+00  0.10566000000E+00 0. -1.
     999900   -1    0    0    0    0 -0.00000000000E+00 -0.00000000000E+00 -0.74505805969E-08  0.93827000000E+00  0.93827000000E+00 0.  1.
     999902    2    1    2    0    0  0.30724902606E-03  0.14673450226E-01  0.19110146954E-01  0.10198343103E+01  0.10195496154E+01 0.  0.
     999903    2    3    3    0    0  0.48077735490E-01  0.12037320565E+00  0.16697603850E-01  0.13221937241E+00  0.20049318624E-01 0.  0.
         14    1    1    2    0    0 -0.30724902606E-03 -0.14673450226E-01 -0.19110146954E-01  0.24095689659E-01  0.00000000000E+00 0.  1.
     999901    1    3    3    0    0 -0.47770486464E-01 -0.10569975543E+00  0.24125431041E-02  0.88761493793E+00  0.88000000000E+00 0.  1.
        -11    1    4    4    0    0  0.34449155705E-01  0.99988452537E-01  0.19476515553E-01  0.10753618344E+00  0.51100000000E-03 0. -1.
         11    1    4    4    0    0  0.13628579785E-01  0.20384753115E-01 -0.27789117029E-02  0.24683188971E-01  0.51100000000E-03 0.  1.
</event>
<event>
 8    1  0.1119901E+005  0.1043930E+01  0.7957747E-01            NaN
         13   -1    0    0    0    0  0.00000000000E+00  0.00000000000E+00  0.74505805969E-08  0.10566000000E+00  0.10566000000E+00 0.  1.
     999900   -1    0    0    0    0 -0.00000000000E+00 -0.00000000000E+00 -0.74505805969E-08  0.93827000000E+00  0.93827000000E+00 0.  1.
     999902    2    1    2    0    0 -0.34616031391E-02 -0.19348843269E-01  0.12847380495E-01  0.10204477595E+01  0.10201775406E+01 0.  0.
     999903    2    3    3    0    0 -0.18783811698E-02 -0.99189360092E-01  0.87390630523E-01  0.13369316504E+00  0.19866620329E-01 0.  0.
         14    1    1    2    0    0  0.34616031391E-02  0.19348843269E-01 -0.12847380495E-01  0.23482240475E-01  0.00000000000E+00 0.  1.
     999901    1    3    3    0    0 -0.15832219693E-02  0.79840516823E-01 -0.74543250028E-01  0.88675459449E+00  0.88000000000E+00 0.  1.
        -11    1    4    4    0    0  0.78500667913E-02 -0.36400553957E-01  0.26677807592E-01  0.45810374544E-01  0.51100000000E-03 0.  1.
         11    1    4    4    0    0 -0.97284479611E-02 -0.62788806136E-01  0.60712822931E-01  0.87882790494E-01  0.51100000000E-03 0. -1.
</event>
<event>
 8    1  0.1119901E+005  0.1043930E+01  0.7957747E-01            NaN
         13   -1    0    0    0    0  0.00000000000E+00  0.00000000000E+00  0.74505805969E-08  0.10566000000E+00  0.10566000000E+00 0. -1.
     999900   -1    0    0    0    0 -0.00000000000E+00 -0.00000000000E+00 -0.74505805969E-08  0.93827000000E+00  0.93827000000E+00 0.  1.
     999902    2    1    2    0    0 -0.19212199268E-01  0.73592493853E-02 -0.11743966204E-01  0.10202405953E+01  0.10199655310E+01 0.  0.
     999903    2    3    3    0    0 -0.81804243710E-01 -0.90091278564E-02  0.99963255126E-01  0.13082270079E+00  0.18676937457E-01 0.  0.
         14    1    1    2    0    0  0.19212199268E-01 -0.73592493853E-02  0.11743966204E-01  0.23689404687E-01  0.00000000000E+00 0. -1.
     999901    1    3    3    0    0  0.62592044443E-01  0.16368377242E-01 -0.11170722133E+00  0.88941789452E+00  0.88000000000E+00 0.  1.
        -11    1    4    4    0    0 -0.68313777758E-01 -0.13144683636E-01  0.76195297793E-01  0.10317722358E+00  0.51100000000E-03 0. -1.
         11    1    4    4    0    0 -0.13490465952E-01  0.41355557797E-02  0.23767957334E-01  0.27645477208E-01  0.51100000000E-03 0.  1.
</event>
<event>
 8    1  0.1119901E+005  0.1043930E+01  0.7957747E-01            NaN
         13   -1    0    0    0    0  0.00000000000E+00  0.00000000000E+00  0.74505805969E-08  0.10566000000E+00  0.10566000000E+00 0. -1.
     999900   -1    0    0    0    0 -0.00000000000E+00 -0.00000000000E+00 -0.74505805969E-08  0.93827000000E+00  0.93827000000E+00 0. -1.
     999902    2    1    2    0    0 -0.37368307601E-02  0.30960878084E-02 -0.22534683841E-01  0.10208787172E+01  0.10206184368E+01 0.  0.
     999903    2    3    3    0    0  0.11914153966E+00  0.49432407437E-01 -0.11797717174E-01  0.13106894488E+00  0.20040279486E-01 0.  0.
         14    1    1    2    0    0  0.37368307601E-02 -0.30960878084E-02  0.22534683841E-01  0.23051282820E-01  0.00000000000E+00 0. -1.
     999901    1    3    3    0    0 -0.12287837042E+00 -0.46336319629E-01 -0.10736966667E-01  0.88980977230E+00  0.88000000000E+00 0.  1.
        -11    1    4    4    0    0  0.73905858846E-01  0.38832030924E-01 -0.16222066944E-02  0.83503863821E-01  0.51100000000E-03 0.  1.
         11    1    4    4    0    0  0.45235680817E-01  0.10600376513E-01 -0.10175510479E-01  0.47565081055E-01  0.51100000000E-03 0. -1.
</event>
<event>
 8    1  0.1119901E+005  0.1043930E+01  0.7957747E-01            NaN
         13   -1    0    0    0    0  0.00000000000E+00  0.00000000000E+00  0.74505805969E-08  0.10566000000E+00  0.10566000000E+00 0.  1.
     999900   -1    0    0    0    0 -0.00000000000E+00 -0.00000000000E+00 -0.74505805969E-08  0.93827000000E+00  0.93827000000E+00 0.  1.
     999902    2    1    2    0    0 -0.18545742851E-01  0.38009481514E-02  0.15741947322E-01  0.10193088568E+01  0.10190114548E+01 0.  0.
     999903    2    3    3    0    0 -0.43942189085E-01 -0.11927652009E+00  0.20990958147E-01  0.13036532951E+00  0.19917193329E-01 0.  0.
         14    1    1    2    0    0  0.18545742851E-01 -0.38009481514E-02 -0.15741947322E-01  0.24621143155E-01  0.00000000000E+00 0. -1.
     999901    1    3    3    0    0  0.25396446234E-01  0.12307746824E+00 -0.52490108246E-02  0.88894352733E+00  0.88000000000E+00 0. -1.
        -11    1    4    4    0    0 -0.37985830964E-01 -0.97123300329E-01  0.95485014357E-02  0.10472484816E+00  0.51100000000E-03 0. -1.
         11    1    4    4    0    0 -0.59563581212E-02 -0.22153219757E-01  0.11442456711E-01  0.25640481358E-01  0.51100000000E-03 0.  1.
</event>
<event>
 8    1  0.1119901E+005  0.1043930E+01  0.7957747E-01            NaN
         13   -1    0    0    0    0  0.00000000000E+00  0.00000000000E+00  0.74505805969E-08  0.10566000000E+00  0.10566000000E+00 0. -1.
     999900   -1    0    0    0    0 -0.00000000000E+00 -0.00000000000E+00 -0.74505805969E-08  0.93827000000E+00  0.93827000000E+00 0. -1.
     999902    2    1    2    0    0 -0.22883919863E-01 -0.25901997606E-02  0.13690495069E-01  0.10171379755E+01  0.10167850552E+01 0.  0.
     999903    2    3    3    0    0  0.40495231381E-01  0.70846240824E-02  0.12007894832E+00  0.12841472158E+00  0.19527704020E-01 0.  0.
         14    1    1    2    0    0  0.22883919863E-01  0.25901997606E-02 -0.13690495069E-01  0.26792024528E-01  0.00000000000E+00 0.  1.
     999901    1    3    3    0    0 -0.63379151244E-01 -0.96748238430E-02 -0.10638845325E+00  0.88872325390E+00  0.88000000000E+00 0. -1.
        -11    1    4    4    0    0  0.21964985192E-01  0.39211251286E-02  0.36798607240E-01  0.43037593015E-01  0.51100000000E-03 0.  1.
         11    1    4    4    0    0  0.18530246189E-01  0.31634989538E-02  0.83280341083E-01  0.85377128561E-01  0.51100000000E-03 0. -1.
</event>
<event>
 8    1  0.1119901E+005  0.1043930E+01  0.7957747E-01            NaN
         13   -1    0    0    0    0  0.00000000000E+00  0.00000000000E+00  0.74505805969E-08  0.10566000000E+00  0.10566000000E+00 0.  1.
     999900   -1    0    0    0    0 -0.00000000000E+00 -0.00000000000E+00 -0.74505805969E-08  0.93827000000E+00  0.93827000000E+00 0.  1.
     999902    2    1    2    0    0 -0.22025333344E-01  0.43475210204E-02 -0.73329690024E-02  0.10203124497E+01  0.10200390710E+01 0.  0.
     999903    2    3    3    0    0  0.10216230425E+00 -0.20363540979E-02  0.73778434224E-01  0.12787624306E+00  0.21628523629E-01 0.  0.
         14    1    1    2    0    0  0.22025333344E-01 -0.43475210204E-02  0.73329690024E-02  0.23617550303E-01  0.00000000000E+00 0.  1.
     999901    1    3    3    0    0 -0.12418763759E+00  0.63838751183E-02 -0.81111403227E-01  0.89243620664E+00  0.88000000000E+00 0. -1.
        -11    1    4    4    0    0  0.49875590179E-01 -0.68898339601E-02  0.47216469927E-01  0.69026809727E-01  0.51100000000E-03 0.  1.
         11    1    4    4    0    0  0.52286714068E-01  0.48534798622E-02  0.26561964297E-01  0.58849433328E-01  0.51100000000E-03 0. -1.
</event>
<event>
 8    1  0.1119901E+005  0.1043930E+01  0.7957747E-01            NaN
         13   -1    0    0    0    0  0.00000000000E+00  0.00000000000E+00  0.74505805969E-08  0.10566000000E+00  0.10566000000E+00 0. -1.
     999900   -1    0    0    0    0 -0.00000000000E+00 -0.00000000000E+00 -0.74505805969E-08  0.93827000000E+00  0.93827000000E+00 0.  1.
     999902    2    1    2    0    0 -0.21129724688E-01 -0.19042733622E-02  0.10015892790E-01  0.10204691895E+01  0.10201994692E+01 0.  0.
     999903    2    3    3    0    0 -0.53871464364E-01  0.15557740153E-01 -0.11608887840E+00  0.13070553728E+00  0.21520498065E-01 0.  0.
         14    1    1    2    0    0  0.21129724688E-01  0.19042733622E-02 -0.10015892790E-01  0.23460810532E-01  0.00000000000E+00 0.  1.
     999901    1    3    3    0    0  0.32741739676E-01 -0.17462013515E-01  0.12610477119E+00  0.88976365219E+00  0.88000000000E+00 0. -1.
        -11    1    4    4    0    0 -0.82798345472E-02 -0.28214840709E-02 -0.33185848094E-01  0.34323141861E-01  0.51100000000E-03 0.  1.
         11    1    4    4    0    0 -0.45591629817E-01  0.18379224224E-01 -0.82903030306E-01  0.96382395422E-01  0.51100000000E-03 0. -1.
</event>
<event>
 8    1  0.1119901E+005  0.1043930E+01  0.7957747E-01            NaN
         13   -1    0    0    0    0  0.00000000000E+00  0.00000000000E+00  0.74505805969E-08  0.10566000000E+00  0.10566000000E+00 0.  1.
     999900   -1    0    0    0    0 -0.00000000000E+00 -0.00000000000E+00 -0.74505805969E-08  0.93827000000E+00  0.93827000000E+00 0.  1.
     999902    2    1    2    0    0 -0.13341990901E-01  0.16017696202E-01 -0.82330049363E-02  0.10215166628E+01  0.10212707451E+01 0.  0.
     999903    2    3    3    0    0 -0.12783404338E+00  0.33829273904E-01 -0.46129553618E-02  0.13391383096E+00  0.20631828503E-01 0.  0.
         14    1    1    2    0    0  0.13341990901E-01 -0.16017696202E-01  0.82330049363E-02  0.22413337170E-01  0.00000000000E+00 0.  1.
     999901    1    3    3    0    0  0.11449205247E+00 -0.17811577702E-01 -0.36200495745E-02  0.88760283187E+00  0.88000000000E+00 0.  1.
        -11    1    4    4    0    0 -0.54829282231E-01  0.21268955370E-01  0.58373422124E-02  0.59101221118E-01  0.51100000000E-03 0.  1.
         11    1    4    4    0    0 -0.73004761145E-01  0.12560318533E-01 -0.10450297574E-01  0.74812609845E-01  0.51100000000E-03 0. -1.
</event>
<event>
 8    1  0.1119901E+005  0.1043930E+01  0.7957747E-01            NaN
         13   -1    0    0    0    0  0.00000000000E+00  0.00000000000E+00  0.74505805969E-08  0.10566000000E+00  0.10566000000E+00 0. -1.
     999900   -1    0    0    0    0 -0.00000000000E+00 -0.00000000000E+00 -0.74505805969E-08  0.93827000000E+00  0.93827000000E+00 0.  1.
     999902    2    1    2    0    0  0.15885443854E-01  0.18456560815E-01 -0.49873771109E-02  0.10190730916E+01  0.10187698956E+01 0.  0.
     999903    2    3    3    0    0 -0.50781015540E-01  0.11756974614E+00 -0.18415052302E-01  0.13090185657E+00  0.19870207759E-01 0.  0.
         14    1    1    2    0    0 -0.15885443854E-01 -0.18456560815E-01  0.49873771109E-02  0.24856908375E-01  0.00000000000E+00 0.  1.
     999901    1    3    3    0    0  0.66666459394E-01 -0.99113185324E-01  0.13427675191E-01  0.88817123505E+00  0.88000000000E+00 0. -1.
        -11    1    4    4    0    0 -0.14659588923E-01  0.57136926024E-01 -0.47470906216E-02  0.59180468512E-01  0.51100000000E-03 0. -1.
         11    1    4    4    0    0 -0.36121426617E-01  0.60432820114E-01 -0.13667961680E-01  0.71721388060E-01  0.51100000000E-03 0.  1.
</event>
<event>
 8    1  0.1119901E+005  0.1043930E+01  0.7957747E-01            NaN
         13   -1    0    0    0    0  0.00000000000E+00  0.00000000000E+00  0.74505805969E-08  0.10566000000E+00  0.10566000000E+00 0.  1.
     999900   -1    0    0    0    0 -0.00000000000E+00 -0.00000000000E+00 -0.74505805969E-08  0.93827000000E+00  0.93827000000E+00 0.  1.
     999902    2    1    2    0    0  0.14970046332E-01 -0.48131044336E-02  0.17484985016E-01  0.10204141976E+01  0.10201431967E+01 0.  0.
     999903    2    3    3    0    0  0.66606631742E-01 -0.10912192722E+00 -0.24515205399E-01  0.13175752404E+00  0.20371829919E-01 0.  0.
         14    1    1    2    0    0 -0.14970046332E-01  0.48131044336E-02 -0.17484985016E-01  0.23515802399E-01  0.00000000000E+00 0. -1.
     999901    1    3    3    0    0 -0.51636585411E-01  0.10430882279E+00  0.42000190415E-01  0.88865667356E+00  0.88000000000E+00 0.  1.
        -11    1    4    4    0    0  0.47496896385E-01 -0.58938051794E-01 -0.12380158507E-01  0.76701881079E-01  0.51100000000E-03 0. -1.
         11    1    4    4    0    0  0.19109735357E-01 -0.50183875425E-01 -0.12135046892E-01  0.55055642964E-01  0.51100000000E-03 0.  1.
</event>
<event>
 7    1  0.1119901E+005  0.1043930E+01  0.7957747E-01            NaN
         13   -1    0    0    0    0  0.00000000000E+00  0.00000000000E+00  0.74505805969E-08  0.10566000000E+00  0.10566000000E+00 0.  1.
     999900   -1    0    0    0    0 -0.00000000000E+00 -0.00000000000E+00 -0.74505805969E-08  0.93827000000E+00  0.93827000000E+00 0. -1.
     999903    2    1    2    0    0 -0.38735852376E-01 -0.39011199257E-01  0.94633326730E-01  0.11130098242E+00  0.20250981055E-01 0.  0.
         14    1    1    2    0    0 -0.15898240320E-01  0.13305000254E-01  0.35403242711E-01  0.41026414314E-01  0.00000000000E+00 0.  1.
     999901    1    1    2    0    0  0.54634092695E-01  0.25706199003E-01 -0.13003656944E+00  0.89160260326E+00  0.88000000000E+00 0. -1.
        -11    1    3    3    0    0 -0.15876338352E-02 -0.13001624917E-01  0.18269116902E-01  0.22485208139E-01  0.51100000000E-03 0. -1.
         11    1    3    3    0    0 -0.37148218541E-01 -0.26009574340E-01  0.76364209828E-01  0.88815774285E-01  0.51100000000E-03 0.  1.
</event>
<event>
 8    1  0.1119901E+005  0.1043930E+01  0.7957747E-01            NaN
         13   -1    0    0    0    0  0.00000000000E+00  0.00000000000E+00  0.74505805969E-08  0.10566000000E+00  0.10566000000E+00 0. -1.
     999900   -1    0    0    0    0 -0.00000000000E+00 -0.00000000000E+00 -0.74505805969E-08  0.93827000000E+00  0.93827000000E+00 0.  1.
     999902    2    1    2    0    0 -0.21526726454E-01  0.58048231287E-02  0.76801801307E-02  0.10203486283E+01  0.10200760963E+01 0.  0.
     999903    2    3    3    0    0  0.12689331488E-01  0.72368114145E-01  0.10748638982E+00  0.13155017545E+00  0.18813866836E-01 0.  0.
         14    1    1    2    0    0  0.21526726454E-01 -0.58048231287E-02 -0.76801801307E-02  0.23581371678E-01  0.00000000000E+00 0.  1.
     999901    1    3    3    0    0 -0.34216057942E-01 -0.66563291016E-01 -0.99806209693E-01  0.88879845287E+00  0.88000000000E+00 0.  1.
        -11    1    4    4    0    0  0.10980309997E-01  0.53572200289E-01  0.92448587156E-01  0.10741298916E+00  0.51100000000E-03 0. -1.
         11    1    4    4    0    0  0.17090214909E-02  0.18795913856E-01  0.15037802668E-01  0.24137186294E-01  0.51100000000E-03 0.  1.
</event>
<event>
 8    1  0.1119901E+005  0.1043930E+01  0.7957747E-01            NaN
         13   -1    0    0    0    0  0.00000000000E+00  0.00000000000E+00  0.74505805969E-08  0.10566000000E+00  0.10566000000E+00 0.  1.
     999900   -1    0    0    0    0 -0.00000000000E+00 -0.00000000000E+00 -0.74505805969E-08  0.93827000000E+00  0.93827000000E+00 0.  1.
     999902    2    1    2    0    0  0.35702648253E-02  0.23645497020E-01  0.17307526770E-02  0.10199539322E+01  0.10196720905E+01 0.  0.
     999903    2    3    3    0    0  0.63162727102E-01  0.10371989681E+00  0.50376277273E-01  0.13297616582E+00  0.19938512349E-01 0.  0.
         14    1    1    2    0    0 -0.35702648253E-02 -0.23645497020E-01 -0.17307526770E-02  0.23976067757E-01  0.00000000000E+00 0.  1.
     999901    1    3    3    0    0 -0.59592462277E-01 -0.80074399793E-01 -0.48645524597E-01  0.88697776642E+00  0.88000000000E+00 0.  1.
        -11    1    4    4    0    0  0.50029715897E-01  0.65309482398E-01  0.30169893204E-01  0.87628674193E-01  0.51100000000E-03 0. -1.
         11    1    4    4    0    0  0.13133011205E-01  0.38410414415E-01  0.20206384069E-01  0.45347491629E-01  0.51100000000E-03 0.  1.
</event>
<event>
 8    1  0.1119901E+005  0.1043930E+01  0.7957747E-01            NaN
         13   -1    0    0    0    0  0.00000000000E+00  0.00000000000E+00  0.74505805969E-08  0.10566000000E+00  0.10566000000E+00 0. -1.
     999900   -1    0    0    0    0 -0.00000000000E+00 -0.00000000000E+00 -0.74505805969E-08  0.93827000000E+00  0.93827000000E+00 0.  1.
     999902    2    1    2    0    0  0.11576242070E-02  0.17998467289E-01 -0.15083569037E-01  0.10204183226E+01  0.10201474179E+01 0.  0.
     999903    2    3    3    0    0  0.11930543534E+00 -0.47397112208E-01  0.41187580218E-02  0.12991048073E+00  0.19480649090E-01 0.  0.
         14    1    1    2    0    0 -0.11576242070E-02 -0.17998467289E-01  0.15083569037E-01  0.23511677385E-01  0.00000000000E+00 0.  1.
     999901    1    3    3    0    0 -0.11814781113E+00  0.65395579497E-01 -0.19202327058E-01  0.89050784188E+00  0.88000000000E+00 0. -1.
        -11    1    4    4    0    0  0.12201472976E-01 -0.10183594952E-01 -0.34544448332E-02  0.16271934705E-01  0.51100000000E-03 0. -1.
         11    1    4    4    0    0  0.10710396236E+00 -0.37213517256E-01  0.75732028550E-02  0.11363854603E+00  0.51100000000E-03 0.  1.
</event>
<event>
 8    1  0.1119901E+005  0.1043930E+01  0.7957747E-01            NaN
         13   -1    0    0    0    0  0.00000000000E+00  0.00000000000E+00  0.74505805969E-08  0.10566000000E+00  0.10566000000E+00 0. -1.
     999900   -1    0    0    0    0 -0.00000000000E+00 -0.00000000000E+00 -0.74505805969E-08  0.93827000000E+00  0.93827000000E+00 0. -1.
     999902    2    1    2    0    0 -0.70346285145E-02  0.20763666958E-01 -0.53871015529E-02  0.10213548649E+01  0.10211053438E+01 0.  0.
     999903    2    3    3    0    0 -0.32023419421E-01  0.39274836004E-01 -0.12169302486E+00  0.13315771847E+00  0.18808869008E-01 0.  0.
         14    1    1    2    0    0  0.70346285145E-02 -0.20763666958E-01  0.53871015529E-02  0.22575135149E-01  0.00000000000E+00 0. -1.
     999901    1    3    3    0    0  0.24988790906E-01 -0.18511169047E-01  0.11630592330E+00  0.88819714638E+00  0.88000000000E+00 0.  1.
        -11    1    4    4    0    0 -0.19324502676E-01  0.31299430624E-01 -0.10178158685E+00  0.10822589017E+00  0.51100000000E-03 0.  1.
         11    1    4    4    0    0 -0.12698916745E-01  0.79754053805E-02 -0.19911438009E-01  0.24931828294E-01  0.51100000000E-03 0. -1.
</event>
<event>
 8    1  0.1119901E+005  0.1043930E+01  0.7957747E-01            NaN
         13   -1    0    0    0    0  0.00000000000E+00  0.00000000000E+00  0.74505805969E-08  0.10566000000E+00  0.10566000000E+00 0. -1.
     999900   -1    0    0    0    0 -0.00000000000E+00 -0.00000000000E+00 -0.74505805969E-08  0.93827000000E+00  0.93827000000E+00 0.  1.
     999902    2    1    2    0    0  0.13970919897E-01 -0.11235596148E-01  0.15783991240E-01  0.10200436105E+01  0.10197638980E+01 0.  0.
     999903    2    3    3    0    0 -0.12044274279E+00 -0.33956002900E-01  0.27172574781E-01  0.12947471961E+00  0.19128245438E-01 0.  0.
         14    1    1    2    0    0 -0.13970919897E-01  0.11235596148E-01 -0.15783991240E-01  0.23886389493E-01  0.00000000000E+00 0.  1.
     999901    1    3    3    0    0  0.13441366269E+00  0.22720406752E-01 -0.11388583541E-01  0.89056889090E+00  0.88000000000E+00 0. -1.
        -11    1    4    4    0    0 -0.10122126870E+00 -0.35029290248E-01  0.25749957450E-01  0.11016404968E+00  0.51100000000E-03 0.  1.
         11    1    4    4    0    0 -0.19221474095E-01  0.10732873477E-02  0.14226173310E-02  0.19310669931E-01  0.51100000000E-03 0. -1.
</event>
<event>
 8    1  0.1119901E+005  0.1043930E+01  0.7957747E-01            NaN
         13   -1    0    0    0    0  0.00000000000E+00  0.00000000000E+00  0.74505805969E-08  0.10566000000E+00  0.10566000000E+00 0. -1.
     999900   -1    0    0    0    0 -0.00000000000E+00 -0.00000000000E+00 -0.74505805969E-08  0.93827000000E+00  0.93827000000E+00 0. -1.
     999902    2    1    2    0    0 -0.22900377877E-01 -0.39526161935E-02  0.45312468403E-02  0.10202533727E+01  0.10199786085E+01 0.  0.
     999903    2    3    3    0    0  0.35815432413E-01 -0.58375603122E-01 -0.10800233306E+00  0.12948223797E+00  0.20265482135E-01 0.  0.
         14    1    1    2    0    0  0.22900377877E-01  0.39526161935E-02 -0.45312468403E-02  0.23676627286E-01  0.00000000000E+00 0.  1.
     999901    1    3    3    0    0 -0.58715810290E-01  0.54422986928E-01  0.11253357990E+00  0.89077113474E+00  0.88000000000E+00 0.  1.
        -11    1    4    4    0    0  0.16069362442E-01 -0.44410992847E-01 -0.71588395985E-01  0.85765495717E-01  0.51100000000E-03 0. -1.
         11    1    4    4    0    0  0.19746069971E-01 -0.13964610275E-01 -0.36413937071E-01  0.43716742255E-01  0.51100000000E-03 0.  1.
</event>
<event>
 8    1  0.1119901E+005  0.1043930E+01  0.7957747E-01            NaN
         13   -1    0    0    0    0  0.00000000000E+00  0.00000000000E+00  0.74505805969E-08  0.10566000000E+00  0.10566000000E+00 0. -1.
     999900   -1    0    0    0    0 -0.00000000000E+00 -0.00000000000E+00 -0.74505805969E-08  0.93827000000E+00  0.93827000000E+00 0.  1.
     999902    2    1    2    0    0  0.84973729549E-02  0.65798450632E-02  0.21144345103E-01  0.10202111670E+01  0.10199354108E+01 0.  0.
     999903    2    3    3    0    0  0.34452306834E-01  0.11594125855E+00 -0.45199464157E-01  0.13058479692E+00  0.19495146710E-01 0.  0.
         14    1    1    2    0    0 -0.84973729549E-02 -0.65798450632E-02 -0.21144345103E-01  0.23718832981E-01  0.00000000000E+00 0.  1.
     999901    1    3    3    0    0 -0.25954933880E-01 -0.10936141349E+00  0.66343809259E-01  0.88962637010E+00  0.88000000000E+00 0.  1.
        -11    1    4    4    0    0  0.19833575159E-01  0.48694732947E-01 -0.10930631420E-01  0.53705563442E-01  0.51100000000E-03 0. -1.
         11    1    4    4    0    0  0.14618731676E-01  0.67246525604E-01 -0.34268832737E-01  0.76879233475E-01  0.51100000000E-03 0.  1.
</event>
<event>
 8    1  0.1119901E+005  0.1043930E+01  0.7957747E-01            NaN
         13   -1    0    0    0    0  0.00000000000E+00  0.00000000000E+00  0.74505805969E-08  0.10566000000E+00  0.10566000000E+00 0.  1.
     999900   -1    0    0    0    0 -0.00000000000E+00 -0.00000000000E+00 -0.74505805969E-08  0.93827000000E+00  0.93827000000E+00 0.  1.
     999902    2    1    2    0    0  0.71637958968E-02  0.12571728591E-01  0.17925157169E-01  0.10208935161E+01  0.10206335736E+01 0.  0.
     999903    2    3    3    0    0 -0.12040381411E+00 -0.17133261801E-01  0.41839174073E-01  0.13087791972E+00  0.24246366131E-01 0.  0.
         14    1    1    2    0    0 -0.71637958968E-02 -0.12571728591E-01 -0.17925157169E-01  0.23036483911E-01  0.00000000000E+00 0. -1.
     999901    1    3    3    0    0  0.12756761001E+00  0.29704990393E-01 -0.23914016904E-01  0.89001559637E+00  0.88000000000E+00 0.  1.
        -11    1    4    4    0    0 -0.70248748241E-01 -0.51125341548E-02  0.12492794902E-01  0.71535695148E-01  0.51100000000E-03 0. -1.
         11    1    4    4    0    0 -0.50155065870E-01 -0.12020727647E-01  0.29346379172E-01  0.59342224571E-01  0.51100000000E-03 0.  1.
</event>
<event>
 8    1  0.1119901E+005  0.1043930E+01  0.7957747E-01            NaN
         13   -1    0    0    0    0  0.00000000000E+00  0.00000000000E+00  0.74505805969E-08  0.10566000000E+00  0.10566000000E+00 0.  1.
     999900   -1    0    0    0    0 -0.00000000000E+00 -0.00000000000E+00 -0.74505805969E-08  0.93827000000E+00  0.93827000000E+00 0.  1.
     999902    2    1    2    0    0  0.23740146233E-01 -0.30828741907E-02 -0.13167208916E-03  0.10199901589E+01  0.10197091782E+01 0.  0.
     999903    2    3    3    0    0 -0.10640560455E+00  0.58338856417E-01 -0.34049209474E-01  0.12765561129E+00  0.20273913793E-01 0.  0.
         14    1    1    2    0    0 -0.23740146233E-01  0.30828741907E-02  0.13167208916E-03  0.23939841144E-01  0.00000000000E+00 0. -1.
     999901    1    3    3    0    0  0.13014575078E+00 -0.61421730608E-01  0.33917537384E-01  0.89233454757E+00  0.88000000000E+00 0. -1.
        -11    1    4    4    0    0 -0.32063525246E-01  0.17112547790E-01 -0.74629249609E-03  0.36355563763E-01  0.51100000000E-03 0. -1.
         11    1    4    4    0    0 -0.74342079304E-01  0.41226308627E-01 -0.33302916978E-01  0.91300047527E-01  0.51100000000E-03 0.  1.
</event>
<event>
 8    1  0.1119901E+005  0.1043930E+01  0.7957747E-01            NaN
         13   -1    0    0    0    0  0.00000000000E+00  0.00000000000E+00  0.74505805969E-08  0.10566000000E+00  0.10566000000E+00 0. -1.
     999900   -1    0    0    0    0 -0.00000000000E+00 -0.00000000000E+00 -0.74505805969E-08  0.93827000000E+00  0.93827000000E+00 0.  1.
     999902    2    1    2    0    0  0.65830040920E-02 -0.76211923675E-03  0.23813677404E-01  0.10192114240E+01  0.10189116344E+01 0.  0.
     999903    2    3    3    0    0  0.10448218699E+00 -0.59562973969E-01 -0.42969658725E-01  0.12932277673E+00  0.20339954356E-01 0.  0.
         14    1    1    2    0    0 -0.65830040920E-02  0.76211923675E-03 -0.23813677404E-01  0.24718576013E-01  0.00000000000E+00 0.  1.
     999901    1    3    3    0    0 -0.97899182903E-01  0.58800854732E-01  0.66783336130E-01  0.88988864726E+00  0.88000000000E+00 0. -1.
        -11    1    4    4    0    0  0.11431223457E-01 -0.61305739660E-02 -0.11906257817E-01  0.17614678626E-01  0.51100000000E-03 0.  1.
         11    1    4    4    0    0  0.93050963537E-01 -0.53432400003E-01 -0.31063400908E-01  0.11170809811E+00  0.51100000000E-03 0. -1.
</event>
<event>
 8    1  0.1119901E+005  0.1043930E+01  0.7957747E-01            NaN
         13   -1    0    0    0    0  0.00000000000E+00  0.00000000000E+00  0.74505805969E-08  0.10566000000E+00  0.10566000000E+00 0. -1.
     999900   -1    0    0    0    0 -0.00000000000E+00 -0.00000000000E+00 -0.74505805969E-08  0.93827000000E+00  0.93827000000E+00 0. -1.
     999902    2    1    2    0    0 -0.22803235631E-01 -0.14114458063E-02 -0.60159354567E-02  0.10203043526E+01  0.10200307842E+01 0.  0.
     999903    2    3    3    0    0 -0.63794306214E-01 -0.42292522351E-01 -0.10650478902E+00  0.13269546354E+00  0.20160481354E-01 0.  0.
         14    1    1    2    0    0  0.22803235631E-01  0.14114458063E-02  0.60159354567E-02  0.23625647376E-01  0.00000000000E+00 0. -1.
     999901    1    3    3    0    0  0.40991070583E-01  0.40881076545E-01  0.10048885356E+00  0.88760888908E+00  0.88000000000E+00 0.  1.
        -11    1    4    4    0    0 -0.29530673250E-01 -0.30322529006E-01 -0.64878044380E-01  0.77465722687E-01  0.51100000000E-03 0.  1.
         11    1    4    4    0    0 -0.34263632964E-01 -0.11969993345E-01 -0.41626744639E-01  0.55229740855E-01  0.51100000000E-03 0. -1.
</event>
<event>
 8    1  0.1119901E+005  0.1043930E+01  0.7957747E-01            NaN
         13   -1    0    0    0    0  0.00000000000E+00  0.00000000000E+00  0.74505805969E-08  0.10566000000E+00  0.10566000000E+00 0.  1.
     999900   -1    0    0    0    0 -0.00000000000E+00 -0.00000000000E+00 -0.74505805969E-08  0.93827000000E+00  0.93827000000E+00 0. -1.
     999902    2    1    2    0    0 -0.55221019170E-02 -0.18431727232E-01 -0.14001393022E-01  0.10201337569E+01  0.10198561765E+01 0.  0.
     999903    2    3    3    0    0 -0.52666669098E-01 -0.95719037897E-01 -0.73785215524E-01  0.13347145139E+00  0.20843657476E-01 0.  0.
         14    1    1    2    0    0  0.55221019170E-02  0.18431727232E-01  0.14001393022E-01  0.23796243083E-01  0.00000000000E+00 0.  1.
     999901    1    3    3    0    0  0.47144567181E-01  0.77287310666E-01  0.59783822502E-01  0.88666230552E+00  0.88000000000E+00 0.  1.
        -11    1    4    4    0    0 -0.21078030295E-01 -0.40503648510E-01 -0.43303744154E-01  0.62930948527E-01  0.51100000000E-03 0.  1.
         11    1    4    4    0    0 -0.31588638803E-01 -0.55215389387E-01 -0.30481471370E-01  0.70540502865E-01  0.51100000000E-03 0. -1.
</event>
<event>
 8    1  0.1119901E+005  0.1043930E+01  0.7957747E-01            NaN
         13   -1    0    0    0    0  0.00000000000E+00  0.00000000000E+00  0.74505805969E-08  0.10566000000E+00  0.10566000000E+00 0. -1.
     999900   -1    0    0    0    0 -0.00000000000E+00 -0.00000000000E+00 -0.74505805969E-08  0.93827000000E+00  0.93827000000E+00 0. -1.
     999902    2    1    2    0    0  0.91302386417E-02  0.20255859530E-01  0.10179984608E-01  0.10194904176E+01  0.10191974383E+01 0.  0.
     999903    2    3    3    0    0  0.14124350008E-01 -0.11214633682E+00  0.57329379226E-01  0.12832357114E+00  0.20099329927E-01 0.  0.
         14    1    1    2    0    0 -0.91302386417E-02 -0.20255859530E-01 -0.10179984608E-01  0.24439582435E-01  0.00000000000E+00 0.  1.
     999901    1    3    3    0    0 -0.49941113665E-02  0.13240219635E+00 -0.47149394619E-01  0.89116684642E+00  0.88000000000E+00 0. -1.
        -11    1    4    4    0    0  0.82533686685E-02 -0.13532046128E-01  0.10302953856E-01  0.18911540021E-01  0.51100000000E-03 0. -1.
         11    1    4    4    0    0  0.58709813397E-02 -0.98614290692E-01  0.47026425370E-01  0.10941203112E+00  0.51100000000E-03 0.  1.
</event>
<event>
 8    1  0.1119901E+005  0.1043930E+01  0.7957747E-01            NaN
         13   -1    0    0    0    0  0.00000000000E+00  0.00000000000E+00  0.74505805969E-08  0.10566000000E+00  0.10566000000E+00 0. -1.
     999900   -1    0    0    0    0 -0.00000000000E+00 -0.00000000000E+00 -0.74505805969E-08  0.93827000000E+00  0.93827000000E+00 0. -1.
     999902    2    1    2    0    0 -0.17410049834E-01  0.30732096589E-02  0.16172602129E-01  0.10199694593E+01  0.10196879867E+01 0.  0.
     999903    2    3    3    0    0 -0.92295971161E-01  0.87245531870E-01 -0.28180392769E-01  0.13167892729E+00  0.20368510775E-01 0.  0.
         14    1    1    2    0    0  0.17410049834E-01 -0.30732096589E-02 -0.16172602129E-01  0.23960540738E-01  0.00000000000E+00 0. -1.
     999901    1    3    3    0    0  0.74885921327E-01 -0.84172322211E-01  0.44352994898E-01  0.88829053197E+00  0.88000000000E+00 0.  1.
        -11    1    4    4    0    0 -0.27718024364E-01  0.34670642387E-01 -0.17523492111E-01  0.47725006181E-01  0.51100000000E-03 0. -1.
         11    1    4    4    0    0 -0.64577946796E-01  0.52574889483E-01 -0.10656900658E-01  0.83953921107E-01  0.51100000000E-03 0.  1.
</event>
<event>
 8    1  0.1119901E+005  0.1043930E+01  0.7957747E-01            NaN
         13   -1    0    0    0    0  0.00000000000E+00  0.00000000000E+00  0.74505805969E-08  0.10566000000E+00  0.10566000000E+00 0. -1.
     999900   -1    0    0    0    0 -0.00000000000E+00 -0.00000000000E+00 -0.74505805969E-08  0.93827000000E+00  0.93827000000E+00 0. -1.
     999902    2    1    2    0    0  0.16209534350E-01  0.12755182802E-01 -0.93743364654E-02  0.10212733922E+01  0.10210220467E+01 0.  0.
     999903    2    3    3    0    0  0.10332548684E+00 -0.32703794161E-01  0.72632889965E-01  0.13201477238E+00  0.20166036761E-01 0.  0.
         14    1    1    2    0    0 -0.16209534350E-01 -0.12755182802E-01  0.93743364654E-02  0.22656607785E-01  0.00000000000E+00 0. -1.
     999901    1    3    3    0    0 -0.87115952489E-01  0.45458976963E-01 -0.82007226430E-01  0.88925861984E+00  0.88000000000E+00 0. -1.
        -11    1    4    4    0    0  0.93366704246E-01 -0.35301299965E-01  0.64020766341E-01  0.11858517144E+00  0.51100000000E-03 0. -1.
         11    1    4    4    0    0  0.99587825934E-02  0.25975058044E-02  0.86121236240E-02  0.13429600942E-01  0.51100000000E-03 0.  1.
</event>
<event>
 8    1  0.1119901E+005  0.1043930E+01  0.7957747E-01            NaN
         13   -1    0    0    0    0  0.00000000000E+00  0.00000000000E+00  0.74505805969E-08  0.10566000000E+00  0.10566000000E+00 0.  1.
     999900   -1    0    0    0    0 -0.00000000000E+00 -0.00000000000E+00 -0.74505805969E-08  0.93827000000E+00  0.93827000000E+00 0. -1.
     999902    2    1    2    0    0 -0.14539919981E-01 -0.43270295054E-02  0.16130439994E-01  0.10217867493E+01  0.10215467867E+01 0.  0.
     999903    2    3    3    0    0 -0.11901884804E+00 -0.43734029220E-01 -0.34472114351E-01  0.13328836632E+00  0.22345255185E-01 0.  0.
         14    1    1    2    0    0  0.14539919981E-01  0.43270295054E-02 -0.16130439994E-01  0.22143250706E-01  0.00000000000E+00 0. -1.
     999901    1    3    3    0    0  0.10447892806E+00  0.39406999715E-01  0.50602554346E-01  0.88849838297E+00  0.88000000000E+00 0. -1.
        -11    1    4    4    0    0 -0.95969839433E-01 -0.44125630362E-01 -0.26644205795E-01  0.10893785457E+00  0.51100000000E-03 0. -1.
         11    1    4    4    0    0 -0.23049008605E-01  0.39160114200E-03 -0.78279085564E-02  0.24350511751E-01  0.51100000000E-03 0.  1.
</event>
<event>
 8    1  0.1119901E+005  0.1043930E+01  0.7957747E-01            NaN
         13   -1    0    0    0    0  0.00000000000E+00  0.00000000000E+00  0.74505805969E-08  0.10566000000E+00  0.10566000000E+00 0. -1.
     999900   -1    0    0    0    0 -0.00000000000E+00 -0.00000000000E+00 -0.74505805969E-08  0.93827000000E+00  0.93827000000E+00 0. -1.
     999902    2    1    2    0    0  0.14908669406E-01  0.11647395547E-01 -0.14104446112E-01  0.10203319991E+01  0.10200590781E+01 0.  0.
     999903    2    3    3    0    0  0.61836343450E-01 -0.75800976260E-01  0.82467429102E-01  0.12950342333E+00  0.20018451936E-01 0.  0.
         14    1    1    2    0    0 -0.14908669406E-01 -0.11647395547E-01  0.14104446112E-01  0.23598000903E-01  0.00000000000E+00 0.  1.
     999901    1    3    3    0    0 -0.46927674043E-01  0.87448371807E-01 -0.96571875214E-01  0.89082857577E+00  0.88000000000E+00 0. -1.
        -11    1    4    4    0    0  0.10408242180E-01 -0.15685195125E-01  0.26852524876E-01  0.32797500889E-01  0.51100000000E-03 0. -1.
         11    1    4    4    0    0  0.51428101270E-01 -0.60115781135E-01  0.55614904226E-01  0.96705922439E-01  0.51100000000E-03 0.  1.
</event>
<event>
 8    1  0.1119901E+005  0.1043930E+01  0.7957747E-01            NaN
         13   -1    0    0    0    0  0.00000000000E+00  0.00000000000E+00  0.74505805969E-08  0.10566000000E+00  0.10566000000E+00 0. -1.
     999900   -1    0    0    0    0 -0.00000000000E+00 -0.00000000000E+00 -0.74505805969E-08  0.93827000000E+00  0.93827000000E+00 0. -1.
     999902    2    1    2    0    0  0.48954682976E-02  0.21731594996E-01  0.11811607738E-01  0.10187160771E+01  0.10184039983E+01 0.  0.
     999903    2    3    3    0    0 -0.28027164554E-01  0.87048170922E-01 -0.90168399762E-01  0.12981221459E+00  0.18919955800E-01 0.  0.
         14    1    1    2    0    0 -0.48954682976E-02 -0.21731594996E-01 -0.11811607738E-01  0.25213922905E-01  0.00000000000E+00 0.  1.
     999901    1    3    3    0    0  0.32922632852E-01 -0.65316575926E-01  0.10198000750E+00  0.88890386250E+00  0.88000000000E+00 0.  1.
        -11    1    4    4    0    0 -0.28818415524E-01  0.74973330962E-01 -0.71368356234E-01  0.10744861480E+00  0.51100000000E-03 0. -1.
         11    1    4    4    0    0  0.79125097001E-03  0.12074839960E-01 -0.18800043528E-01  0.22363599795E-01  0.51100000000E-03 0.  1.
</event>
<event>
 8    1  0.1119901E+005  0.1043930E+01  0.7957747E-01            NaN
         13   -1    0    0    0    0  0.00000000000E+00  0.00000000000E+00  0.74505805969E-08  0.10566000000E+00  0.10566000000E+00 0. -1.
     999900   -1    0    0    0    0 -0.00000000000E+00 -0.00000000000E+00 -0.74505805969E-08  0.93827000000E+00  0.93827000000E+00 0. -1.
     999902    2    1    2    0    0  0.12300128973E-01 -0.11375180747E-02  0.18537093390E-01  0.10216542071E+01  0.10214113314E+01 0.  0.
     999903    2    3    3    0    0 -0.65257973596E-01 -0.10112813678E+00  0.50868855307E-01  0.13201454633E+00  0.18833396807E-01 0.  0.
         14    1    1    2    0    0 -0.12300128973E-01  0.11375180747E-02 -0.18537093390E-01  0.22275792949E-01  0.00000000000E+00 0. -1.
     999901    1    3    3    0    0  0.77558102569E-01  0.99990618707E-01 -0.32331761916E-01  0.88963966072E+00  0.88000000000E+00 0.  1.
        -11    1    4    4    0    0 -0.38768098602E-01 -0.44789693041E-01  0.29609279316E-01  0.66227279987E-01  0.51100000000E-03 0.  1.
         11    1    4    4    0    0 -0.26489874994E-01 -0.56338443740E-01  0.21259575991E-01  0.65787266341E-01  0.51100000000E-03 0. -1.
</event>
<event>
 8    1  0.1119901E+005  0.1043930E+01  0.7957747E-01            NaN
         13   -1    0    0    0    0  0.00000000000E+00  0.00000000000E+00  0.74505805969E-08  0.10566000000E+00  0.10566000000E+00 0.  1.
     999900   -1    0    0    0    0 -0.00000000000E+00 -0.00000000000E+00 -0.74505805969E-08  0.93827000000E+00  0.93827000000E+00 0.  1.
     999902    2    1    2    0    0 -0.61740032837E-02  0.33148858689E-02 -0.22276768469E-01  0.10205770302E+01  0.10203098125E+01 0.  0.
     999903    2    3    3    0    0  0.89268893798E-01  0.56119605680E-02  0.89853293599E-01  0.12833952036E+00  0.19924573122E-01 0.  0.
         14    1    1    2    0    0  0.61740032837E-02 -0.33148858689E-02  0.22276768469E-01  0.23352969796E-01  0.00000000000E+00 0.  1.
     999901    1    3    3    0    0 -0.95442897081E-01 -0.22970746992E-02 -0.11213006207E+00  0.89223750985E+00  0.88000000000E+00 0.  1.
        -11    1    4    4    0    0  0.44040424579E-01  0.74484006262E-02  0.56940857330E-01  0.72370988825E-01  0.51100000000E-03 0. -1.
         11    1    4    4    0    0  0.45228469219E-01 -0.18364400581E-02  0.32912436269E-01  0.55968531535E-01  0.51100000000E-03 0.  1.
</event>
<event>
 8    1  0.1119901E+005  0.1043930E+01  0.7957747E-01            NaN
         13   -1    0    0    0    0  0.00000000000E+00  0.00000000000E+00  0.74505805969E-08  0.10566000000E+00  0.10566000000E+00 0. -1.
     999900   -1    0    0    0    0 -0.00000000000E+00 -0.00000000000E+00 -0.74505805969E-08  0.93827000000E+00  0.93827000000E+00 0. -1.
     999902    2    1    2    0    0  0.55354500027E-02 -0.12922565090E-01  0.18821073368E-01  0.10204381568E+01  0.10201677142E+01 0.  0.
     999903    2    3    3    0    0  0.71099254106E-01  0.83497481121E-01 -0.64641670118E-01  0.12883204012E+00  0.19804437807E-01 0.  0.
         14    1    1    2    0    0 -0.55354500027E-02  0.12922565090E-01 -0.18821073368E-01  0.23491843222E-01  0.00000000000E+00 0.  1.
     999901    1    3    3    0    0 -0.65563804103E-01 -0.96420046210E-01  0.83462743486E-01  0.89160611666E+00  0.88000000000E+00 0.  1.
        -11    1    4    4    0    0  0.34815205715E-01  0.39782046138E-01 -0.19799274840E-01  0.56453362602E-01  0.51100000000E-03 0.  1.
         11    1    4    4    0    0  0.36284048391E-01  0.43715434983E-01 -0.44842395278E-01  0.72378677514E-01  0.51100000000E-03 0. -1.
</event>
<event>
 8    1  0.1119901E+005  0.1043930E+01  0.7957747E-01            NaN
         13   -1    0    0    0    0  0.00000000000E+00  0.00000000000E+00  0.74505805969E-08  0.10566000000E+00  0.10566000000E+00 0.  1.
     999900   -1    0    0    0    0 -0.00000000000E+00 -0.00000000000E+00 -0.74505805969E-08  0.93827000000E+00  0.93827000000E+00 0. -1.
     999902    2    1    2    0    0  0.20907209999E-01 -0.55693117807E-03  0.11387773898E-01  0.10201160756E+01  0.10198380777E+01 0.  0.
     999903    2    3    3    0    0  0.97069527072E-01  0.25300345920E-01 -0.82832400261E-01  0.13143911596E+00  0.18773227820E-01 0.  0.
         14    1    1    2    0    0 -0.20907209999E-01  0.55693117807E-03 -0.11387773898E-01  0.23813924428E-01  0.00000000000E+00 0.  1.
     999901    1    3    3    0    0 -0.76162317073E-01 -0.25857277098E-01  0.94220174159E-01  0.88867695961E+00  0.88000000000E+00 0.  1.
        -11    1    4    4    0    0  0.28040298822E-01  0.15015571748E-01 -0.31787598581E-01  0.44971527632E-01  0.51100000000E-03 0. -1.
         11    1    4    4    0    0  0.69029228249E-01  0.10284774172E-01 -0.51044801680E-01  0.86467588332E-01  0.51100000000E-03 0.  1.
</event>
<event>
 8    1  0.1179547E+005  0.1043930E+01  0.7957747E-01            NaN
         13   -1    0    0    0    0  0.00000000000E+00  0.00000000000E+00  0.74505805969E-08  0.10566000000E+00  0.10566000000E+00 0. -1.
     999900   -1    0    0    0    0 -0.00000000000E+00 -0.00000000000E+00 -0.74505805969E-08  0.93827000000E+00  0.93827000000E+00 0. -1.
     999902    2    1    2    0    0 -0.21576555168E-01  0.20319354967E-01  0.22913888946E-01  0.10064670820E+01  0.10057696142E+01 0.  0.
     999903    2    3    3    0    0 -0.10890821907E+00  0.38164855977E-01 -0.27991396164E-01  0.12050058743E+00  0.20477228785E-01 0.  0.
         14    1    1    2    0    0  0.21576555168E-01 -0.20319354967E-01 -0.22913888946E-01  0.37462918009E-01  0.00000000000E+00 0.  1.
     999901    1    3    3    0    0  0.87331663907E-01 -0.17845501010E-01  0.50905285110E-01  0.88596649456E+00  0.88000000000E+00 0. -1.
        -11    1    4    4    0    0 -0.37213342747E-01  0.21635653565E-01 -0.45968599218E-02  0.43293494035E-01  0.51100000000E-03 0. -1.
         11    1    4    4    0    0 -0.71694876327E-01  0.16529202412E-01 -0.23394536242E-01  0.77207093398E-01  0.51100000000E-03 0.  1.
</event>
<event>
 8    1  0.1119901E+005  0.1043930E+01  0.7957747E-01            NaN
         13   -1    0    0    0    0  0.00000000000E+00  0.00000000000E+00  0.74505805969E-08  0.10566000000E+00  0.10566000000E+00 0.  1.
     999900   -1    0    0    0    0 -0.00000000000E+00 -0.00000000000E+00 -0.74505805969E-08  0.93827000000E+00  0.93827000000E+00 0. -1.
     999902    2    1    2    0    0 -0.14401448713E-01  0.63999347481E-02 -0.17467082890E-01  0.10204042721E+01  0.10201330397E+01 0.  0.
     999903    2    3    3    0    0  0.37725189773E-01  0.96631602317E-01  0.74697612246E-01  0.12947595212E+00  0.20577472909E-01 0.  0.
         14    1    1    2    0    0  0.14401448713E-01 -0.63999347481E-02  0.17467082890E-01  0.23525727927E-01  0.00000000000E+00 0.  1.
     999901    1    3    3    0    0 -0.52126638486E-01 -0.90231667569E-01 -0.92164695135E-01  0.89092831996E+00  0.88000000000E+00 0. -1.
        -11    1    4    4    0    0  0.28104875998E-01  0.44545452143E-01  0.40238959731E-01  0.66284359865E-01  0.51100000000E-03 0.  1.
         11    1    4    4    0    0  0.96203137752E-02  0.52086150173E-01  0.34458652515E-01  0.63191592251E-01  0.51100000000E-03 0. -1.
</event>
<event>
 8    1  0.1119901E+005  0.1043930E+01  0.7957747E-01            NaN
         13   -1    0    0    0    0  0.00000000000E+00  0.00000000000E+00  0.74505805969E-08  0.10566000000E+00  0.10566000000E+00 0.  1.
     999900   -1    0    0    0    0 -0.00000000000E+00 -0.00000000000E+00 -0.74505805969E-08  0.93827000000E+00  0.93827000000E+00 0.  1.
     999902    2    1    2    0    0 -0.46202076616E-03 -0.16923178250E-02 -0.23600182216E-01  0.10202647089E+01  0.10199902108E+01 0.  0.
     999903    2    3    3    0    0 -0.62839569754E-01 -0.84715718571E-01  0.69644456254E-01  0.12926616439E+00  0.27089231622E-01 0.  0.
         14    1    1    2    0    0  0.46202076616E-03  0.16923178250E-02  0.23600182216E-01  0.23665291112E-01  0.00000000000E+00 0.  1.
     999901    1    3    3    0    0  0.62377548988E-01  0.83023400746E-01 -0.93244638470E-01  0.89099854450E+00  0.88000000000E+00 0.  1.
        -11    1    4    4    0    0 -0.34336146765E-01 -0.54258249071E-01  0.27147751669E-01  0.69715063714E-01  0.51100000000E-03 0.  1.
         11    1    4    4    0    0 -0.28503422989E-01 -0.30457469500E-01  0.42496704585E-01  0.59551100678E-01  0.51100000000E-03 0. -1.
</event>
<event>
 8    1  0.1119901E+005  0.1043930E+01  0.7957747E-01            NaN
         13   -1    0    0    0    0  0.00000000000E+00  0.00000000000E+00  0.74505805969E-08  0.10566000000E+00  0.10566000000E+00 0.  1.
     999900   -1    0    0    0    0 -0.00000000000E+00 -0.00000000000E+00 -0.74505805969E-08  0.93827000000E+00  0.93827000000E+00 0.  1.
     999902    2    1    2    0    0  0.54508235755E-02  0.17563624781E-01  0.15001950268E-01  0.10201970924E+01  0.10199210050E+01 0.  0.
     999903    2    3    3    0    0  0.37455674117E-01  0.11381137026E+00  0.55547484617E-01  0.13344353059E+00  0.19123213251E-01 0.  0.
         14    1    1    2    0    0 -0.54508235755E-02 -0.17563624781E-01 -0.15001950268E-01  0.23732907638E-01  0.00000000000E+00 0. -1.
     999901    1    3    3    0    0 -0.32004850542E-01 -0.96247745475E-01 -0.40545534349E-01  0.88675356178E+00  0.88000000000E+00 0. -1.
        -11    1    4    4    0    0  0.10883107793E-01  0.45774077698E-01  0.12606286546E-01  0.48712296248E-01  0.51100000000E-03 0. -1.
         11    1    4    4    0    0  0.26572566325E-01  0.68037292558E-01  0.42941198071E-01  0.84731234338E-01  0.51100000000E-03 0.  1.
</event>
<event>
 8    1  0.1119901E+005  0.1043930E+01  0.7957747E-01            NaN
         13   -1    0    0    0    0  0.00000000000E+00  0.00000000000E+00  0.74505805969E-08  0.10566000000E+00  0.10566000000E+00 0.  1.
     999900   -1    0    0    0    0 -0.00000000000E+00 -0.00000000000E+00 -0.74505805969E-08  0.93827000000E+00  0.93827000000E+00 0. -1.
     999902    2    1    2    0    0 -0.19684949619E-02 -0.10949675519E-01  0.88787275189E-02  0.10296961611E+01  0.10295977769E+01 0.  0.
     999903    2    3    3    0    0  0.11797528963E+00  0.32152771865E-01 -0.59993934558E-01  0.13785100865E+00  0.21252263427E-01 0.  0.
         14    1    1    2    0    0  0.19684949619E-02  0.10949675519E-01 -0.88787275189E-02  0.14233838861E-01  0.00000000000E+00 0.  1.
     999901    1    3    3    0    0 -0.11994378459E+00 -0.43102447384E-01  0.68872662077E-01  0.89184515249E+00  0.88000000000E+00 0.  1.
        -11    1    4    4    0    0  0.43960445471E-01  0.22246446153E-01 -0.27323546397E-01  0.56340593191E-01  0.51100000000E-03 0.  1.
         11    1    4    4    0    0  0.74014844158E-01  0.99063257117E-02 -0.32670388161E-01  0.81510415460E-01  0.51100000000E-03 0. -1.
</event>
<event>
 8    1  0.1119901E+005  0.1043930E+01  0.7957747E-01            NaN
         13   -1    0    0    0    0  0.00000000000E+00  0.00000000000E+00  0.74505805969E-08  0.10566000000E+00  0.10566000000E+00 0.  1.
     999900   -1    0    0    0    0 -0.00000000000E+00 -0.00000000000E+00 -0.74505805969E-08  0.93827000000E+00  0.93827000000E+00 0.  1.
     999902    2    1    2    0    0  0.18260928352E-01 -0.15338389929E-01  0.41001628664E-02  0.10197320859E+01  0.10194449411E+01 0.  0.
     999903    2    3    3    0    0  0.12216001648E-01  0.12482719153E+00  0.17385554382E-01  0.12851974704E+00  0.22000214427E-01 0.  0.
         14    1    1    2    0    0 -0.18260928352E-01  0.15338389929E-01 -0.41001628664E-02  0.24197914072E-01  0.00000000000E+00 0. -1.
     999901    1    3    3    0    0  0.60449267042E-02 -0.14016558146E+00 -0.13285391515E-01  0.89121233889E+00  0.88000000000E+00 0.  1.
        -11    1    4    4    0    0 -0.12943190534E-02  0.15328411564E-01 -0.45083228134E-02  0.16038128272E-01  0.51100000000E-03 0. -1.
         11    1    4    4    0    0  0.13510320701E-01  0.10949877997E+00  0.21893877195E-01  0.11248161876E+00  0.51100000000E-03 0.  1.
</event>
<event>
 8    1  0.1119901E+005  0.1043930E+01  0.7957747E-01            NaN
         13   -1    0    0    0    0  0.00000000000E+00  0.00000000000E+00  0.74505805969E-08  0.10566000000E+00  0.10566000000E+00 0.  1.
     999900   -1    0    0    0    0 -0.00000000000E+00 -0.00000000000E+00 -0.74505805969E-08  0.93827000000E+00  0.93827000000E+00 0. -1.
     999902    2    1    2    0    0 -0.17665719004E-02  0.30870445916E-03  0.24223921488E-01  0.10196397870E+01  0.10193504210E+01 0.  0.
     999903    2    3    3    0    0 -0.63348023441E-01 -0.57001972572E-01 -0.93543234209E-01  0.12781811659E+00  0.18026017614E-01 0.  0.
         14    1    1    2    0    0  0.17665719004E-02 -0.30870445916E-03 -0.24223921488E-01  0.24290212988E-01  0.00000000000E+00 0. -1.
     999901    1    3    3    0    0  0.61581451541E-01  0.57310677031E-01  0.11776715570E+00  0.89182167042E+00  0.88000000000E+00 0.  1.
        -11    1    4    4    0    0 -0.34480208706E-01 -0.21202717703E-01 -0.51503495931E-01  0.65508100603E-01  0.51100000000E-03 0.  1.
         11    1    4    4    0    0 -0.28867814735E-01 -0.35799254869E-01 -0.42039738277E-01  0.62310015986E-01  0.51100000000E-03 0. -1.
</event>
<event>
 8    1  0.1119901E+005  0.1043930E+01  0.7957747E-01            NaN
         13   -1    0    0    0    0  0.00000000000E+00  0.00000000000E+00  0.74505805969E-08  0.10566000000E+00  0.10566000000E+00 0.  1.
     999900   -1    0    0    0    0 -0.00000000000E+00 -0.00000000000E+00 -0.74505805969E-08  0.93827000000E+00  0.93827000000E+00 0. -1.
     999902    2    1    2    0    0  0.12206787997E-01 -0.14966963995E-01  0.15156020123E-01  0.10193796307E+01  0.10190839568E+01 0.  0.
     999903    2    3    3    0    0  0.11195648669E+00 -0.63413271713E-01  0.24187266899E-01  0.13237421332E+00  0.19555319775E-01 0.  0.
         14    1    1    2    0    0 -0.12206787997E-01  0.14966963995E-01 -0.15156020123E-01  0.24550369252E-01  0.00000000000E+00 0. -1.
     999901    1    3    3    0    0 -0.99749698695E-01  0.48446307718E-01 -0.90312467767E-02  0.88700541742E+00  0.88000000000E+00 0. -1.
        -11    1    4    4    0    0  0.16695754905E-01 -0.38716907192E-02  0.78333218821E-02  0.18851001925E-01  0.51100000000E-03 0.  1.
         11    1    4    4    0    0  0.95260731787E-01 -0.59541580994E-01  0.16353945017E-01  0.11352321140E+00  0.51100000000E-03 0. -1.
</event>
<event>
 8    1  0.1119901E+005  0.1043930E+01  0.7957747E-01            NaN
         13   -1    0    0    0    0  0.00000000000E+00  0.00000000000E+00  0.74505805969E-08  0.10566000000E+00  0.10566000000E+00 0.  1.
     999900   -1    0    0    0    0 -0.00000000000E+00 -0.00000000000E+00 -0.74505805969E-08  0.93827000000E+00  0.93827000000E+00 0. -1.
     999902    2    1    2    0    0 -0.22452729862E-01  0.10380777186E-02  0.88792935681E-02  0.10197629866E+01  0.10194765835E+01 0.  0.
     999903    2    3    3    0    0  0.43133226095E-01  0.10603307274E+00  0.57918063430E-01  0.12974598250E+00  0.19391498018E-01 0.  0.
         14    1    1    2    0    0  0.22452729862E-01 -0.10380777186E-02 -0.88792935681E-02  0.24167013425E-01  0.00000000000E+00 0. -1.
     999901    1    3    3    0    0 -0.65585955957E-01 -0.10499499502E+00 -0.49038769862E-01  0.89001700408E+00  0.88000000000E+00 0. -1.
        -11    1    4    4    0    0  0.28074388608E-01  0.80514533401E-01  0.34540771471E-01  0.92000474995E-01  0.51100000000E-03 0.  1.
         11    1    4    4    0    0  0.15058837487E-01  0.25518539336E-01  0.23377291959E-01  0.37745507503E-01  0.51100000000E-03 0. -1.
</event>
<event>
 8    1  0.1119901E+005  0.1043930E+01  0.7957747E-01            NaN
         13   -1    0    0    0    0  0.00000000000E+00  0.00000000000E+00  0.74505805969E-08  0.10566000000E+00  0.10566000000E+00 0. -1.
     999900   -1    0    0    0    0 -0.00000000000E+00 -0.00000000000E+00 -0.74505805969E-08  0.93827000000E+00  0.93827000000E+00 0.  1.
     999902    2    1    2    0    0 -0.40965853036E-02 -0.19751715845E-01 -0.11301717436E-01  0.10208076924E+01  0.10205457872E+01 0.  0.
     999903    2    3    3    0    0 -0.41573947900E-02  0.44201172144E-01  0.11962287446E+00  0.12882606463E+00  0.17762186887E-01 0.  0.
         14    1    1    2    0    0  0.40965853036E-02  0.19751715845E-01  0.11301717436E-01  0.23122307562E-01  0.00000000000E+00 0.  1.
     999901    1    3    3    0    0  0.60809486369E-04 -0.63952887989E-01 -0.13092459190E+00  0.89198162781E+00  0.88000000000E+00 0.  1.
        -11    1    4    4    0    0 -0.55945671858E-02  0.10112805598E-01  0.49605191581E-01  0.50936275599E-01  0.51100000000E-03 0. -1.
         11    1    4    4    0    0  0.14371723958E-02  0.34088366546E-01  0.70017682884E-01  0.77889789033E-01  0.51100000000E-03 0.  1.
</event>
<event>
 8    1  0.1119901E+005  0.1043930E+01  0.7957747E-01            NaN
         13   -1    0    0    0    0  0.00000000000E+00  0.00000000000E+00  0.74505805969E-08  0.10566000000E+00  0.10566000000E+00 0. -1.
     999900   -1    0    0    0    0 -0.00000000000E+00 -0.00000000000E+00 -0.74505805969E-08  0.93827000000E+00  0.93827000000E+00 0. -1.
     999902    2    1    2    0    0 -0.11279153633E-01  0.16570250062E-01 -0.14173826330E-01  0.10193802577E+01  0.10190845990E+01 0.  0.
     999903    2    3    3    0    0  0.12663308542E+00 -0.46294755127E-02  0.33976890097E-02  0.12821362223E+00  0.19230659554E-01 0.  0.
         14    1    1    2    0    0  0.11279153633E-01 -0.16570250062E-01  0.14173826330E-01  0.24549742293E-01  0.00000000000E+00 0. -1.
     999901    1    3    3    0    0 -0.13791223905E+00  0.21199725575E-01 -0.17571515340E-01  0.89116663548E+00  0.88000000000E+00 0.  1.
        -11    1    4    4    0    0  0.88317761180E-01 -0.24156693579E-02 -0.64513748250E-02  0.88587492099E-01  0.51100000000E-03 0. -1.
         11    1    4    4    0    0  0.38315324240E-01 -0.22138061548E-02  0.98490638347E-02  0.39626130126E-01  0.51100000000E-03 0.  1.
</event>
<event>
 8    1  0.1119901E+005  0.1043930E+01  0.7957747E-01            NaN
         13   -1    0    0    0    0  0.00000000000E+00  0.00000000000E+00  0.74505805969E-08  0.10566000000E+00  0.10566000000E+00 0. -1.
     999900   -1    0    0    0    0 -0.00000000000E+00 -0.00000000000E+00 -0.74505805969E-08  0.93827000000E+00  0.93827000000E+00 0.  1.
     999902    2    1    2    0    0 -0.17988034661E-01  0.12415580840E-01  0.68960649461E-02  0.10210111922E+01  0.10207539287E+01 0.  0.
     999903    2    3    3    0    0  0.15748526160E-01 -0.24010127368E-01 -0.12500109785E+00  0.12979749769E+00  0.19940252015E-01 0.  0.
         14    1    1    2    0    0  0.17988034661E-01 -0.12415580840E-01 -0.68960649461E-02  0.22918807786E-01  0.00000000000E+00 0. -1.
     999901    1    3    3    0    0 -0.33736560822E-01  0.36425708208E-01  0.13189716280E+00  0.89121369452E+00  0.88000000000E+00 0. -1.
        -11    1    4    4    0    0  0.17219022064E-01 -0.87329000174E-02 -0.61247026536E-01  0.64220071971E-01  0.51100000000E-03 0. -1.
         11    1    4    4    0    0 -0.14704959037E-02 -0.15277227350E-01 -0.63754071314E-01  0.65577425718E-01  0.51100000000E-03 0.  1.
</event>
<event>
 7    1  0.1119901E+005  0.1043930E+01  0.7957747E-01            NaN
         13   -1    0    0    0    0  0.00000000000E+00  0.00000000000E+00  0.74505805969E-08  0.10566000000E+00  0.10566000000E+00 0. -1.
     999900   -1    0    0    0    0 -0.00000000000E+00 -0.00000000000E+00 -0.74505805969E-08  0.93827000000E+00  0.93827000000E+00 0. -1.
     999903    2    1    2    0    0  0.44336164011E-02  0.28563897032E-01  0.63076692036E-01  0.70975585311E-01  0.14943609472E-01 0.  0.
         14    1    1    2    0    0 -0.37127419092E-02  0.70506730178E-01  0.40439289038E-01  0.81365346130E-01  0.00000000000E+00 0. -1.
     999901    1    1    2    0    0 -0.72087449190E-03 -0.99070627210E-01 -0.10351598107E+00  0.89158906856E+00  0.88000000000E+00 0. -1.
        -11    1    3    3    0    0  0.20068666644E-02  0.46474282234E-02  0.27939212027E-01  0.28398711108E-01  0.51100000000E-03 0.  1.
         11    1    3    3    0    0  0.24267497367E-02  0.23916468809E-01  0.35137480009E-01  0.42576874204E-01  0.51100000000E-03 0. -1.
</event>
<event>
 8    1  0.1119901E+005  0.1043930E+01  0.7957747E-01            NaN
         13   -1    0    0    0    0  0.00000000000E+00  0.00000000000E+00  0.74505805969E-08  0.10566000000E+00  0.10566000000E+00 0.  1.
     999900   -1    0    0    0    0 -0.00000000000E+00 -0.00000000000E+00 -0.74505805969E-08  0.93827000000E+00  0.93827000000E+00 0. -1.
     999902    2    1    2    0    0  0.22168633934E-01  0.10554763159E-01  0.26620043524E-02  0.10192330847E+01  0.10189338268E+01 0.  0.
     999903    2    3    3    0    0  0.69122375898E-01 -0.42894143743E-01  0.10056145524E+00  0.13095061728E+00  0.20436425045E-01 0.  0.
         14    1    1    2    0    0 -0.22168633934E-01 -0.10554763159E-01 -0.26620043524E-02  0.24696915253E-01  0.00000000000E+00 0.  1.
     999901    1    3    3    0    0 -0.46953741964E-01  0.53448906902E-01 -0.97899450883E-01  0.88828246747E+00  0.88000000000E+00 0. -1.
        -11    1    4    4    0    0  0.45833098139E-01 -0.37752859184E-01  0.64100303912E-01  0.87378838080E-01  0.51100000000E-03 0.  1.
         11    1    4    4    0    0  0.23289277759E-01 -0.51412845587E-02  0.36461151323E-01  0.43571779196E-01  0.51100000000E-03 0. -1.
</event>
<event>
 8    1  0.1119901E+005  0.1043930E+01  0.7957747E-01            NaN
         13   -1    0    0    0    0  0.00000000000E+00  0.00000000000E+00  0.74505805969E-08  0.10566000000E+00  0.10566000000E+00 0.  1.
     999900   -1    0    0    0    0 -0.00000000000E+00 -0.00000000000E+00 -0.74505805969E-08  0.93827000000E+00  0.93827000000E+00 0.  1.
     999902    2    1    2    0    0 -0.13889153304E-01 -0.16013862433E-01  0.87003445678E-02  0.10210160661E+01  0.10207589132E+01 0.  0.
     999903    2    3    3    0    0 -0.70125332677E-02 -0.30688766224E-01 -0.12541350105E+00  0.13070760033E+00  0.19103783475E-01 0.  0.
         14    1    1    2    0    0  0.13889153304E-01  0.16013862433E-01 -0.87003445678E-02  0.22913933864E-01  0.00000000000E+00 0. -1.
     999901    1    3    3    0    0 -0.68766200364E-02  0.14674903792E-01  0.13411384562E+00  0.89030846581E+00  0.88000000000E+00 0. -1.
        -11    1    4    4    0    0  0.14554935078E-02 -0.11943469361E-02 -0.38235469036E-01  0.38285207840E-01  0.51100000000E-03 0.  1.
         11    1    4    4    0    0 -0.84680267755E-02 -0.29494419288E-01 -0.87178032012E-01  0.92422392487E-01  0.51100000000E-03 0. -1.
</event>
<event>
 8    1  0.1119901E+005  0.1043930E+01  0.7957747E-01            NaN
         13   -1    0    0    0    0  0.00000000000E+00  0.00000000000E+00  0.74505805969E-08  0.10566000000E+00  0.10566000000E+00 0.  1.
     999900   -1    0    0    0    0 -0.00000000000E+00 -0.00000000000E+00 -0.74505805969E-08  0.93827000000E+00  0.93827000000E+00 0.  1.
     999902    2    1    2    0    0 -0.69288546580E-02 -0.21316191915E-01 -0.20232005563E-02  0.10214248360E+01  0.10211768766E+01 0.  0.
     999903    2    3    3    0    0  0.33725711307E-01 -0.60474119063E-01 -0.11161116034E+00  0.13283288360E+00  0.19823752775E-01 0.  0.
         14    1    1    2    0    0  0.69288546580E-02  0.21316191915E-01  0.20232005563E-02  0.22505163966E-01  0.00000000000E+00 0. -1.
     999901    1    3    3    0    0 -0.40654565965E-01  0.39157927148E-01  0.10958795979E+00  0.88859195243E+00  0.88000000000E+00 0. -1.
        -11    1    4    4    0    0  0.21352131939E-01 -0.26818847637E-01 -0.39549305295E-01  0.52340928510E-01  0.51100000000E-03 0. -1.
         11    1    4    4    0    0  0.12373579368E-01 -0.33655271426E-01 -0.72061855047E-01  0.80491955095E-01  0.51100000000E-03 0.  1.
</event>
<event>
 8    1  0.1119901E+005  0.1043930E+01  0.7957747E-01            NaN
         13   -1    0    0    0    0  0.00000000000E+00  0.00000000000E+00  0.74505805969E-08  0.10566000000E+00  0.10566000000E+00 0.  1.
     999900   -1    0    0    0    0 -0.00000000000E+00 -0.00000000000E+00 -0.74505805969E-08  0.93827000000E+00  0.93827000000E+00 0.  1.
     999902    2    1    2    0    0  0.19687317385E-01  0.12737139470E-01  0.23913848836E-02  0.10203600210E+01  0.10200877553E+01 0.  0.
     999903    2    3    3    0    0 -0.12144729185E+00  0.32197659119E-01  0.23839072114E-01  0.12864387053E+00  0.13957439440E-01 0.  0.
         14    1    1    2    0    0 -0.19687317385E-01 -0.12737139470E-01 -0.23913848836E-02  0.23569978985E-01  0.00000000000E+00 0.  1.
     999901    1    3    3    0    0  0.14113460923E+00 -0.19460519649E-01 -0.21447687230E-01  0.89171615049E+00  0.88000000000E+00 0. -1.
        -11    1    4    4    0    0 -0.74647732324E-01  0.13077435755E-01  0.16425809729E-01  0.77545932280E-01  0.51100000000E-03 0. -1.
         11    1    4    4    0    0 -0.46799559525E-01  0.19120223364E-01  0.74132623851E-02  0.51097938250E-01  0.51100000000E-03 0.  1.
</event>
<event>
 8    1  0.1119901E+005  0.1043930E+01  0.7957747E-01            NaN
         13   -1    0    0    0    0  0.00000000000E+00  0.00000000000E+00  0.74505805969E-08  0.10566000000E+00  0.10566000000E+00 0. -1.
     999900   -1    0    0    0    0 -0.00000000000E+00 -0.00000000000E+00 -0.74505805969E-08  0.93827000000E+00  0.93827000000E+00 0.  1.
     999902    2    1    2    0    0 -0.33200554150E-02  0.20991893576E-01 -0.10024139860E-01  0.10204317928E+01  0.10201612019E+01 0.  0.
     999903    2    3    3    0    0 -0.11307185358E+00  0.31737070304E-01  0.54867425260E-01  0.13117826802E+00  0.20120088022E-01 0.  0.
         14    1    1    2    0    0  0.33200554150E-02 -0.20991893576E-01  0.10024139860E-01  0.23498207246E-01  0.00000000000E+00 0.  1.
     999901    1    3    3    0    0  0.10975179817E+00 -0.10745176729E-01 -0.64891565121E-01  0.88925352473E+00  0.88000000000E+00 0.  1.
        -11    1    4    4    0    0 -0.64594317836E-01  0.78143246721E-02  0.28661852186E-01  0.71100298582E-01  0.51100000000E-03 0.  1.
         11    1    4    4    0    0 -0.48477535748E-01  0.23922745632E-01  0.26205573075E-01  0.60077969440E-01  0.51100000000E-03 0. -1.
</event>
<event>
 8    1  0.1119901E+005  0.1043930E+01  0.7957747E-01            NaN
         13   -1    0    0    0    0  0.00000000000E+00  0.00000000000E+00  0.74505805969E-08  0.10566000000E+00  0.10566000000E+00 0. -1.
     999900   -1    0    0    0    0 -0.00000000000E+00 -0.00000000000E+00 -0.74505805969E-08  0.93827000000E+00  0.93827000000E+00 0.  1.
     999902    2    1    2    0    0  0.20804544049E-02 -0.89719978185E-02  0.13457235491E-02  0.10346221535E+01  0.10345802842E+01 0.  0.
     999903    2    3    3    0    0 -0.21724576833E-01  0.88706063740E-01 -0.10703757807E+00  0.14229114800E+00  0.21189730946E-01 0.  0.
         14    1    1    2    0    0 -0.20804544049E-02  0.89719978185E-02 -0.13457235491E-02  0.93078465424E-02  0.00000000000E+00 0.  1.
     999901    1    3    3    0    0  0.23805031238E-01 -0.97678061559E-01  0.10838330162E+00  0.89233100545E+00  0.88000000000E+00 0. -1.
        -11    1    4    4    0    0  0.21114713210E-02  0.21164324523E-01 -0.33109468734E-01  0.39355876111E-01  0.51100000000E-03 0.  1.
         11    1    4    4    0    0 -0.23836048154E-01  0.67541739216E-01 -0.73928109341E-01  0.10293527189E+00  0.51100000000E-03 0. -1.
</event>
<event>
 8    1  0.1119901E+005  0.1043930E+01  0.7957747E-01            NaN
         13   -1    0    0    0    0  0.00000000000E+00  0.00000000000E+00  0.74505805969E-08  0.10566000000E+00  0.10566000000E+00 0.  1.
     999900   -1    0    0    0    0 -0.00000000000E+00 -0.00000000000E+00 -0.74505805969E-08  0.93827000000E+00  0.93827000000E+00 0.  1.
     999902    2    1    2    0    0  0.16266333708E-01 -0.16547541525E-01 -0.42450632191E-02  0.10203411190E+01  0.10200684114E+01 0.  0.
     999903    2    3    3    0    0  0.11605638707E+00 -0.58385294953E-01  0.23728231832E-01  0.13327237448E+00  0.17904445434E-01 0.  0.
         14    1    1    2    0    0 -0.16266333708E-01  0.16547541525E-01  0.42450632191E-02  0.23588880952E-01  0.00000000000E+00 0. -1.
     999901    1    3    3    0    0 -0.99790053361E-01  0.41837753428E-01 -0.27973295051E-01  0.88706874457E+00  0.88000000000E+00 0.  1.
        -11    1    4    4    0    0  0.55031254530E-01 -0.19760148758E-01  0.51639983548E-02  0.58701196360E-01  0.51100000000E-03 0. -1.
         11    1    4    4    0    0  0.61025132539E-01 -0.38625146195E-01  0.18564233477E-01  0.74571178116E-01  0.51100000000E-03 0.  1.
</event>
<event>
 8    1  0.1119901E+005  0.1043930E+01  0.7957747E-01            NaN
         13   -1    0    0    0    0  0.00000000000E+00  0.00000000000E+00  0.74505805969E-08  0.10566000000E+00  0.10566000000E+00 0.  1.
     999900   -1    0    0    0    0 -0.00000000000E+00 -0.00000000000E+00 -0.74505805969E-08  0.93827000000E+00  0.93827000000E+00 0.  1.
     999902    2    1    2    0    0  0.10604641591E-01  0.18308614394E-01  0.13629639339E-01  0.10187619478E+01  0.10184510177E+01 0.  0.
     999903    2    3    3    0    0  0.11260654277E+00  0.21967683495E-01 -0.58376642508E-01  0.12994099772E+00  0.17720550376E-01 0.  0.
         14    1    1    2    0    0 -0.10604641591E-01 -0.18308614394E-01 -0.13629639339E-01  0.25168052225E-01  0.00000000000E+00 0.  1.
     999901    1    3    3    0    0 -0.10200190118E+00 -0.36590691002E-02  0.72006281847E-01  0.88882095005E+00  0.88000000000E+00 0. -1.
        -11    1    4    4    0    0  0.72538972030E-01  0.17034649379E-01 -0.28769156890E-01  0.79874947586E-01  0.51100000000E-03 0. -1.
         11    1    4    4    0    0  0.40067570738E-01  0.49330341152E-02 -0.29607485618E-01  0.50066050134E-01  0.51100000000E-03 0.  1.
</event>
<event>
 8    1  0.1119901E+005  0.1043930E+01  0.7957747E-01            NaN
         13   -1    0    0    0    0  0.00000000000E+00  0.00000000000E+00  0.74505805969E-08  0.10566000000E+00  0.10566000000E+00 0. -1.
     999900   -1    0    0    0    0 -0.00000000000E+00 -0.00000000000E+00 -0.74505805969E-08  0.93827000000E+00  0.93827000000E+00 0.  1.
     999902    2    1    2    0    0  0.16224502784E-01 -0.56059315162E-02 -0.16041295748E-01  0.10204356575E+01  0.10201651567E+01 0.  0.
     999903    2    3    3    0    0  0.12115524440E+00  0.48966411531E-01  0.48443717629E-02  0.13227755659E+00  0.19939441725E-01 0.  0.
         14    1    1    2    0    0 -0.16224502784E-01  0.56059315162E-02  0.16041295748E-01  0.23494342469E-01  0.00000000000E+00 0. -1.
     999901    1    3    3    0    0 -0.10493074161E+00 -0.54572343048E-01 -0.20885667511E-01  0.88815810094E+00  0.88000000000E+00 0.  1.
        -11    1    4    4    0    0  0.10068936884E+00  0.32265262532E-01  0.50829300331E-02  0.10585600344E+00  0.51100000000E-03 0.  1.
         11    1    4    4    0    0  0.20465875553E-01  0.16701148999E-01 -0.23855827018E-03  0.26421553154E-01  0.51100000000E-03 0. -1.
</event>
<event>
 8    1  0.1119901E+005  0.1043930E+01  0.7957747E-01            NaN
         13   -1    0    0    0    0  0.00000000000E+00  0.00000000000E+00  0.74505805969E-08  0.10566000000E+00  0.10566000000E+00 0.  1.
     999900   -1    0    0    0    0 -0.00000000000E+00 -0.00000000000E+00 -0.74505805969E-08  0.93827000000E+00  0.93827000000E+00 0.  1.
     999902    2    1    2    0    0  0.17956334311E-02  0.20933829498E-01  0.80011613220E-02  0.10214473823E+01  0.10211999249E+01 0.  0.
     999903    2    3    3    0    0  0.40850500179E-01  0.34614938440E-02  0.12468172073E+00  0.13271518523E+00  0.19673423748E-01 0.  0.
         14    1    1    2    0    0 -0.17956334311E-02 -0.20933829498E-01 -0.80011613220E-02  0.22482617716E-01  0.00000000000E+00 0.  1.
     999901    1    3    3    0    0 -0.39054866748E-01  0.17472335654E-01 -0.11668055941E+00  0.88873219705E+00  0.88000000000E+00 0.  1.
        -11    1    4    4    0    0  0.36075008241E-01  0.78572206134E-02  0.87564606952E-01  0.95031382433E-01  0.51100000000E-03 0. -1.
         11    1    4    4    0    0  0.47754919380E-02 -0.43957267693E-02  0.37117113781E-01  0.37683802801E-01  0.51100000000E-03 0.  1.
</event>
<event>
 8    1  0.1119901E+005  0.1043930E+01  0.7957747E-01            NaN
         13   -1    0    0    0    0  0.00000000000E+00  0.00000000000E+00  0.74505805969E-08  0.10566000000E+00  0.10566000000E+00 0.  1.
     999900   -1    0    0    0    0 -0.00000000000E+00 -0.00000000000E+00 -0.74505805969E-08  0.93827000000E+00  0.93827000000E+00 0. -1.
     999902    2    1    2    0    0 -0.22281043391E-02  0.14504231585E-01  0.17863129027E-01  0.10208122890E+01  0.10205504891E+01 0.  0.
     999903    2    3    3    0    0  0.32564600101E-01 -0.10194370523E+00  0.72507903552E-01  0.13078043247E+00  0.19828091797E-01 0.  0.
         14    1    1    2    0    0  0.22281043391E-02 -0.14504231585E-01 -0.17863129027E-01  0.23117710991E-01  0.00000000000E+00 0. -1.
     999901    1    3    3    0    0 -0.34792704440E-01  0.11644793681E+00 -0.54644774525E-01  0.89003185654E+00  0.88000000000E+00 0. -1.
        -11    1    4    4    0    0  0.18640375511E-01 -0.40199739715E-01  0.20353092038E-01  0.48764660861E-01  0.51100000000E-03 0.  1.
         11    1    4    4    0    0  0.13924224589E-01 -0.61743965514E-01  0.52154811514E-01  0.82015771610E-01  0.51100000000E-03 0. -1.
</event>
<event>
 8    1  0.1119901E+005  0.1043930E+01  0.7957747E-01            NaN
         13   -1    0    0    0    0  0.00000000000E+00  0.00000000000E+00  0.74505805969E-08  0.10566000000E+00  0.10566000000E+00 0. -1.
     999900   -1    0    0    0    0 -0.00000000000E+00 -0.00000000000E+00 -0.74505805969E-08  0.93827000000E+00  0.93827000000E+00 0.  1.
     999902    2    1    2    0    0 -0.11976609123E-01 -0.27765572705E-02  0.15879634600E-01  0.10238473898E+01  0.10236504122E+01 0.  0.
     999903    2    3    3    0    0  0.23738429213E-01 -0.78679861266E-01  0.10557100359E+00  0.13531972161E+00  0.20301641971E-01 0.  0.
         14    1    1    2    0    0  0.11976609123E-01  0.27765572705E-02 -0.15879634600E-01  0.20082610174E-01  0.00000000000E+00 0.  1.
     999901    1    3    3    0    0 -0.35715038336E-01  0.75903303995E-01 -0.89691368989E-01  0.88852766822E+00  0.88000000000E+00 0.  1.
        -11    1    4    4    0    0  0.13038889931E-01 -0.17373101130E-01  0.35302897049E-01  0.41453503526E-01  0.51100000000E-03 0.  1.
         11    1    4    4    0    0  0.10699539283E-01 -0.61306760136E-01  0.70268106539E-01  0.93866218081E-01  0.51100000000E-03 0. -1.
</event>
<event>
 8    1  0.1119901E+005  0.1043930E+01  0.7957747E-01            NaN
         13   -1    0    0    0    0  0.00000000000E+00  0.00000000000E+00  0.74505805969E-08  0.10566000000E+00  0.10566000000E+00 0.  1.
     999900   -1    0    0    0    0 -0.00000000000E+00 -0.00000000000E+00 -0.74505805969E-08  0.93827000000E+00  0.93827000000E+00 0.  1.
     999902    2    1    2    0    0  0.18182164801E-01  0.12073514614E-01 -0.82871887497E-02  0.10205839432E+01  0.10203168854E+01 0.  0.
     999903    2    3    3    0    0 -0.11658634252E+00 -0.31387784048E-01  0.37523039431E-01  0.12808743783E+00  0.20514506853E-01 0.  0.
         14    1    1    2    0    0 -0.18182164801E-01 -0.12073514614E-01  0.82871887497E-02  0.23346056827E-01  0.00000000000E+00 0.  1.
     999901    1    3    3    0    0  0.13476850732E+00  0.43461298663E-01 -0.45810228181E-01  0.89249650535E+00  0.88000000000E+00 0.  1.
        -11    1    4    4    0    0 -0.58562353564E-01 -0.60953366453E-02  0.22474294639E-01  0.63024260601E-01  0.51100000000E-03 0.  1.
         11    1    4    4    0    0 -0.58023988956E-01 -0.25292447403E-01  0.15048744792E-01  0.65063177227E-01  0.51100000000E-03 0. -1.
</event>
<event>
 8    1  0.1119901E+005  0.1043930E+01  0.7957747E-01            NaN
         13   -1    0    0    0    0  0.00000000000E+00  0.00000000000E+00  0.74505805969E-08  0.10566000000E+00  0.10566000000E+00 0.  1.
     999900   -1    0    0    0    0 -0.00000000000E+00 -0.00000000000E+00 -0.74505805969E-08  0.93827000000E+00  0.93827000000E+00 0.  1.
     999902    2    1    2    0    0  0.23125562189E-02  0.73559255842E-02 -0.22455139564E-01  0.10201878255E+01  0.10199115199E+01 0.  0.
     999903    2    3    3    0    0 -0.10672489144E+00 -0.69501159518E-01 -0.17471948509E-01  0.13011984567E+00  0.20131855961E-01 0.  0.
         14    1    1    2    0    0 -0.23125562189E-02 -0.73559255842E-02  0.22455139564E-01  0.23742174507E-01  0.00000000000E+00 0.  1.
     999901    1    3    3    0    0  0.10903744766E+00  0.76857085102E-01 -0.49831910552E-02  0.89006797983E+00  0.88000000000E+00 0. -1.
        -11    1    4    4    0    0 -0.31562494605E-01 -0.10301628984E-01 -0.27884964045E-02  0.33321936597E-01  0.51100000000E-03 0. -1.
         11    1    4    4    0    0 -0.75162396833E-01 -0.59199530534E-01 -0.14683452105E-01  0.96797909068E-01  0.51100000000E-03 0.  1.
</event>
<event>
 8    1  0.1119901E+005  0.1043930E+01  0.7957747E-01            NaN
         13   -1    0    0    0    0  0.00000000000E+00  0.00000000000E+00  0.74505805969E-08  0.10566000000E+00  0.10566000000E+00 0.  1.
     999900   -1    0    0    0    0 -0.00000000000E+00 -0.00000000000E+00 -0.74505805969E-08  0.93827000000E+00  0.93827000000E+00 0. -1.
     999902    2    1    2    0    0 -0.81412035888E-02 -0.20032824311E-01 -0.98766109313E-02  0.10201573121E+01  0.10198802875E+01 0.  0.
     999903    2    3    3    0    0  0.61536920654E-01  0.32796289015E-01 -0.10827112974E+00  0.13036664148E+00  0.20259183081E-01 0.  0.
         14    1    1    2    0    0  0.81412035888E-02  0.20032824311E-01  0.98766109313E-02  0.23772687884E-01  0.00000000000E+00 0.  1.
     999901    1    3    3    0    0 -0.69678124243E-01 -0.52829113326E-01  0.98394518811E-01  0.88979067063E+00  0.88000000000E+00 0.  1.
        -11    1    4    4    0    0  0.47596048192E-01  0.33747767212E-01 -0.91633740254E-01  0.10863378420E+00  0.51100000000E-03 0. -1.
         11    1    4    4    0    0  0.13940872462E-01 -0.95147819721E-03 -0.16637389488E-01  0.21732857285E-01  0.51100000000E-03 0.  1.
</event>
<event>
 8    1  0.1119901E+005  0.1043930E+01  0.7957747E-01            NaN
         13   -1    0    0    0    0  0.00000000000E+00  0.00000000000E+00  0.74505805969E-08  0.10566000000E+00  0.10566000000E+00 0. -1.
     999900   -1    0    0    0    0 -0.00000000000E+00 -0.00000000000E+00 -0.74505805969E-08  0.93827000000E+00  0.93827000000E+00 0. -1.
     999902    2    1    2    0    0 -0.12230835108E-01  0.12117130036E-01  0.17821525361E-01  0.10191504735E+01  0.10188491854E+01 0.  0.
     999903    2    3    3    0    0  0.13374749839E-02 -0.12438168905E+00  0.25595841654E-01  0.12848978241E+00  0.19541843895E-01 0.  0.
         14    1    1    2    0    0  0.12230835108E-01 -0.12117130036E-01 -0.17821525361E-01  0.24779526508E-01  0.00000000000E+00 0.  1.
     999901    1    3    3    0    0 -0.13568310092E-01  0.13649881909E+00 -0.77743162932E-02  0.89066069109E+00  0.88000000000E+00 0. -1.
        -11    1    4    4    0    0 -0.43991082663E-02 -0.71835291034E-01  0.64175624270E-02  0.72257230918E-01  0.51100000000E-03 0.  1.
         11    1    4    4    0    0  0.57365832501E-02 -0.52546398016E-01  0.19178279227E-01  0.56232551489E-01  0.51100000000E-03 0. -1.
</event>
<event>
 8    1  0.1119901E+005  0.1043930E+01  0.7957747E-01            NaN
         13   -1    0    0    0    0  0.00000000000E+00  0.00000000000E+00  0.74505805969E-08  0.10566000000E+00  0.10566000000E+00 0.  1.
     999900   -1    0    0    0    0 -0.00000000000E+00 -0.00000000000E+00 -0.74505805969E-08  0.93827000000E+00  0.93827000000E+00 0. -1.
     999902    2    1    2    0    0 -0.97988905836E-02 -0.20057166676E-01  0.88775198144E-02  0.10199067082E+01  0.10196237418E+01 0.  0.
     999903    2    3    3    0    0  0.10502512512E+00  0.28972719089E-02  0.73543503806E-01  0.12979820338E+00  0.20006387935E-01 0.  0.
         14    1    1    2    0    0  0.97988905836E-02  0.20057166676E-01 -0.88775198144E-02  0.24023291818E-01  0.00000000000E+00 0.  1.
     999901    1    3    3    0    0 -0.11482401570E+00 -0.22954438585E-01 -0.64665983992E-01  0.89010850480E+00  0.88000000000E+00 0. -1.
        -11    1    4    4    0    0  0.14500987779E-01 -0.16802876543E-03  0.19556628012E-01  0.24352201141E-01  0.51100000000E-03 0.  1.
         11    1    4    4    0    0  0.90524137340E-01  0.30653006744E-02  0.53986875794E-01  0.10544600224E+00  0.51100000000E-03 0. -1.
</event>
<event>
 8    1  0.1119901E+005  0.1043930E+01  0.7957747E-01            NaN
         13   -1    0    0    0    0  0.00000000000E+00  0.00000000000E+00  0.74505805969E-08  0.10566000000E+00  0.10566000000E+00 0.  1.
     999900   -1    0    0    0    0 -0.00000000000E+00 -0.00000000000E+00 -0.74505805969E-08  0.93827000000E+00  0.93827000000E+00 0.  1.
     999902    2    1    2    0    0  0.29300766806E-02  0.28420751637E-01  0.11809385365E-02  0.10153342120E+01  0.10149314475E+01 0.  0.
     999903    2    3    3    0    0 -0.33565313722E-01  0.95006182991E-01 -0.76882980579E-01  0.12862145773E+00  0.21901634530E-01 0.  0.
         14    1    1    2    0    0 -0.29300766806E-02 -0.28420751637E-01 -0.11809385365E-02  0.28595787956E-01  0.00000000000E+00 0.  1.
     999901    1    3    3    0    0  0.36495390403E-01 -0.66585431354E-01  0.78063919116E-01  0.88671275431E+00  0.88000000000E+00 0.  1.
        -11    1    4    4    0    0 -0.18774106871E-02  0.11274395968E-01 -0.18455662954E-01  0.21714264699E-01  0.51100000000E-03 0. -1.
         11    1    4    4    0    0 -0.31687903035E-01  0.83731787023E-01 -0.58427317625E-01  0.10690719304E+00  0.51100000000E-03 0.  1.
</event>
<event>
 8    1  0.1119901E+005  0.1043930E+01  0.7957747E-01            NaN
         13   -1    0    0    0    0  0.00000000000E+00  0.00000000000E+00  0.74505805969E-08  0.10566000000E+00  0.10566000000E+00 0.  1.
     999900   -1    0    0    0    0 -0.00000000000E+00 -0.00000000000E+00 -0.74505805969E-08  0.93827000000E+00  0.93827000000E+00 0. -1.
     999902    2    1    2    0    0 -0.17971017459E-01  0.15027379817E-01  0.32362508257E-02  0.10202814708E+01  0.10200073660E+01 0.  0.
     999903    2    3    3    0    0  0.86510507584E-01 -0.76205697793E-01 -0.51166915027E-01  0.12775720338E+00  0.20309444195E-01 0.  0.
         14    1    1    2    0    0  0.17971017459E-01 -0.15027379817E-01 -0.32362508257E-02  0.23648529174E-01  0.00000000000E+00 0.  1.
     999901    1    3    3    0    0 -0.10448152504E+00  0.91233077610E-01  0.54403165853E-01  0.89252426745E+00  0.88000000000E+00 0.  1.
        -11    1    4    4    0    0  0.15751208715E-01 -0.62937739728E-02 -0.12310199249E-01  0.20964596188E-01  0.51100000000E-03 0.  1.
         11    1    4    4    0    0  0.70759298869E-01 -0.69911923820E-01 -0.38856715778E-01  0.10679260719E+00  0.51100000000E-03 0. -1.
</event>
<event>
 8    1  0.1119901E+005  0.1043930E+01  0.7957747E-01            NaN
         13   -1    0    0    0    0  0.00000000000E+00  0.00000000000E+00  0.74505805969E-08  0.10566000000E+00  0.10566000000E+00 0. -1.
     999900   -1    0    0    0    0 -0.00000000000E+00 -0.00000000000E+00 -0.74505805969E-08  0.93827000000E+00  0.93827000000E+00 0.  1.
     999902    2    1    2    0    0  0.18092774395E-01  0.98899977971E-02 -0.10797823633E-01  0.10206544004E+01  0.10203889707E+01 0.  0.
     999903    2    3    3    0    0 -0.53896518583E-01 -0.51283620566E-01  0.10261362432E+00  0.12836138439E+00  0.20303808842E-01 0.  0.
         14    1    1    2    0    0 -0.18092774395E-01 -0.98899977971E-02  0.10797823633E-01  0.23275599605E-01  0.00000000000E+00 0. -1.
     999901    1    3    3    0    0  0.71989292978E-01  0.61173618363E-01 -0.11341144795E+00  0.89229301601E+00  0.88000000000E+00 0.  1.
        -11    1    4    4    0    0 -0.29718167478E-01 -0.41192828491E-01  0.70983967090E-01  0.87286902237E-01  0.51100000000E-03 0. -1.
         11    1    4    4    0    0 -0.24178351105E-01 -0.10090792075E-01  0.31629657226E-01  0.41074482152E-01  0.51100000000E-03 0.  1.
</event>
<event>
 8    1  0.1119901E+005  0.1043930E+01  0.7957747E-01            NaN
         13   -1    0    0    0    0  0.00000000000E+00  0.00000000000E+00  0.74505805969E-08  0.10566000000E+00  0.10566000000E+00 0. -1.
     999900   -1    0    0    0    0 -0.00000000000E+00 -0.00000000000E+00 -0.74505805969E-08  0.93827000000E+00  0.93827000000E+00 0. -1.
     999902    2    1    2    0    0 -0.15661571435E-01 -0.33311049579E-02 -0.16715541755E-01  0.10207828530E+01  0.10205203783E+01 0.  0.
     999903    2    3    3    0    0 -0.38983467168E-01  0.49574890716E-01  0.11146205160E+00  0.12961931542E+00  0.19999937010E-01 0.  0.
         14    1    1    2    0    0  0.15661571435E-01  0.33311049579E-02  0.16715541755E-01  0.23147147042E-01  0.00000000000E+00 0. -1.
     999901    1    3    3    0    0  0.23321895733E-01 -0.52905995674E-01 -0.12817759336E+00  0.89116353754E+00  0.88000000000E+00 0. -1.
        -11    1    4    4    0    0 -0.24493779430E-01  0.38014607261E-01  0.93200234347E-01  0.10359343801E+00  0.51100000000E-03 0. -1.
         11    1    4    4    0    0 -0.14489687738E-01  0.11560283455E-01  0.18261817255E-01  0.26025877406E-01  0.51100000000E-03 0.  1.
</event>
<event>
 8    1  0.1119901E+005  0.1043930E+01  0.7957747E-01            NaN
         13   -1    0    0    0    0  0.00000000000E+00  0.00000000000E+00  0.74505805969E-08  0.10566000000E+00  0.10566000000E+00 0. -1.
     999900   -1    0    0    0    0 -0.00000000000E+00 -0.00000000000E+00 -0.74505805969E-08  0.93827000000E+00  0.93827000000E+00 0.  1.
     999902    2    1    2    0    0 -0.19523503193E-01 -0.95029944440E-02 -0.11494383249E-01  0.10193618310E+01  0.10190657229E+01 0.  0.
     999903    2    3    3    0    0 -0.84198894651E-01  0.97520792331E-01 -0.14719582114E-02  0.13046507313E+00  0.20474614740E-01 0.  0.
         14    1    1    2    0    0  0.19523503193E-01  0.95029944440E-02  0.11494383249E-01  0.24568168972E-01  0.00000000000E+00 0.  1.
     999901    1    3    3    0    0  0.64675391458E-01 -0.10702378678E+00 -0.10022425038E-01  0.88889675790E+00  0.88000000000E+00 0. -1.
        -11    1    4    4    0    0 -0.57799898839E-01  0.52624625875E-01  0.26777194025E-02  0.78215157460E-01  0.51100000000E-03 0.  1.
         11    1    4    4    0    0 -0.26398995813E-01  0.44896166457E-01 -0.41496776139E-02  0.52249915672E-01  0.51100000000E-03 0. -1.
</event>
<event>
 8    1  0.1119901E+005  0.1043930E+01  0.7957747E-01            NaN
         13   -1    0    0    0    0  0.00000000000E+00  0.00000000000E+00  0.74505805969E-08  0.10566000000E+00  0.10566000000E+00 0.  1.
     999900   -1    0    0    0    0 -0.00000000000E+00 -0.00000000000E+00 -0.74505805969E-08  0.93827000000E+00  0.93827000000E+00 0.  1.
     999902    2    1    2    0    0 -0.17393999774E-01  0.15999685708E-01  0.27741675275E-03  0.10202948962E+01  0.10200211062E+01 0.  0.
     999903    2    3    3    0    0 -0.13021308876E+00  0.19429783538E-01  0.13526262849E-02  0.13308518680E+00  0.19413201040E-01 0.  0.
         14    1    1    2    0    0  0.17393999774E-01 -0.15999685708E-01 -0.27741675275E-03  0.23635103786E-01  0.00000000000E+00 0. -1.
     999901    1    3    3    0    0  0.11281908898E+00 -0.34300978297E-02 -0.10752095321E-02  0.88720970942E+00  0.88000000000E+00 0.  1.
        -11    1    4    4    0    0 -0.11617393732E+00  0.20253682119E-01  0.64859846422E-02  0.11810556494E+00  0.51100000000E-03 0. -1.
         11    1    4    4    0    0 -0.14039151437E-01 -0.82389858059E-03 -0.51333583574E-02  0.14979621856E-01  0.51100000000E-03 0.  1.
</event>
<event>
 8    1  0.1119901E+005  0.1043930E+01  0.7957747E-01            NaN
         13   -1    0    0    0    0  0.00000000000E+00  0.00000000000E+00  0.74505805969E-08  0.10566000000E+00  0.10566000000E+00 0. -1.
     999900   -1    0    0    0    0 -0.00000000000E+00 -0.00000000000E+00 -0.74505805969E-08  0.93827000000E+00  0.93827000000E+00 0. -1.
     999902    2    1    2    0    0 -0.23009260062E-01  0.19716189919E-03 -0.18596461289E-02  0.10208448705E+01  0.10205838164E+01 0.  0.
     999903    2    3    3    0    0  0.28798912937E-01 -0.56121680968E-01  0.11214307549E+00  0.13019762303E+00  0.19908068749E-01 0.  0.
         14    1    1    2    0    0  0.23009260062E-01 -0.19716189919E-03  0.18596461289E-02  0.23085129524E-01  0.00000000000E+00 0. -1.
     999901    1    3    3    0    0 -0.51808172999E-01  0.56318842867E-01 -0.11400272162E+00  0.89064724745E+00  0.88000000000E+00 0. -1.
        -11    1    4    4    0    0 -0.21417991909E-03 -0.18521258398E-01  0.35108311322E-01  0.39698079683E-01  0.51100000000E-03 0.  1.
         11    1    4    4    0    0  0.29013092856E-01 -0.37600422570E-01  0.77034764165E-01  0.90499543344E-01  0.51100000000E-03 0. -1.
</event>
<event>
 8    1  0.1119901E+005  0.1043930E+01  0.7957747E-01            NaN
         13   -1    0    0    0    0  0.00000000000E+00  0.00000000000E+00  0.74505805969E-08  0.10566000000E+00  0.10566000000E+00 0. -1.
     999900   -1    0    0    0    0 -0.00000000000E+00 -0.00000000000E+00 -0.74505805969E-08  0.93827000000E+00  0.93827000000E+00 0. -1.
     999902    2    1    2    0    0 -0.18389282545E-01 -0.15874471851E-01  0.86085553197E-03  0.10196214492E+01  0.10193316409E+01 0.  0.
     999903    2    3    3    0    0 -0.10086866873E+00  0.33158017509E-01  0.74965165565E-01  0.13130929523E+00  0.18665811233E-01 0.  0.
         14    1    1    2    0    0  0.18389282545E-01  0.15874471851E-01 -0.86085553197E-03  0.24308550786E-01  0.00000000000E+00 0. -1.
     999901    1    3    3    0    0  0.82479386181E-01 -0.49032489360E-01 -0.74104310033E-01  0.88831215399E+00  0.88000000000E+00 0. -1.
        -11    1    4    4    0    0 -0.74313631853E-01  0.15601021255E-01  0.51318284022E-01  0.91650068954E-01  0.51100000000E-03 0. -1.
         11    1    4    4    0    0 -0.26555036873E-01  0.17556996254E-01  0.23646881543E-01  0.39659226272E-01  0.51100000000E-03 0.  1.
</event>
<event>
 8    1  0.1119901E+005  0.1043930E+01  0.7957747E-01            NaN
         13   -1    0    0    0    0  0.00000000000E+00  0.00000000000E+00  0.74505805969E-08  0.10566000000E+00  0.10566000000E+00 0.  1.
     999900   -1    0    0    0    0 -0.00000000000E+00 -0.00000000000E+00 -0.74505805969E-08  0.93827000000E+00  0.93827000000E+00 0.  1.
     999902    2    1    2    0    0  0.17622772844E-01  0.15451867432E-01  0.57544530764E-03  0.10204853105E+01  0.10202159651E+01 0.  0.
     999903    2    3    3    0    0  0.55654003893E-01  0.10062399693E+00 -0.64249354455E-01  0.13318439148E+00  0.19686179890E-01 0.  0.
         14    1    1    2    0    0 -0.17622772844E-01 -0.15451867432E-01 -0.57544530764E-03  0.23444689530E-01  0.00000000000E+00 0.  1.
     999901    1    3    3    0    0 -0.38031231049E-01 -0.85172129496E-01  0.64824799763E-01  0.88730091899E+00  0.88000000000E+00 0. -1.
        -11    1    4    4    0    0  0.29858169308E-01  0.36675186659E-01 -0.20702248347E-01  0.51627742528E-01  0.51100000000E-03 0.  1.
         11    1    4    4    0    0  0.25795834585E-01  0.63948810269E-01 -0.43547106108E-01  0.81556648952E-01  0.51100000000E-03 0. -1.
</event>
<event>
 8    1  0.1119901E+005  0.1043930E+01  0.7957747E-01            NaN
         13   -1    0    0    0    0  0.00000000000E+00  0.00000000000E+00  0.74505805969E-08  0.10566000000E+00  0.10566000000E+00 0. -1.
     999900   -1    0    0    0    0 -0.00000000000E+00 -0.00000000000E+00 -0.74505805969E-08  0.93827000000E+00  0.93827000000E+00 0.  1.
     999902    2    1    2    0    0  0.23703213300E-02 -0.23396126258E-01  0.96512731642E-02  0.10185106330E+01  0.10181933830E+01 0.  0.
     999903    2    3    3    0    0 -0.69896632508E-01  0.45629487477E-01 -0.93370268360E-01  0.12688263542E+00  0.20337325175E-01 0.  0.
         14    1    1    2    0    0 -0.23703213300E-02  0.23396126258E-01 -0.96512731642E-02  0.25419367042E-01  0.00000000000E+00 0. -1.
     999901    1    3    3    0    0  0.72266953838E-01 -0.69025613736E-01  0.10302154152E+00  0.89162799753E+00  0.88000000000E+00 0.  1.
        -11    1    4    4    0    0 -0.37674742745E-01  0.15646336549E-01 -0.55066411329E-01  0.68532947303E-01  0.51100000000E-03 0. -1.
         11    1    4    4    0    0 -0.32221889763E-01  0.29983150928E-01 -0.38303857030E-01  0.58349688122E-01  0.51100000000E-03 0.  1.
</event>
<event>
 8    1  0.1119901E+005  0.1043930E+01  0.7957747E-01            NaN
         13   -1    0    0    0    0  0.00000000000E+00  0.00000000000E+00  0.74505805969E-08  0.10566000000E+00  0.10566000000E+00 0.  1.
     999900   -1    0    0    0    0 -0.00000000000E+00 -0.00000000000E+00 -0.74505805969E-08  0.93827000000E+00  0.93827000000E+00 0. -1.
     999902    2    1    2    0    0 -0.20022989763E-01  0.44013891079E-02 -0.17265814183E-01  0.10171270023E+01  0.10167737891E+01 0.  0.
     999903    2    3    3    0    0 -0.44087614928E-01  0.11399464745E+00 -0.38762828489E-01  0.12974213087E+00  0.19798136580E-01 0.  0.
         14    1    1    2    0    0  0.20022989763E-01 -0.44013891079E-02  0.17265814183E-01  0.26802997678E-01  0.00000000000E+00 0.  1.
     999901    1    3    3    0    0  0.24064625165E-01 -0.10959325835E+00  0.21497014306E-01  0.88738487145E+00  0.88000000000E+00 0.  1.
        -11    1    4    4    0    0 -0.37568635512E-01  0.80828091198E-01 -0.21084315845E-01  0.91593625306E-01  0.51100000000E-03 0. -1.
         11    1    4    4    0    0 -0.65189794161E-02  0.33166556255E-01 -0.17678512644E-01  0.38148505563E-01  0.51100000000E-03 0.  1.
</event>
<event>
 8    1  0.1119901E+005  0.1043930E+01  0.7957747E-01            NaN
         13   -1    0    0    0    0  0.00000000000E+00  0.00000000000E+00  0.74505805969E-08  0.10566000000E+00  0.10566000000E+00 0.  1.
     999900   -1    0    0    0    0 -0.00000000000E+00 -0.00000000000E+00 -0.74505805969E-08  0.93827000000E+00  0.93827000000E+00 0.  1.
     999902    2    1    2    0    0  0.22885015874E-01  0.51211891524E-02  0.40081182995E-02  0.10201389189E+01  0.10198614603E+01 0.  0.
     999903    2    3    3    0    0 -0.42250112137E-01 -0.11936638820E+00 -0.12558390984E-01  0.12883975973E+00  0.20212963551E-01 0.  0.
         14    1    1    2    0    0 -0.22885015874E-01 -0.51211891524E-02 -0.40081182995E-02  0.23791081148E-01  0.00000000000E+00 0. -1.
     999901    1    3    3    0    0  0.65135128011E-01  0.12448757736E+00  0.16566509284E-01  0.89129915912E+00  0.88000000000E+00 0. -1.
        -11    1    4    4    0    0 -0.11724456292E-01 -0.59952913409E-01 -0.13373427207E-02  0.61105354168E-01  0.51100000000E-03 0.  1.
         11    1    4    4    0    0 -0.30525655845E-01 -0.59413474795E-01 -0.11221048263E-01  0.67734405564E-01  0.51100000000E-03 0. -1.
</event>
<event>
 8    1  0.1119901E+005  0.1043930E+01  0.7957747E-01            NaN
         13   -1    0    0    0    0  0.00000000000E+00  0.00000000000E+00  0.74505805969E-08  0.10566000000E+00  0.10566000000E+00 0. -1.
     999900   -1    0    0    0    0 -0.00000000000E+00 -0.00000000000E+00 -0.74505805969E-08  0.93827000000E+00  0.93827000000E+00 0. -1.
     999902    2    1    2    0    0  0.77392382907E-02  0.14846162311E-01 -0.12159858328E-01  0.10232378155E+01  0.10230285727E+01 0.  0.
     999903    2    3    3    0    0  0.62186787046E-01  0.16816707133E-01  0.11452045529E+00  0.13249861660E+00  0.17057274050E-01 0.  0.
         14    1    1    2    0    0 -0.77392382907E-02 -0.14846162311E-01  0.12159858328E-01  0.20692184497E-01  0.00000000000E+00 0. -1.
     999901    1    3    3    0    0 -0.54447548756E-01 -0.19705448212E-02 -0.12668031362E+00  0.89073919891E+00  0.88000000000E+00 0. -1.
        -11    1    4    4    0    0  0.21858900086E-01  0.12968501545E-01  0.35070316513E-01  0.43314913905E-01  0.51100000000E-03 0. -1.
         11    1    4    4    0    0  0.40327886961E-01  0.38482055881E-02  0.79450138777E-01  0.89183702691E-01  0.51100000000E-03 0.  1.
</event>
<event>
 8    1  0.1119901E+005  0.1043930E+01  0.7957747E-01            NaN
         13   -1    0    0    0    0  0.00000000000E+00  0.00000000000E+00  0.74505805969E-08  0.10566000000E+00  0.10566000000E+00 0. -1.
     999900   -1    0    0    0    0 -0.00000000000E+00 -0.00000000000E+00 -0.74505805969E-08  0.93827000000E+00  0.93827000000E+00 0. -1.
     999902    2    1    2    0    0 -0.17013459679E-01 -0.16001650945E-01  0.18515658331E-02  0.10205005540E+01  0.10202315628E+01 0.  0.
     999903    2    3    3    0    0  0.11240255342E-01  0.12477881902E+00  0.21381521963E-01  0.12864920299E+00  0.19933663314E-01 0.  0.
         14    1    1    2    0    0  0.17013459679E-01  0.16001650945E-01 -0.18515658331E-02  0.23429445986E-01  0.00000000000E+00 0. -1.
     999901    1    3    3    0    0 -0.28253715021E-01 -0.14078046996E+00 -0.19529956130E-01  0.89185135102E+00  0.88000000000E+00 0.  1.
        -11    1    4    4    0    0  0.10077440640E-01  0.29370391026E-01  0.96138436978E-02  0.32509410800E-01  0.51100000000E-03 0. -1.
         11    1    4    4    0    0  0.11628147020E-02  0.95408427991E-01  0.11767678266E-01  0.96139792191E-01  0.51100000000E-03 0.  1.
</event>
<event>
 8    1  0.1119901E+005  0.1043930E+01  0.7957747E-01            NaN
         13   -1    0    0    0    0  0.00000000000E+00  0.00000000000E+00  0.74505805969E-08  0.10566000000E+00  0.10566000000E+00 0.  1.
     999900   -1    0    0    0    0 -0.00000000000E+00 -0.00000000000E+00 -0.74505805969E-08  0.93827000000E+00  0.93827000000E+00 0. -1.
     999902    2    1    2    0    0 -0.18212006582E-01  0.64618698254E-02 -0.14535947321E-01  0.10197488770E+01  0.10194621354E+01 0.  0.
     999903    2    3    3    0    0 -0.84361633406E-01 -0.95236848310E-01 -0.26578476803E-01  0.13134388775E+00  0.18917160264E-01 0.  0.
         14    1    1    2    0    0  0.18212006582E-01 -0.64618698254E-02  0.14535947321E-01  0.24181123007E-01  0.00000000000E+00 0.  1.
     999901    1    3    3    0    0  0.66149626824E-01  0.10169871814E+00  0.12042529482E-01  0.88840498925E+00  0.88000000000E+00 0.  1.
        -11    1    4    4    0    0 -0.49804891403E-01 -0.61984369595E-01 -0.80250323097E-02  0.79920282447E-01  0.51100000000E-03 0.  1.
         11    1    4    4    0    0 -0.34556742003E-01 -0.33252478715E-01 -0.18553444494E-01  0.51423605301E-01  0.51100000000E-03 0. -1.
</event>
<event>
 8    1  0.1119901E+005  0.1043930E+01  0.7957747E-01            NaN
         13   -1    0    0    0    0  0.00000000000E+00  0.00000000000E+00  0.74505805969E-08  0.10566000000E+00  0.10566000000E+00 0.  1.
     999900   -1    0    0    0    0 -0.00000000000E+00 -0.00000000000E+00 -0.74505805969E-08  0.93827000000E+00  0.93827000000E+00 0. -1.
     999902    2    1    2    0    0  0.54086873512E-02  0.87782379177E-02  0.17577666099E-01  0.10235514401E+01  0.10233485549E+01 0.  0.
     999903    2    3    3    0    0  0.98346980989E-01  0.87303553174E-01  0.24415731288E-01  0.13515371905E+00  0.19400019894E-01 0.  0.
         14    1    1    2    0    0 -0.54086873512E-02 -0.87782379177E-02 -0.17577666099E-01  0.20378559941E-01  0.00000000000E+00 0. -1.
     999901    1    3    3    0    0 -0.92938293638E-01 -0.78525315256E-01 -0.68380651896E-02  0.88839772101E+00  0.88000000000E+00 0. -1.
        -11    1    4    4    0    0  0.22640767332E-01  0.17133704675E-01 -0.24092121981E-02  0.28499712379E-01  0.51100000000E-03 0.  1.
         11    1    4    4    0    0  0.75706213657E-01  0.70169848499E-01  0.26824943486E-01  0.10665400667E+00  0.51100000000E-03 0. -1.
</event>
<event>
 8    1  0.1119901E+005  0.1043930E+01  0.7957747E-01            NaN
         13   -1    0    0    0    0  0.00000000000E+00  0.00000000000E+00  0.74505805969E-08  0.10566000000E+00  0.10566000000E+00 0.  1.
     999900   -1    0    0    0    0 -0.00000000000E+00 -0.00000000000E+00 -0.74505805969E-08  0.93827000000E+00  0.93827000000E+00 0.  1.
     999902    2    1    2    0    0 -0.92428784517E-02 -0.20860217580E-01  0.62649539333E-02  0.10202692915E+01  0.10199949010E+01 0.  0.
     999903    2    3    3    0    0 -0.10608515456E+00  0.60370085675E-01  0.41294866759E-01  0.13054805233E+00  0.20950434027E-01 0.  0.
         14    1    1    2    0    0  0.92428784517E-02  0.20860217580E-01 -0.62649539333E-02  0.23660708513E-01  0.00000000000E+00 0.  1.
     999901    1    3    3    0    0  0.96842276104E-01 -0.81230303255E-01 -0.35029912826E-01  0.88972123915E+00  0.88000000000E+00 0.  1.
        -11    1    4    4    0    0 -0.40567987973E-01  0.12402135712E-01  0.10510614652E-01  0.43707079058E-01  0.51100000000E-03 0.  1.
         11    1    4    4    0    0 -0.65517166583E-01  0.47967949963E-01  0.30784252107E-01  0.86840973276E-01  0.51100000000E-03 0. -1.
</event>
<event>
 8    1  0.1119901E+005  0.1043930E+01  0.7957747E-01            NaN
         13   -1    0    0    0    0  0.00000000000E+00  0.00000000000E+00  0.74505805969E-08  0.10566000000E+00  0.10566000000E+00 0. -1.
     999900   -1    0    0    0    0 -0.00000000000E+00 -0.00000000000E+00 -0.74505805969E-08  0.93827000000E+00  0.93827000000E+00 0. -1.
     999902    2    1    2    0    0 -0.92780846787E-02  0.37600257086E-02  0.21505666056E-01  0.10202083997E+01  0.10199325784E+01 0.  0.
     999903    2    3    3    0    0  0.10057434093E+00  0.22040510119E-01  0.75141171134E-01  0.13156983485E+00  0.32610484542E-01 0.  0.
         14    1    1    2    0    0  0.92780846787E-02 -0.37600257086E-02 -0.21505666056E-01  0.23721600307E-01  0.00000000000E+00 0.  1.
     999901    1    3    3    0    0 -0.10985242561E+00 -0.18280484410E-01 -0.53635505078E-01  0.88863856484E+00  0.88000000000E+00 0. -1.
        -11    1    4    4    0    0  0.22721771142E-01 -0.70173877871E-02  0.92689560095E-02  0.25528362300E-01  0.51100000000E-03 0. -1.
         11    1    4    4    0    0  0.77852569792E-01  0.29057897906E-01  0.65872215125E-01  0.10604147255E+00  0.51100000000E-03 0.  1.
</event>
<event>
 7    1  0.1119901E+005  0.1043930E+01  0.7957747E-01            NaN
         13   -1    0    0    0    0  0.00000000000E+00  0.00000000000E+00  0.74505805969E-08  0.10566000000E+00  0.10566000000E+00 0. -1.
     999900   -1    0    0    0    0 -0.00000000000E+00 -0.00000000000E+00 -0.74505805969E-08  0.93827000000E+00  0.93827000000E+00 0.  1.
     999903    2    1    2    0    0 -0.56547271449E-01 -0.81730569407E-01 -0.63563614980E-01  0.11921713386E+00  0.17173001266E-01 0.  0.
         14    1    1    2    0    0  0.20625480996E-01  0.34234859184E-01 -0.37020349454E-02  0.40139022316E-01  0.00000000000E+00 0.  1.
     999901    1    1    2    0    0  0.35921790453E-01  0.47495710222E-01  0.67265649926E-01  0.88457384382E+00  0.88000000000E+00 0. -1.
        -11    1    3    3    0    0 -0.30373636988E-01 -0.30826987412E-01 -0.22568036562E-01  0.48810228150E-01  0.51100000000E-03 0. -1.
         11    1    3    3    0    0 -0.26173634461E-01 -0.50903581995E-01 -0.40995578418E-01  0.70406905710E-01  0.51100000000E-03 0.  1.
</event>
<event>
 8    1  0.1119901E+005  0.1043930E+01  0.7957747E-01            NaN
         13   -1    0    0    0    0  0.00000000000E+00  0.00000000000E+00  0.74505805969E-08  0.10566000000E+00  0.10566000000E+00 0.  1.
     999900   -1    0    0    0    0 -0.00000000000E+00 -0.00000000000E+00 -0.74505805969E-08  0.93827000000E+00  0.93827000000E+00 0. -1.
     999902    2    1    2    0    0 -0.21012235945E-01  0.45783183457E-02 -0.13143898892E-02  0.10223846367E+01  0.10221575919E+01 0.  0.
     999903    2    3    3    0    0 -0.11366755541E+00  0.26192209175E-01 -0.61935641462E-01  0.13518279686E+00  0.28844755325E-01 0.  0.
         14    1    1    2    0    0  0.21012235945E-01 -0.45783183457E-02  0.13143898892E-02  0.21545363285E-01  0.00000000000E+00 0.  1.
     999901    1    3    3    0    0  0.92655319461E-01 -0.21613890829E-01  0.60621251573E-01  0.88720183986E+00  0.88000000000E+00 0.  1.
        -11    1    4    4    0    0 -0.90211336905E-01  0.25113999086E-01 -0.36347608753E-01  0.10045002757E+00  0.51100000000E-03 0. -1.
         11    1    4    4    0    0 -0.23456218502E-01  0.10782100885E-02 -0.25588032709E-01  0.34732769287E-01  0.51100000000E-03 0.  1.
</event>
<event>
 8    1  0.1119901E+005  0.1043930E+01  0.7957747E-01            NaN
         13   -1    0    0    0    0  0.00000000000E+00  0.00000000000E+00  0.74505805969E-08  0.10566000000E+00  0.10566000000E+00 0. -1.
     999900   -1    0    0    0    0 -0.00000000000E+00 -0.00000000000E+00 -0.74505805969E-08  0.93827000000E+00  0.93827000000E+00 0.  1.
     999902    2    1    2    0    0 -0.13306328845E-01 -0.82035798864E-02 -0.17082146735E-01  0.10207749391E+01  0.10205122828E+01 0.  0.
     999903    2    3    3    0    0 -0.60703845659E-01 -0.89902196142E-01 -0.75759424684E-01  0.13377763836E+00  0.19738397778E-01 0.  0.
         14    1    1    2    0    0  0.13306328845E-01  0.82035798864E-02  0.17082146735E-01  0.23155060945E-01  0.00000000000E+00 0.  1.
     999901    1    3    3    0    0  0.47397516814E-01  0.81698616256E-01  0.58677277949E-01  0.88699730070E+00  0.88000000000E+00 0. -1.
        -11    1    4    4    0    0 -0.51451231229E-01 -0.60594399528E-01 -0.53285524373E-01  0.95700149832E-01  0.51100000000E-03 0. -1.
         11    1    4    4    0    0 -0.92526144304E-02 -0.29307796615E-01 -0.22473900311E-01  0.38077488525E-01  0.51100000000E-03 0.  1.
</event>
<event>
 8    1  0.1140658E+005  0.1043930E+01  0.7957747E-01            NaN
         13   -1    0    0    0    0  0.00000000000E+00  0.00000000000E+00  0.74505805969E-08  0.10566000000E+00  0.10566000000E+00 0. -1.
     999900   -1    0    0    0    0 -0.00000000000E+00 -0.00000000000E+00 -0.74505805969E-08  0.93827000000E+00  0.93827000000E+00 0.  1.
     999902    2    1    2    0    0 -0.35211043442E-02  0.18283364404E-01  0.23882226558E-01  0.10136473262E+01  0.10131948783E+01 0.  0.
     999903    2    3    3    0    0 -0.37612583909E-01  0.11856100737E+00 -0.12037053754E-01  0.12656895907E+00  0.20084615997E-01 0.  0.
         14    1    1    2    0    0  0.35211043442E-02 -0.18283364404E-01 -0.23882226558E-01  0.30282673844E-01  0.00000000000E+00 0. -1.
     999901    1    3    3    0    0  0.34091479564E-01 -0.10027764297E+00  0.35919280312E-01  0.88707836709E+00  0.88000000000E+00 0.  1.
        -11    1    4    4    0    0 -0.27579367212E-01  0.60932755161E-01 -0.19957114579E-03  0.66885896099E-01  0.51100000000E-03 0. -1.
         11    1    4    4    0    0 -0.10033216697E-01  0.57628252208E-01 -0.11837482608E-01  0.59683062969E-01  0.51100000000E-03 0.  1.
</event>
<event>
 8    1  0.1119901E+005  0.1043930E+01  0.7957747E-01            NaN
         13   -1    0    0    0    0  0.00000000000E+00  0.00000000000E+00  0.74505805969E-08  0.10566000000E+00  0.10566000000E+00 0.  1.
     999900   -1    0    0    0    0 -0.00000000000E+00 -0.00000000000E+00 -0.74505805969E-08  0.93827000000E+00  0.93827000000E+00 0. -1.
     999902    2    1    2    0    0 -0.10300523677E-01  0.14204260933E-01  0.16292253820E-01  0.10199863296E+01  0.10197052580E+01 0.  0.
     999903    2    3    3    0    0  0.68569224082E-01 -0.94963914162E-01  0.50657489118E-01  0.12907718893E+00  0.19361198694E-01 0.  0.
         14    1    1    2    0    0  0.10300523677E-01 -0.14204260933E-01 -0.16292253820E-01  0.23943670379E-01  0.00000000000E+00 0. -1.
     999901    1    3    3    0    0 -0.78869747759E-01  0.10916817510E+00 -0.34365235298E-01  0.89090914069E+00  0.88000000000E+00 0.  1.
        -11    1    4    4    0    0  0.32931897400E-01 -0.30012600901E-01  0.16818144266E-01  0.47627483419E-01  0.51100000000E-03 0.  1.
         11    1    4    4    0    0  0.35637326682E-01 -0.64951313261E-01  0.33839344852E-01  0.81449705514E-01  0.51100000000E-03 0. -1.
</event>
<event>
 8    1  0.1119901E+005  0.1043930E+01  0.7957747E-01            NaN
         13   -1    0    0    0    0  0.00000000000E+00  0.00000000000E+00  0.74505805969E-08  0.10566000000E+00  0.10566000000E+00 0.  1.
     999900   -1    0    0    0    0 -0.00000000000E+00 -0.00000000000E+00 -0.74505805969E-08  0.93827000000E+00  0.93827000000E+00 0.  1.
     999902    2    1    2    0    0  0.25654882803E-01 -0.88347805267E-02 -0.51692147191E-02  0.10163085022E+01  0.10159330807E+01 0.  0.
     999903    2    3    3    0    0  0.41431501761E-01  0.10127727750E+00 -0.62362091983E-01  0.12746397575E+00  0.19605568666E-01 0.  0.
         14    1    1    2    0    0 -0.25654882803E-01  0.88347805267E-02  0.51692147191E-02  0.27621497776E-01  0.00000000000E+00 0.  1.
     999901    1    3    3    0    0 -0.15776618959E-01 -0.11011205802E+00  0.57192877264E-01  0.88884452647E+00  0.88000000000E+00 0. -1.
        -11    1    4    4    0    0  0.20501791301E-01  0.51062251059E-01 -0.42569719155E-01  0.69570964056E-01  0.51100000000E-03 0. -1.
         11    1    4    4    0    0  0.20929710460E-01  0.50215026438E-01 -0.19792372829E-01  0.57893011697E-01  0.51100000000E-03 0.  1.
</event>
<event>
 8    1  0.1192700E+005  0.1043930E+01  0.7957747E-01            NaN
         13   -1    0    0    0    0  0.00000000000E+00  0.00000000000E+00  0.74505805969E-08  0.10566000000E+00  0.10566000000E+00 0. -1.
     999900   -1    0    0    0    0 -0.00000000000E+00 -0.00000000000E+00 -0.74505805969E-08  0.93827000000E+00  0.93827000000E+00 0. -1.
     999902    2    1    2    0    0  0.60399508726E-02  0.17402868156E-01  0.14392497623E-01  0.10205529853E+01  0.10202852107E+01 0.  0.
     999903    2    3    3    0    0 -0.59362630699E-01 -0.10577513729E+00 -0.36151108786E-01  0.12813773735E+00  0.20001886763E-01 0.  0.
         14    1    1    2    0    0 -0.60399508726E-02 -0.17402868156E-01 -0.14392497623E-01  0.23377014660E-01  0.00000000000E+00 0.  1.
     999901    1    3    3    0    0  0.65402581572E-01  0.12317800544E+00  0.50543606409E-01  0.89241524799E+00  0.88000000000E+00 0.  1.
        -11    1    4    4    0    0 -0.49766254497E-01 -0.81778033301E-01 -0.20445540998E-01  0.97890796732E-01  0.51100000000E-03 0.  1.
         11    1    4    4    0    0 -0.95963762020E-02 -0.23997103988E-01 -0.15705567788E-01  0.30246940615E-01  0.51100000000E-03 0. -1.
</event>
<event>
 8    1  0.1119901E+005  0.1043930E+01  0.7957747E-01            NaN
         13   -1    0    0    0    0  0.00000000000E+00  0.00000000000E+00  0.74505805969E-08  0.10566000000E+00  0.10566000000E+00 0.  1.
     999900   -1    0    0    0    0 -0.00000000000E+00 -0.00000000000E+00 -0.74505805969E-08  0.93827000000E+00  0.93827000000E+00 0. -1.
     999902    2    1    2    0    0  0.58261470983E-02 -0.17403641878E-01  0.15211251144E-01  0.10200927833E+01  0.10198142348E+01 0.  0.
     999903    2    3    3    0    0  0.10704895188E+00 -0.21780211791E-01 -0.68297889350E-01  0.13035181695E+00  0.19827727275E-01 0.  0.
         14    1    1    2    0    0 -0.58261470983E-02  0.17403641878E-01 -0.15211251144E-01  0.23837216742E-01  0.00000000000E+00 0. -1.
     999901    1    3    3    0    0 -0.10122280478E+00  0.43765699129E-02  0.83509140494E-01  0.88974096630E+00  0.88000000000E+00 0.  1.
        -11    1    4    4    0    0  0.70064078534E-01 -0.19510362898E-01 -0.35809995172E-01  0.81069391490E-01  0.51100000000E-03 0.  1.
         11    1    4    4    0    0  0.36984873348E-01 -0.22698488928E-02 -0.32487894179E-01  0.49282425465E-01  0.51100000000E-03 0. -1.
</event>
<event>
 8    1  0.1119901E+005  0.1043930E+01  0.7957747E-01            NaN
         13   -1    0    0    0    0  0.00000000000E+00  0.00000000000E+00  0.74505805969E-08  0.10566000000E+00  0.10566000000E+00 0.  1.
     999900   -1    0    0    0    0 -0.00000000000E+00 -0.00000000000E+00 -0.74505805969E-08  0.93827000000E+00  0.93827000000E+00 0.  1.
     999902    2    1    2    0    0  0.18372264292E-01 -0.10753100935E-01 -0.93883426373E-02  0.10206639249E+01  0.10203987148E+01 0.  0.
     999903    2    3    3    0    0 -0.48856921958E-02  0.22658005402E-01 -0.12805153171E+00  0.13176675026E+00  0.20688801453E-01 0.  0.
         14    1    1    2    0    0 -0.18372264292E-01  0.10753100935E-01  0.93883426373E-02  0.23266075140E-01  0.00000000000E+00 0. -1.
     999901    1    3    3    0    0  0.23257956488E-01 -0.33411106337E-01  0.11866318907E+00  0.88889717460E+00  0.88000000000E+00 0. -1.
        -11    1    4    4    0    0 -0.88525089290E-02  0.24417376812E-01 -0.11766603346E+00  0.12049950936E+00  0.51100000000E-03 0.  1.
         11    1    4    4    0    0  0.39668167331E-02 -0.17593714105E-02 -0.10385498248E-01  0.11267240905E-01  0.51100000000E-03 0. -1.
</event>
<event>
 8    1  0.1119901E+005  0.1043930E+01  0.7957747E-01            NaN
         13   -1    0    0    0    0  0.00000000000E+00  0.00000000000E+00  0.74505805969E-08  0.10566000000E+00  0.10566000000E+00 0. -1.
     999900   -1    0    0    0    0 -0.00000000000E+00 -0.00000000000E+00 -0.74505805969E-08  0.93827000000E+00  0.93827000000E+00 0. -1.
     999902    2    1    2    0    0  0.10194331036E-02  0.69065433878E-02 -0.22341254644E-01  0.10205233504E+01  0.10202548885E+01 0.  0.
     999903    2    3    3    0    0  0.30664467100E-01 -0.78669800123E-01 -0.99660430790E-01  0.13250285876E+00  0.22261157215E-01 0.  0.
         14    1    1    2    0    0 -0.10194331036E-02 -0.69065433878E-02  0.22341254644E-01  0.23406649579E-01  0.00000000000E+00 0. -1.
     999901    1    3    3    0    0 -0.29645033997E-01  0.85576343511E-01  0.77319176146E-01  0.88802049166E+00  0.88000000000E+00 0.  1.
        -11    1    4    4    0    0  0.61664496111E-02 -0.22709636781E-02 -0.11837667949E-01  0.13548943881E-01  0.51100000000E-03 0. -1.
         11    1    4    4    0    0  0.24498017489E-01 -0.76398836445E-01 -0.87822762841E-01  0.11895391488E+00  0.51100000000E-03 0.  1.
</event>
<event>
 8    1  0.1119901E+005  0.1043930E+01  0.7957747E-01            NaN
         13   -1    0    0    0    0  0.00000000000E+00  0.00000000000E+00  0.74505805969E-08  0.10566000000E+00  0.10566000000E+00 0. -1.
     999900   -1    0    0    0    0 -0.00000000000E+00 -0.00000000000E+00 -0.74505805969E-08  0.93827000000E+00  0.93827000000E+00 0. -1.
     999902    2    1    2    0    0  0.18357930870E-01 -0.50487359272E-02 -0.64107631621E-02  0.10238401706E+01  0.10236430500E+01 0.  0.
     999903    2    3    3    0    0  0.10449424819E+00  0.72900048087E-01 -0.41190806245E-01  0.13552427552E+00  0.20896933244E-01 0.  0.
         14    1    1    2    0    0 -0.18357930870E-01  0.50487359272E-02  0.64107631621E-02  0.20089829382E-01  0.00000000000E+00 0. -1.
     999901    1    3    3    0    0 -0.86136317322E-01 -0.77948784014E-01  0.34780043083E-01  0.88831589510E+00  0.88000000000E+00 0.  1.
        -11    1    4    4    0    0  0.31339591327E-01  0.27860500406E-01 -0.22554832858E-01  0.47616794030E-01  0.51100000000E-03 0.  1.
         11    1    4    4    0    0  0.73154656865E-01  0.45039547681E-01 -0.18635973386E-01  0.87907481487E-01  0.51100000000E-03 0. -1.
</event>
<event>
 8    1  0.1119901E+005  0.1043930E+01  0.7957747E-01            NaN
         13   -1    0    0    0    0  0.00000000000E+00  0.00000000000E+00  0.74505805969E-08  0.10566000000E+00  0.10566000000E+00 0.  1.
     999900   -1    0    0    0    0 -0.00000000000E+00 -0.00000000000E+00 -0.74505805969E-08  0.93827000000E+00  0.93827000000E+00 0. -1.
     999902    2    1    2    0    0 -0.18396960176E-01 -0.61204413148E-03  0.10401159959E-01  0.10227874630E+01  0.10225689158E+01 0.  0.
     999903    2    3    3    0    0  0.28807774333E-01  0.91617334728E-01 -0.87931782120E-01  0.13126970504E+00  0.16616656393E-01 0.  0.
         14    1    1    2    0    0  0.18396960176E-01  0.61204413148E-03 -0.10401159959E-01  0.21142536986E-01  0.00000000000E+00 0.  1.
     999901    1    3    3    0    0 -0.47204734509E-01 -0.92229378860E-01  0.98332942078E-01  0.89151775797E+00  0.88000000000E+00 0. -1.
        -11    1    4    4    0    0  0.74193030356E-02  0.50943092806E-01 -0.44952714729E-01  0.68346561323E-01  0.51100000000E-03 0. -1.
         11    1    4    4    0    0  0.21388471298E-01  0.40674241922E-01 -0.42979067391E-01  0.62923143717E-01  0.51100000000E-03 0.  1.
</event>
<event>
 8    1  0.1119901E+005  0.1043930E+01  0.7957747E-01            NaN
         13   -1    0    0    0    0  0.00000000000E+00  0.00000000000E+00  0.74505805969E-08  0.10566000000E+00  0.10566000000E+00 0.  1.
     999900   -1    0    0    0    0 -0.00000000000E+00 -0.00000000000E+00 -0.74505805969E-08  0.93827000000E+00  0.93827000000E+00 0.  1.
     999902    2    1    2    0    0  0.17024047484E-01 -0.55881611713E-02  0.74307833994E-02  0.10245325187E+01  0.10243488759E+01 0.  0.
     999903    2    3    3    0    0 -0.91101971367E-01  0.50364959389E-01 -0.78591302206E-01  0.13199580415E+00  0.20250955747E-01 0.  0.
         14    1    1    2    0    0 -0.17024047484E-01  0.55881611713E-02 -0.74307833994E-02  0.19397481278E-01  0.00000000000E+00 0. -1.
     999901    1    3    3    0    0  0.10812601885E+00 -0.55953120560E-01  0.86022085605E-01  0.89253671458E+00  0.88000000000E+00 0. -1.
        -11    1    4    4    0    0 -0.23351087776E-01  0.88448261982E-02 -0.29241684390E-01  0.38455708000E-01  0.51100000000E-03 0. -1.
         11    1    4    4    0    0 -0.67750883591E-01  0.41520133191E-01 -0.49349617815E-01  0.93540096146E-01  0.51100000000E-03 0.  1.
</event>
<event>
 8    1  0.1119901E+005  0.1043930E+01  0.7957747E-01            NaN
         13   -1    0    0    0    0  0.00000000000E+00  0.00000000000E+00  0.74505805969E-08  0.10566000000E+00  0.10566000000E+00 0. -1.
     999900   -1    0    0    0    0 -0.00000000000E+00 -0.00000000000E+00 -0.74505805969E-08  0.93827000000E+00  0.93827000000E+00 0.  1.
     999902    2    1    2    0    0  0.11280724074E-01  0.11592654904E-01  0.17570622212E-01  0.10200475556E+01  0.10197679367E+01 0.  0.
     999903    2    3    3    0    0 -0.11818722197E+00 -0.46004970638E-01 -0.49402641794E-02  0.12842758305E+00  0.19610229957E-01 0.  0.
         14    1    1    2    0    0 -0.11280724074E-01 -0.11592654904E-01 -0.17570622212E-01  0.23882444353E-01  0.00000000000E+00 0.  1.
     999901    1    3    3    0    0  0.12946794604E+00  0.57597625542E-01  0.22510886392E-01  0.89161997259E+00  0.88000000000E+00 0.  1.
        -11    1    4    4    0    0 -0.64448839720E-01 -0.16920899347E-01  0.35756050828E-02  0.66730921233E-01  0.51100000000E-03 0. -1.
         11    1    4    4    0    0 -0.53738382249E-01 -0.29084071291E-01 -0.85158692622E-02  0.61696661821E-01  0.51100000000E-03 0.  1.
</event>
<event>
 8    1  0.1119901E+005  0.1043930E+01  0.7957747E-01            NaN
         13   -1    0    0    0    0  0.00000000000E+00  0.00000000000E+00  0.74505805969E-08  0.10566000000E+00  0.10566000000E+00 0. -1.
     999900   -1    0    0    0    0 -0.00000000000E+00 -0.00000000000E+00 -0.74505805969E-08  0.93827000000E+00  0.93827000000E+00 0. -1.
     999902    2    1    2    0    0 -0.76650246203E-02 -0.51066267834E-02  0.90578017553E-02  0.10310120276E+01  0.10309310971E+01 0.  0.
     999903    2    3    3    0    0 -0.60910582593E-01  0.10662926899E+00  0.65367673587E-01  0.14056786787E+00  0.20161662900E-01 0.  0.
         14    1    1    2    0    0  0.76650246203E-02  0.51066267834E-02 -0.90578017553E-02  0.12917972448E-01  0.00000000000E+00 0.  1.
     999901    1    3    3    0    0  0.53245557973E-01 -0.11173589577E+00 -0.56309871831E-01  0.89044415968E+00  0.88000000000E+00 0. -1.
        -11    1    4    4    0    0 -0.45709350510E-01  0.64611882127E-01  0.35003837598E-01  0.86542300661E-01  0.51100000000E-03 0. -1.
         11    1    4    4    0    0 -0.15201232083E-01  0.42017386858E-01  0.30363835988E-01  0.54025567208E-01  0.51100000000E-03 0.  1.
</event>
<event>
 8    1  0.1119901E+005  0.1043930E+01  0.7957747E-01            NaN
         13   -1    0    0    0    0  0.00000000000E+00  0.00000000000E+00  0.74505805969E-08  0.10566000000E+00  0.10566000000E+00 0. -1.
     999900   -1    0    0    0    0 -0.00000000000E+00 -0.00000000000E+00 -0.74505805969E-08  0.93827000000E+00  0.93827000000E+00 0. -1.
     999902    2    1    2    0    0 -0.17454771599E-01 -0.61930428430E-02 -0.16765732370E-01  0.10189477540E+01  0.10186414545E+01 0.  0.
     999903    2    3    3    0    0  0.88560429989E-01 -0.37485171294E-01 -0.84896065408E-01  0.12941969796E+00  0.17147258450E-01 0.  0.
         14    1    1    2    0    0  0.17454771599E-01  0.61930428430E-02  0.16765732370E-01  0.24982245959E-01  0.00000000000E+00 0. -1.
     999901    1    3    3    0    0 -0.10601520159E+00  0.31292128451E-01  0.68130333038E-01  0.88952805608E+00  0.88000000000E+00 0.  1.
        -11    1    4    4    0    0  0.32052456251E-01 -0.20616233941E-01 -0.40409674943E-01  0.55548105311E-01  0.51100000000E-03 0.  1.
         11    1    4    4    0    0  0.56507973738E-01 -0.16868937352E-01 -0.44486390465E-01  0.73871592652E-01  0.51100000000E-03 0. -1.
</event>
<event>
 7    1  0.1119901E+005  0.1043930E+01  0.7957747E-01            NaN
         13   -1    0    0    0    0  0.00000000000E+00  0.00000000000E+00  0.74505805969E-08  0.10566000000E+00  0.10566000000E+00 0. -1.
     999900   -1    0    0    0    0 -0.00000000000E+00 -0.00000000000E+00 -0.74505805969E-08  0.93827000000E+00  0.93827000000E+00 0.  1.
     999902    2    1    2    0    0  0.39793242794E-02  0.16547791755E-01  0.15465490177E-01  0.10209333520E+01  0.10206743180E+01 0.  0.
         14    1    1    2    0    0 -0.39793242794E-02 -0.16547791755E-01 -0.15465490177E-01  0.22996648019E-01  0.00000000000E+00 0.  1.
     999901    1    3    3    0    0  0.89479726857E-01 -0.57930321081E-02 -0.72722146753E-01  0.88754081110E+00  0.88000000000E+00 0.  1.
        -11    1    3    3    0    0 -0.24103348539E-01 -0.10930080012E-01  0.93509835785E-02  0.28073832563E-01  0.51100000000E-03 0. -1.
         11    1    3    3    0    0 -0.61397054038E-01  0.33270903875E-01  0.78836653351E-01  0.10531870832E+00  0.51100000000E-03 0.  1.
</event>
<event>
 8    1  0.1119901E+005  0.1043930E+01  0.7957747E-01            NaN
         13   -1    0    0    0    0  0.00000000000E+00  0.00000000000E+00  0.74505805969E-08  0.10566000000E+00  0.10566000000E+00 0.  1.
     999900   -1    0    0    0    0 -0.00000000000E+00 -0.00000000000E+00 -0.74505805969E-08  0.93827000000E+00  0.93827000000E+00 0. -1.
     999902    2    1    2    0    0 -0.35909957238E-02  0.23652239875E-01 -0.18092430960E-02  0.10199383960E+01  0.10196561845E+01 0.  0.
     999903    2    3    3    0    0  0.11579945212E+00  0.44231235095E-01 -0.37259642278E-01  0.13093091298E+00  0.19715673035E-01 0.  0.
         14    1    1    2    0    0  0.35909957238E-02 -0.23652239875E-01  0.18092430960E-02  0.23991603989E-01  0.00000000000E+00 0. -1.
     999901    1    3    3    0    0 -0.11939044784E+00 -0.20578995220E-01  0.35450399182E-01  0.88900748303E+00  0.88000000000E+00 0.  1.
        -11    1    4    4    0    0  0.24902254506E-01  0.16326998253E-01 -0.14671395445E-01  0.33199459585E-01  0.51100000000E-03 0.  1.
         11    1    4    4    0    0  0.90897197610E-01  0.27904236842E-01 -0.22588246833E-01  0.97731453397E-01  0.51100000000E-03 0. -1.
</event>
<event>
 8    1  0.1119901E+005  0.1043930E+01  0.7957747E-01            NaN
         13   -1    0    0    0    0  0.00000000000E+00  0.00000000000E+00  0.74505805969E-08  0.10566000000E+00  0.10566000000E+00 0.  1.
     999900   -1    0    0    0    0 -0.00000000000E+00 -0.00000000000E+00 -0.74505805969E-08  0.93827000000E+00  0.93827000000E+00 0. -1.
     999902    2    1    2    0    0 -0.20228909558E-01 -0.14693295502E-01 -0.22981191757E-02  0.10188225695E+01  0.10185131541E+01 0.  0.
     999903    2    3    3    0    0  0.88042695152E-01 -0.76338391554E-01  0.50336596650E-01  0.12848933325E+00  0.19916566041E-01 0.  0.
         14    1    1    2    0    0  0.20228909558E-01  0.14693295502E-01  0.22981191757E-02  0.25107430501E-01  0.00000000000E+00 0.  1.
     999901    1    3    3    0    0 -0.10827160471E+00  0.61645096051E-01 -0.52634715826E-01  0.89033323625E+00  0.88000000000E+00 0. -1.
        -11    1    4    4    0    0  0.30888134711E-01 -0.21319319405E-01  0.25425369054E-01  0.45335424982E-01  0.51100000000E-03 0.  1.
         11    1    4    4    0    0  0.57154560441E-01 -0.55019072149E-01  0.24911227596E-01  0.83153908271E-01  0.51100000000E-03 0. -1.
</event>
<event>
 8    1  0.1119901E+005  0.1043930E+01  0.7957747E-01            NaN
         13   -1    0    0    0    0  0.00000000000E+00  0.00000000000E+00  0.74505805969E-08  0.10566000000E+00  0.10566000000E+00 0. -1.
     999900   -1    0    0    0    0 -0.00000000000E+00 -0.00000000000E+00 -0.74505805969E-08  0.93827000000E+00  0.93827000000E+00 0.  1.
     999902    2    1    2    0    0 -0.15838341451E-01  0.38196732381E-03  0.16950547713E-01  0.10207282753E+01  0.10204645472E+01 0.  0.
     999903    2    3    3    0    0  0.14315951759E-01  0.10708047930E+00 -0.68638693599E-01  0.12965062885E+00  0.20660101177E-01 0.  0.
         14    1    1    2    0    0  0.15838341451E-01 -0.38196732381E-03 -0.16950547713E-01  0.23201724650E-01  0.00000000000E+00 0. -1.
     999901    1    3    3    0    0 -0.30154293210E-01 -0.10669851198E+00  0.85589241312E-01  0.89107764650E+00  0.88000000000E+00 0. -1.
        -11    1    4    4    0    0  0.14559364421E-02  0.21728698478E-01 -0.24221886104E-01  0.32576325390E-01  0.51100000000E-03 0.  1.
         11    1    4    4    0    0  0.12860015316E-01  0.85351780825E-01 -0.44416807495E-01  0.97074303464E-01  0.51100000000E-03 0. -1.
</event>
<event>
 8    1  0.1508837E+005  0.1043930E+01  0.7957747E-01            NaN
         13   -1    0    0    0    0  0.00000000000E+00  0.00000000000E+00  0.74505805969E-08  0.10566000000E+00  0.10566000000E+00 0. -1.
     999900   -1    0    0    0    0 -0.00000000000E+00 -0.00000000000E+00 -0.74505805969E-08  0.93827000000E+00  0.93827000000E+00 0. -1.
     999902    2    1    2    0    0 -0.97455824205E-02  0.28038066351E-02 -0.21003747107E-01  0.10206062974E+01  0.10203397568E+01 0.  0.
     999903    2    3    3    0    0 -0.71214794866E-01  0.54268280244E-01 -0.97241411768E-01  0.13367944723E+00  0.19942647767E-01 0.  0.
         14    1    1    2    0    0  0.97455824205E-02 -0.28038066351E-02  0.21003747107E-01  0.23323702555E-01  0.00000000000E+00 0. -1.
     999901    1    3    3    0    0  0.61469212446E-01 -0.51464473609E-01  0.76237664661E-01  0.88692685022E+00  0.88000000000E+00 0.  1.
        -11    1    4    4    0    0 -0.35690607373E-01  0.38120430546E-01 -0.48814234168E-01  0.71484804386E-01  0.51100000000E-03 0.  1.
         11    1    4    4    0    0 -0.35524187493E-01  0.16147849698E-01 -0.48427177600E-01  0.62194642842E-01  0.51100000000E-03 0. -1.
</event>
<event>
 8    1  0.1119901E+005  0.1043930E+01  0.7957747E-01            NaN
         13   -1    0    0    0    0  0.00000000000E+00  0.00000000000E+00  0.74505805969E-08  0.10566000000E+00  0.10566000000E+00 0. -1.
     999900   -1    0    0    0    0 -0.00000000000E+00 -0.00000000000E+00 -0.74505805969E-08  0.93827000000E+00  0.93827000000E+00 0. -1.
     999902    2    1    2    0    0 -0.14371745194E-01  0.17072033742E-01 -0.46553570388E-02  0.10211336462E+01  0.10208791553E+01 0.  0.
     999903    2    3    3    0    0  0.10672752913E+00  0.35905046591E-01 -0.63114329835E-01  0.13071960315E+00  0.20597528337E-01 0.  0.
         14    1    1    2    0    0  0.14371745194E-01 -0.17072033742E-01  0.46553570388E-02  0.22796353769E-01  0.00000000000E+00 0. -1.
     999901    1    3    3    0    0 -0.12109927432E+00 -0.18833012849E-01  0.58458972796E-01  0.89041404308E+00  0.88000000000E+00 0.  1.
        -11    1    4    4    0    0  0.10071334068E+00  0.38018767827E-01 -0.61996640753E-01  0.12422740552E+00  0.51100000000E-03 0. -1.
         11    1    4    4    0    0  0.60141884481E-02 -0.21137212360E-02 -0.11176890818E-02  0.64921976277E-02  0.51100000000E-03 0.  1.
</event>
<event>
 8    1  0.1119901E+005  0.1043930E+01  0.7957747E-01            NaN
         13   -1    0    0    0    0  0.00000000000E+00  0.00000000000E+00  0.74505805969E-08  0.10566000000E+00  0.10566000000E+00 0.  1.
     999900   -1    0    0    0    0 -0.00000000000E+00 -0.00000000000E+00 -0.74505805969E-08  0.93827000000E+00  0.93827000000E+00 0.  1.
     999902    2    1    2    0    0  0.18205902198E-01 -0.18644355658E-02 -0.13848233640E-01  0.10209799549E+01  0.10207219816E+01 0.  0.
     999903    2    3    3    0    0  0.52856017901E-01 -0.40173758336E-01 -0.11424100203E+00  0.13376693501E+00  0.20854181100E-01 0.  0.
         14    1    1    2    0    0 -0.18205902198E-01  0.18644355658E-02  0.13848233640E-01  0.22950045093E-01  0.00000000000E+00 0. -1.
     999901    1    3    3    0    0 -0.34650115703E-01  0.38309322770E-01  0.10039276839E+00  0.88721301990E+00  0.88000000000E+00 0. -1.
        -11    1    4    4    0    0  0.46058779732E-01 -0.41974005418E-01 -0.10557751215E+00  0.12259731039E+00  0.51100000000E-03 0.  1.
         11    1    4    4    0    0  0.67972381688E-02  0.18002470823E-02 -0.86634898840E-02  0.11169624624E-01  0.51100000000E-03 0. -1.
</event>
<event>
 8    1  0.1119901E+005  0.1043930E+01  0.7957747E-01            NaN
         13   -1    0    0    0    0  0.00000000000E+00  0.00000000000E+00  0.74505805969E-08  0.10566000000E+00  0.10566000000E+00 0.  1.
     999900   -1    0    0    0    0 -0.00000000000E+00 -0.00000000000E+00 -0.74505805969E-08  0.93827000000E+00  0.93827000000E+00 0. -1.
     999902    2    1    2    0    0  0.81374786127E-02  0.13676065008E-01  0.19065409175E-01  0.10190956863E+01  0.10187930480E+01 0.  0.
     999903    2    3    3    0    0  0.58322567768E-01  0.12695356276E-01  0.11642657833E+00  0.13230444688E+00  0.19662770418E-01 0.  0.
         14    1    1    2    0    0 -0.81374786127E-02 -0.13676065008E-01 -0.19065409175E-01  0.24834313747E-01  0.00000000000E+00 0.  1.
     999901    1    3    3    0    0 -0.50185089156E-01  0.98070873254E-03 -0.97361169158E-01  0.88679123937E+00  0.88000000000E+00 0. -1.
        -11    1    4    4    0    0  0.43797060427E-01  0.17985320108E-01  0.89419415967E-01  0.10118175386E+00  0.51100000000E-03 0. -1.
         11    1    4    4    0    0  0.14525507342E-01 -0.52899638323E-02  0.27007162366E-01  0.31122693022E-01  0.51100000000E-03 0.  1.
</event>
<event>
 8    1  0.1119901E+005  0.1043930E+01  0.7957747E-01            NaN
         13   -1    0    0    0    0  0.00000000000E+00  0.00000000000E+00  0.74505805969E-08  0.10566000000E+00  0.10566000000E+00 0.  1.
     999900   -1    0    0    0    0 -0.00000000000E+00 -0.00000000000E+00 -0.74505805969E-08  0.93827000000E+00  0.93827000000E+00 0. -1.
     999902    2    1    2    0    0 -0.53088635327E-02 -0.20907531446E-02  0.22967340134E-01  0.10202645401E+01  0.10199900381E+01 0.  0.
     999903    2    3    3    0    0 -0.11793579195E+00 -0.28063412972E-01  0.48969860582E-01  0.13232561473E+00  0.20386635295E-01 0.  0.
         14    1    1    2    0    0  0.53088635327E-02  0.20907531446E-02 -0.22967340134E-01  0.23665459927E-01  0.00000000000E+00 0. -1.
     999901    1    3    3    0    0  0.11262692842E+00  0.25972659827E-01 -0.26002520448E-01  0.88793892534E+00  0.88000000000E+00 0. -1.
        -11    1    4    4    0    0 -0.37176592259E-01  0.72358362925E-03  0.15407679781E-01  0.40252705530E-01  0.51100000000E-03 0.  1.
         11    1    4    4    0    0 -0.80759199691E-01 -0.28786996601E-01  0.33562180800E-01  0.92072909204E-01  0.51100000000E-03 0. -1.
</event>
<event>
 7    1  0.1119901E+005  0.1043930E+01  0.7957747E-01            NaN
         13   -1    0    0    0    0  0.00000000000E+00  0.00000000000E+00  0.74505805969E-08  0.10566000000E+00  0.10566000000E+00 0. -1.
     999900   -1    0    0    0    0 -0.00000000000E+00 -0.00000000000E+00 -0.74505805969E-08  0.93827000000E+00  0.93827000000E+00 0.  1.
     999903    2    1    2    0    0  0.47537528285E-01 -0.32466265086E-01  0.66395954878E-01  0.90039444531E-01  0.19616416168E-01 0.  0.
         14    1    1    2    0    0 -0.32399656472E-01 -0.46113796073E-01  0.31981464815E-01  0.64799953854E-01  0.00000000000E+00 0. -1.
     999901    1    1    2    0    0 -0.15137871813E-01  0.78580061159E-01 -0.98377419692E-01  0.88909060161E+00  0.88000000000E+00 0.  1.
        -11    1    3    3    0    0  0.69837927997E-02 -0.10549254431E-01  0.25254077112E-01  0.28250480751E-01  0.51100000000E-03 0.  1.
         11    1    3    3    0    0  0.40553735486E-01 -0.21917010655E-01  0.41141877766E-01  0.61788963780E-01  0.51100000000E-03 0. -1.
</event>
<event>
 8    1  0.1119901E+005  0.1043930E+01  0.7957747E-01            NaN
         13   -1    0    0    0    0  0.00000000000E+00  0.00000000000E+00  0.74505805969E-08  0.10566000000E+00  0.10566000000E+00 0. -1.
     999900   -1    0    0    0    0 -0.00000000000E+00 -0.00000000000E+00 -0.74505805969E-08  0.93827000000E+00  0.93827000000E+00 0. -1.
     999902    2    1    2    0    0 -0.19554725765E-01 -0.10231088585E-01 -0.95893744559E-02  0.10198671952E+01  0.10195832861E+01 0.  0.
     999903    2    3    3    0    0 -0.10573527502E+00  0.70621073871E-01  0.13142465521E-01  0.13167752186E+00  0.31606342809E-01 0.  0.
         14    1    1    2    0    0  0.19554725765E-01  0.10231088585E-01  0.95893744559E-02  0.24062804821E-01  0.00000000000E+00 0. -1.
     999901    1    3    3    0    0  0.86180549250E-01 -0.80852162456E-01 -0.22731839977E-01  0.88818967332E+00  0.88000000000E+00 0.  1.
        -11    1    4    4    0    0 -0.78027353231E-01  0.36516820953E-01  0.16065582301E-01  0.87636237484E-01  0.51100000000E-03 0. -1.
         11    1    4    4    0    0 -0.27707921785E-01  0.34104252918E-01 -0.29231167797E-02  0.44041284375E-01  0.51100000000E-03 0.  1.
</event>
<event>
 8    1  0.1119901E+005  0.1043930E+01  0.7957747E-01            NaN
         13   -1    0    0    0    0  0.00000000000E+00  0.00000000000E+00  0.74505805969E-08  0.10566000000E+00  0.10566000000E+00 0. -1.
     999900   -1    0    0    0    0 -0.00000000000E+00 -0.00000000000E+00 -0.74505805969E-08  0.93827000000E+00  0.93827000000E+00 0.  1.
     999902    2    1    2    0    0  0.67727622370E-02  0.21958672139E-01  0.10328523674E-02  0.10209273833E+01  0.10206682133E+01 0.  0.
     999903    2    3    3    0    0 -0.12096953158E+00  0.48012133266E-01  0.33850284858E-02  0.13131937458E+00  0.17161795108E-01 0.  0.
         14    1    1    2    0    0 -0.67727622370E-02 -0.21958672139E-01 -0.10328523674E-02  0.23002616687E-01  0.00000000000E+00 0. -1.
     999901    1    3    3    0    0  0.12774229382E+00 -0.26053461127E-01 -0.23521761184E-02  0.88960800873E+00  0.88000000000E+00 0.  1.
        -11    1    4    4    0    0 -0.54713728250E-01  0.26879228976E-01 -0.54923001794E-02  0.61208753390E-01  0.51100000000E-03 0.  1.
         11    1    4    4    0    0 -0.66255803330E-01  0.21132904290E-01  0.88773286652E-02  0.70110621192E-01  0.51100000000E-03 0. -1.
</event>
<event>
 8    1  0.1119901E+005  0.1043930E+01  0.7957747E-01            NaN
         13   -1    0    0    0    0  0.00000000000E+00  0.00000000000E+00  0.74505805969E-08  0.10566000000E+00  0.10566000000E+00 0.  1.
     999900   -1    0    0    0    0 -0.00000000000E+00 -0.00000000000E+00 -0.74505805969E-08  0.93827000000E+00  0.93827000000E+00 0.  1.
     999902    2    1    2    0    0 -0.13189346159E-01  0.16364368546E-01  0.96221849830E-02  0.10208142510E+01  0.10205524960E+01 0.  0.
     999903    2    3    3    0    0  0.11838435407E+00  0.18681486097E-01 -0.44320593908E-01  0.12939581329E+00  0.20374205284E-01 0.  0.
         14    1    1    2    0    0  0.13189346159E-01 -0.16364368546E-01 -0.96221849830E-02  0.23115749044E-01  0.00000000000E+00 0. -1.
     999901    1    3    3    0    0 -0.13157370023E+00 -0.23171175513E-02  0.53942778891E-01  0.89141843767E+00  0.88000000000E+00 0.  1.
        -11    1    4    4    0    0  0.26874302572E-01 -0.36402881211E-02 -0.65029938664E-02  0.27893187100E-01  0.51100000000E-03 0.  1.
         11    1    4    4    0    0  0.91510051494E-01  0.22321774218E-01 -0.37817600042E-01  0.10150262619E+00  0.51100000000E-03 0. -1.
</event>
<event>
 8    1  0.1119901E+005  0.1043930E+01  0.7957747E-01            NaN
         13   -1    0    0    0    0  0.00000000000E+00  0.00000000000E+00  0.74505805969E-08  0.10566000000E+00  0.10566000000E+00 0.  1.
     999900   -1    0    0    0    0 -0.00000000000E+00 -0.00000000000E+00 -0.74505805969E-08  0.93827000000E+00  0.93827000000E+00 0.  1.
     999902    2    1    2    0    0  0.13922662483E-01 -0.18752031959E-01  0.30493994055E-02  0.10203762727E+01  0.10201043867E+01 0.  0.
     999903    2    3    3    0    0  0.10422211574E+00 -0.80665347119E-01  0.94202709158E-02  0.13356860592E+00  0.19562294043E-01 0.  0.
         14    1    1    2    0    0 -0.13922662483E-01  0.18752031959E-01 -0.30493994055E-02  0.23553727305E-01  0.00000000000E+00 0. -1.
     999901    1    3    3    0    0 -0.90299453253E-01  0.61913315160E-01 -0.63708715103E-02  0.88680766678E+00  0.88000000000E+00 0. -1.
        -11    1    4    4    0    0  0.67762853413E-01 -0.43686965300E-01  0.12288040380E-01  0.81557417181E-01  0.51100000000E-03 0. -1.
         11    1    4    4    0    0  0.36459262324E-01 -0.36978381819E-01 -0.28677694647E-02  0.52011188737E-01  0.51100000000E-03 0.  1.
</event>
<event>
 8    1  0.1119901E+005  0.1043930E+01  0.7957747E-01            NaN
         13   -1    0    0    0    0  0.00000000000E+00  0.00000000000E+00  0.74505805969E-08  0.10566000000E+00  0.10566000000E+00 0. -1.
     999900   -1    0    0    0    0 -0.00000000000E+00 -0.00000000000E+00 -0.74505805969E-08  0.93827000000E+00  0.93827000000E+00 0.  1.
     999902    2    1    2    0    0 -0.15686974191E-01 -0.17372495923E-01  0.17320979511E-02  0.10204590619E+01  0.10201891060E+01 0.  0.
     999903    2    3    3    0    0 -0.19300673716E-01 -0.10843272355E+00  0.71841834246E-01  0.13297925983E+00  0.19800577152E-01 0.  0.
         14    1    1    2    0    0  0.15686974191E-01  0.17372495923E-01 -0.17320979511E-02  0.23470938140E-01  0.00000000000E+00 0.  1.
     999901    1    3    3    0    0  0.36136995259E-02  0.91060227629E-01 -0.70109736295E-01  0.88747980203E+00  0.88000000000E+00 0. -1.
        -11    1    4    4    0    0 -0.76583414878E-02 -0.74635970060E-01  0.39602288714E-01  0.84839734874E-01  0.51100000000E-03 0. -1.
         11    1    4    4    0    0 -0.11642332229E-01 -0.33796753492E-01  0.32239545532E-01  0.48139524961E-01  0.51100000000E-03 0.  1.
</event>
<event>
 8    1  0.1119901E+005  0.1043930E+01  0.7957747E-01            NaN
         13   -1    0    0    0    0  0.00000000000E+00  0.00000000000E+00  0.74505805969E-08  0.10566000000E+00  0.10566000000E+00 0.  1.
     999900   -1    0    0    0    0 -0.00000000000E+00 -0.00000000000E+00 -0.74505805969E-08  0.93827000000E+00  0.93827000000E+00 0.  1.
     999902    2    1    2    0    0 -0.15272868933E-01 -0.15078510334E-01  0.11767963936E-01  0.10194533382E+01  0.10191594584E+01 0.  0.
     999903    2    3    3    0    0 -0.11271971610E+00  0.32567406047E-01  0.56707384588E-01  0.13165517817E+00  0.18734677356E-01 0.  0.
         14    1    1    2    0    0  0.15272868933E-01  0.15078510334E-01 -0.11767963936E-01  0.24476661834E-01  0.00000000000E+00 0. -1.
     999901    1    3    3    0    0  0.97446847172E-01 -0.47645916381E-01 -0.44939420652E-01  0.88779816000E+00  0.88000000000E+00 0.  1.
        -11    1    4    4    0    0 -0.12460168424E-01  0.37541465478E-02  0.13453444648E-01  0.18724468146E-01  0.51100000000E-03 0. -1.
         11    1    4    4    0    0 -0.10025954768E+00  0.28813259500E-01  0.43253939940E-01  0.11293071002E+00  0.51100000000E-03 0.  1.
</event>
<event>
 8    1  0.1119901E+005  0.1043930E+01  0.7957747E-01            NaN
         13   -1    0    0    0    0  0.00000000000E+00  0.00000000000E+00  0.74505805969E-08  0.10566000000E+00  0.10566000000E+00 0. -1.
     999900   -1    0    0    0    0 -0.00000000000E+00 -0.00000000000E+00 -0.74505805969E-08  0.93827000000E+00  0.93827000000E+00 0.  1.
     999902    2    1    2    0    0 -0.10733809782E-01 -0.20959131953E-01 -0.27975879888E-02  0.10202165780E+01  0.10199409491E+01 0.  0.
     999903    2    3    3    0    0  0.40808764622E-01  0.11858969172E+00 -0.12872027555E-01  0.12767413895E+00  0.20152578267E-01 0.  0.
         14    1    1    2    0    0  0.10733809782E-01  0.20959131953E-01  0.27975879888E-02  0.23713422005E-01  0.00000000000E+00 0. -1.
     999901    1    3    3    0    0 -0.51542574403E-01 -0.13954882367E+00  0.10074439566E-01  0.89254243905E+00  0.88000000000E+00 0. -1.
        -11    1    4    4    0    0  0.34332673025E-01  0.73418663189E-01 -0.12686200449E-01  0.82037999392E-01  0.51100000000E-03 0. -1.
         11    1    4    4    0    0  0.64760915973E-02  0.45171028532E-01 -0.18582710612E-03  0.45636139557E-01  0.51100000000E-03 0.  1.
</event>
<event>
 8    1  0.1119901E+005  0.1043930E+01  0.7957747E-01            NaN
         13   -1    0    0    0    0  0.00000000000E+00  0.00000000000E+00  0.74505805969E-08  0.10566000000E+00  0.10566000000E+00 0. -1.
     999900   -1    0    0    0    0 -0.00000000000E+00 -0.00000000000E+00 -0.74505805969E-08  0.93827000000E+00  0.93827000000E+00 0.  1.
     999902    2    1    2    0    0  0.16693216242E-01  0.12934513892E-01  0.97571371380E-02  0.10206670070E+01  0.10204018681E+01 0.  0.
     999903    2    3    3    0    0 -0.55750810640E-01  0.54548344363E-01  0.10422376218E+00  0.13167668581E+00  0.19811164137E-01 0.  0.
         14    1    1    2    0    0 -0.16693216242E-01 -0.12934513892E-01 -0.97571371380E-02  0.23262992998E-01  0.00000000000E+00 0.  1.
     999901    1    3    3    0    0  0.72444026882E-01 -0.41613830471E-01 -0.94466625042E-01  0.88899032119E+00  0.88000000000E+00 0.  1.
        -11    1    4    4    0    0 -0.36074567581E-01  0.22681104827E-01  0.62006884396E-01  0.75239097389E-01  0.51100000000E-03 0.  1.
         11    1    4    4    0    0 -0.19676243059E-01  0.31867239536E-01  0.42216877783E-01  0.56437588426E-01  0.51100000000E-03 0. -1.
</event>
<event>
 8    1  0.1119901E+005  0.1043930E+01  0.7957747E-01            NaN
         13   -1    0    0    0    0  0.00000000000E+00  0.00000000000E+00  0.74505805969E-08  0.10566000000E+00  0.10566000000E+00 0. -1.
     999900   -1    0    0    0    0 -0.00000000000E+00 -0.00000000000E+00 -0.74505805969E-08  0.93827000000E+00  0.93827000000E+00 0. -1.
     999902    2    1    2    0    0  0.62886162636E-02  0.23858227619E-01 -0.92304503599E-03  0.10192396429E+01  0.10189405459E+01 0.  0.
     999903    2    3    3    0    0 -0.93657920975E-01 -0.81334544614E-01 -0.20625812094E-01  0.12713929619E+00  0.18757990379E-01 0.  0.
         14    1    1    2    0    0 -0.62886162636E-02 -0.23858227619E-01  0.92304503599E-03  0.24690357061E-01  0.00000000000E+00 0.  1.
     999901    1    3    3    0    0  0.99946537238E-01  0.10519277223E+00  0.19702767058E-01  0.89210034675E+00  0.88000000000E+00 0.  1.
        -11    1    4    4    0    0 -0.80183829699E-01 -0.72154239713E-01 -0.11588052592E-01  0.10849066751E+00  0.51100000000E-03 0.  1.
         11    1    4    4    0    0 -0.13474091276E-01 -0.91803049002E-02 -0.90377595025E-02  0.18648628679E-01  0.51100000000E-03 0. -1.
</event>
<event>
 8    1  0.1119901E+005  0.1043930E+01  0.7957747E-01            NaN
         13   -1    0    0    0    0  0.00000000000E+00  0.00000000000E+00  0.74505805969E-08  0.10566000000E+00  0.10566000000E+00 0.  1.
     999900   -1    0    0    0    0 -0.00000000000E+00 -0.00000000000E+00 -0.74505805969E-08  0.93827000000E+00  0.93827000000E+00 0.  1.
     999902    2    1    2    0    0 -0.10398881011E-01  0.19737471750E-01 -0.77494955259E-02  0.10203130739E+01  0.10200397098E+01 0.  0.
     999903    2    3    3    0    0 -0.82426322837E-01 -0.35144924373E-01  0.91910374093E-01  0.13007034330E+00  0.21012209179E-01 0.  0.
         14    1    1    2    0    0  0.10398881011E-01 -0.19737471750E-01  0.77494955259E-02  0.23616926097E-01  0.00000000000E+00 0.  1.
     999901    1    3    3    0    0  0.72027441826E-01  0.54882396123E-01 -0.99659869619E-01  0.89024273060E+00  0.88000000000E+00 0.  1.
        -11    1    4    4    0    0 -0.65826817158E-01 -0.30106674562E-01  0.61178892151E-01  0.94777105232E-01  0.51100000000E-03 0.  1.
         11    1    4    4    0    0 -0.16599505678E-01 -0.50382498111E-02  0.30731481942E-01  0.35293238068E-01  0.51100000000E-03 0. -1.
</event>
<event>
 8    1  0.1119901E+005  0.1043930E+01  0.7957747E-01            NaN
         13   -1    0    0    0    0  0.00000000000E+00  0.00000000000E+00  0.74505805969E-08  0.10566000000E+00  0.10566000000E+00 0. -1.
     999900   -1    0    0    0    0 -0.00000000000E+00 -0.00000000000E+00 -0.74505805969E-08  0.93827000000E+00  0.93827000000E+00 0. -1.
     999902    2    1    2    0    0  0.14488012994E-01  0.54389260751E-02  0.18525667814E-01  0.10197911350E+01  0.10195054066E+01 0.  0.
     999903    2    3    3    0    0 -0.41969211680E-01  0.68436101088E-01  0.10278637991E+00  0.13172811362E+00  0.18502469023E-01 0.  0.
         14    1    1    2    0    0 -0.14488012994E-01 -0.54389260751E-02 -0.18525667814E-01  0.24138865038E-01  0.00000000000E+00 0.  1.
     999901    1    3    3    0    0  0.56457224674E-01 -0.62997175012E-01 -0.84260712100E-01  0.88806302135E+00  0.88000000000E+00 0. -1.
        -11    1    4    4    0    0 -0.16775264379E-01  0.12283277790E-01  0.27749099799E-01  0.34677976713E-01  0.51100000000E-03 0.  1.
         11    1    4    4    0    0 -0.25193947301E-01  0.56152823298E-01  0.75037280115E-01  0.97050136904E-01  0.51100000000E-03 0. -1.
</event>
<event>
 8    1  0.1119901E+005  0.1043930E+01  0.7957747E-01            NaN
         13   -1    0    0    0    0  0.00000000000E+00  0.00000000000E+00  0.74505805969E-08  0.10566000000E+00  0.10566000000E+00 0.  1.
     999900   -1    0    0    0    0 -0.00000000000E+00 -0.00000000000E+00 -0.74505805969E-08  0.93827000000E+00  0.93827000000E+00 0. -1.
     999902    2    1    2    0    0 -0.28196866766E-02  0.20800225721E-01  0.92805521321E-02  0.10209794298E+01  0.10207214446E+01 0.  0.
     999903    2    3    3    0    0  0.10477650204E+00 -0.64550327392E-01 -0.34759220999E-01  0.12923890796E+00  0.18698442143E-01 0.  0.
         14    1    1    2    0    0  0.28196866766E-02 -0.20800225721E-01 -0.92805521321E-02  0.22950570164E-01  0.00000000000E+00 0.  1.
     999901    1    3    3    0    0 -0.10759618872E+00  0.85350553113E-01  0.44039773131E-01  0.89174052188E+00  0.88000000000E+00 0. -1.
        -11    1    4    4    0    0  0.70918291891E-01 -0.38579132164E-01 -0.30689358932E-01  0.86370431491E-01  0.51100000000E-03 0. -1.
         11    1    4    4    0    0  0.33858210152E-01 -0.25971195228E-01 -0.40698620678E-02  0.42868476466E-01  0.51100000000E-03 0.  1.
</event>
<event>
 8    1  0.1119901E+005  0.1043930E+01  0.7957747E-01            NaN
         13   -1    0    0    0    0  0.00000000000E+00  0.00000000000E+00  0.74505805969E-08  0.10566000000E+00  0.10566000000E+00 0. -1.
     999900   -1    0    0    0    0 -0.00000000000E+00 -0.00000000000E+00 -0.74505805969E-08  0.93827000000E+00  0.93827000000E+00 0.  1.
     999902    2    1    2    0    0  0.72926121429E-02  0.46051572562E-02  0.21292290827E-01  0.10209571614E+01  0.10206986696E+01 0.  0.
     999903    2    3    3    0    0 -0.96616815356E-01  0.70744240524E-01  0.51631687395E-01  0.13186097624E+00  0.19543012437E-01 0.  0.
         14    1    1    2    0    0 -0.72926121429E-02 -0.46051572562E-02 -0.21292290827E-01  0.22972838611E-01  0.00000000000E+00 0.  1.
     999901    1    3    3    0    0  0.10390942750E+00 -0.66139083268E-01 -0.30339396569E-01  0.88909618515E+00  0.88000000000E+00 0. -1.
        -11    1    4    4    0    0 -0.78904699484E-01  0.61557819844E-01  0.49895519699E-01  0.11182638683E+00  0.51100000000E-03 0.  1.
         11    1    4    4    0    0 -0.17712115872E-01  0.91864206807E-02  0.17361676962E-02  0.20034589410E-01  0.51100000000E-03 0. -1.
</event>
<event>
 8    1  0.1119901E+005  0.1043930E+01  0.7957747E-01            NaN
         13   -1    0    0    0    0  0.00000000000E+00  0.00000000000E+00  0.74505805969E-08  0.10566000000E+00  0.10566000000E+00 0. -1.
     999900   -1    0    0    0    0 -0.00000000000E+00 -0.00000000000E+00 -0.74505805969E-08  0.93827000000E+00  0.93827000000E+00 0.  1.
     999902    2    1    2    0    0  0.13955290036E-01  0.18801812317E-01 -0.44796986056E-02  0.10200904118E+01  0.10198118073E+01 0.  0.
     999903    2    3    3    0    0 -0.15881391821E-01 -0.47201312105E-01  0.11712601356E+00  0.12877980978E+00  0.19635526103E-01 0.  0.
         14    1    1    2    0    0 -0.13955290036E-01 -0.18801812317E-01  0.44796986056E-02  0.23839588210E-01  0.00000000000E+00 0. -1.
     999901    1    3    3    0    0  0.29836681858E-01  0.66003124422E-01 -0.12160571216E+00  0.89131060201E+00  0.88000000000E+00 0.  1.
        -11    1    4    4    0    0 -0.16141078900E-01 -0.22963917876E-01  0.49053860851E-01  0.56519185571E-01  0.51100000000E-03 0.  1.
         11    1    4    4    0    0  0.25968707858E-03 -0.24237394229E-01  0.68072152708E-01  0.72260624213E-01  0.51100000000E-03 0. -1.
</event>
<event>
 8    1  0.1119901E+005  0.1043930E+01  0.7957747E-01            NaN
         13   -1    0    0    0    0  0.00000000000E+00  0.00000000000E+00  0.74505805969E-08  0.10566000000E+00  0.10566000000E+00 0. -1.
     999900   -1    0    0    0    0 -0.00000000000E+00 -0.00000000000E+00 -0.74505805969E-08  0.93827000000E+00  0.93827000000E+00 0.  1.
     999902    2    1    2    0    0 -0.17928211661E-01  0.99928918749E-02 -0.87907302688E-02  0.10216016413E+01  0.10213576054E+01 0.  0.
     999903    2    3    3    0    0  0.88954718082E-01  0.45723340182E-02 -0.93680284632E-01  0.13106271488E+00  0.21623861714E-01 0.  0.
         14    1    1    2    0    0  0.17928211661E-01 -0.99928918749E-02  0.87907302688E-02  0.22328358651E-01  0.00000000000E+00 0.  1.
     999901    1    3    3    0    0 -0.10688292974E+00  0.54205578567E-02  0.84889554363E-01  0.89053892647E+00  0.88000000000E+00 0. -1.
        -11    1    4    4    0    0  0.84745704107E-01  0.62505493516E-02 -0.80257045874E-01  0.11688609098E+00  0.51100000000E-03 0.  1.
         11    1    4    4    0    0  0.42090139744E-02 -0.16782153335E-02 -0.13423238758E-01  0.14176623897E-01  0.51100000000E-03 0. -1.
</event>
<event>
 8    1  0.1119901E+005  0.1043930E+01  0.7957747E-01            NaN
         13   -1    0    0    0    0  0.00000000000E+00  0.00000000000E+00  0.74505805969E-08  0.10566000000E+00  0.10566000000E+00 0. -1.
     999900   -1    0    0    0    0 -0.00000000000E+00 -0.00000000000E+00 -0.74505805969E-08  0.93827000000E+00  0.93827000000E+00 0.  1.
     999902    2    1    2    0    0 -0.19390821622E-01 -0.12102238044E-01 -0.79848436201E-02  0.10197178986E+01  0.10194304129E+01 0.  0.
     999903    2    3    3    0    0 -0.92383611224E-01  0.85091794991E-01  0.29980417309E-01  0.13055200378E+00  0.19226415974E-01 0.  0.
         14    1    1    2    0    0  0.19390821622E-01  0.12102238044E-01  0.79848436201E-02  0.24212101447E-01  0.00000000000E+00 0. -1.
     999901    1    3    3    0    0  0.72992789602E-01 -0.97194033034E-01 -0.37965260929E-01  0.88916589477E+00  0.88000000000E+00 0.  1.
        -11    1    4    4    0    0 -0.39364964346E-01  0.39614871003E-01  0.38870277554E-02  0.55984895537E-01  0.51100000000E-03 0.  1.
         11    1    4    4    0    0 -0.53018646878E-01  0.45476923988E-01  0.26093389554E-01  0.74567108242E-01  0.51100000000E-03 0. -1.
</event>
<event>
 8    1  0.1119901E+005  0.1043930E+01  0.7957747E-01            NaN
         13   -1    0    0    0    0  0.00000000000E+00  0.00000000000E+00  0.74505805969E-08  0.10566000000E+00  0.10566000000E+00 0. -1.
     999900   -1    0    0    0    0 -0.00000000000E+00 -0.00000000000E+00 -0.74505805969E-08  0.93827000000E+00  0.93827000000E+00 0. -1.
     999902    2    1    2    0    0  0.50863762912E-02  0.12856878078E-02  0.23140852259E-01  0.10202018888E+01  0.10199259143E+01 0.  0.
     999903    2    3    3    0    0  0.56864672644E-01 -0.77634613478E-01 -0.83131386688E-01  0.12879670895E+00  0.20421571409E-01 0.  0.
         14    1    1    2    0    0 -0.50863762912E-02 -0.12856878078E-02 -0.23140852259E-01  0.23728111181E-01  0.00000000000E+00 0.  1.
     999901    1    3    3    0    0 -0.51778296353E-01  0.78920301286E-01  0.10627223895E+00  0.89140517987E+00  0.88000000000E+00 0.  1.
        -11    1    4    4    0    0  0.45718373422E-02 -0.47983302247E-02 -0.14262342374E-01  0.15735348761E-01  0.51100000000E-03 0. -1.
         11    1    4    4    0    0  0.52292835301E-01 -0.72836283253E-01 -0.68869044314E-01  0.11306136019E+00  0.51100000000E-03 0.  1.
</event>
<event>
 8    1  0.1479686E+005  0.1043930E+01  0.7957747E-01            NaN
         13   -1    0    0    0    0  0.00000000000E+00  0.00000000000E+00  0.74505805969E-08  0.10566000000E+00  0.10566000000E+00 0.  1.
     999900   -1    0    0    0    0 -0.00000000000E+00 -0.00000000000E+00 -0.74505805969E-08  0.93827000000E+00  0.93827000000E+00 0. -1.
     999902    2    1    2    0    0  0.66515302440E-02  0.13157978396E-01 -0.18092944106E-01  0.10205905511E+01  0.10203236462E+01 0.  0.
     999903    2    3    3    0    0 -0.58160086118E-01 -0.11331929077E+00 -0.81697526169E-02  0.12913358914E+00  0.19618402315E-01 0.  0.
         14    1    1    2    0    0 -0.66515302440E-02 -0.13157978396E-01  0.18092944106E-01  0.23339448933E-01  0.00000000000E+00 0.  1.
     999901    1    3    3    0    0  0.64811616362E-01  0.12647726917E+00 -0.99231914894E-02  0.89145696192E+00  0.88000000000E+00 0.  1.
        -11    1    4    4    0    0 -0.28019697721E-01 -0.75185150163E-01 -0.38098588635E-02  0.80328615144E-01  0.51100000000E-03 0. -1.
         11    1    4    4    0    0 -0.30140388397E-01 -0.38134140608E-01 -0.43598937534E-02  0.48804974000E-01  0.51100000000E-03 0.  1.
</event>
<event>
 8    1  0.1119901E+005  0.1043930E+01  0.7957747E-01            NaN
         13   -1    0    0    0    0  0.00000000000E+00  0.00000000000E+00  0.74505805969E-08  0.10566000000E+00  0.10566000000E+00 0.  1.
     999900   -1    0    0    0    0 -0.00000000000E+00 -0.00000000000E+00 -0.74505805969E-08  0.93827000000E+00  0.93827000000E+00 0. -1.
     999902    2    1    2    0    0 -0.21092801388E-01 -0.41509644865E-02 -0.13056391110E-01  0.10187783375E+01  0.10184678173E+01 0.  0.
     999903    2    3    3    0    0 -0.64204593878E-01 -0.92361449665E-01  0.62158387333E-01  0.13012937463E+00  0.20423559127E-01 0.  0.
         14    1    1    2    0    0  0.21092801388E-01  0.41509644865E-02  0.13056391110E-01  0.25151662478E-01  0.00000000000E+00 0.  1.
     999901    1    3    3    0    0  0.43111792490E-01  0.88210485178E-01 -0.75214778444E-01  0.88864896289E+00  0.88000000000E+00 0. -1.
        -11    1    4    4    0    0 -0.18885639647E-01 -0.43111176129E-01  0.30520932264E-01  0.56098389632E-01  0.51100000000E-03 0. -1.
         11    1    4    4    0    0 -0.45318954231E-01 -0.49250273536E-01  0.31637455070E-01  0.74030985001E-01  0.51100000000E-03 0.  1.
</event>
<event>
 8    1  0.1119901E+005  0.1043930E+01  0.7957747E-01            NaN
         13   -1    0    0    0    0  0.00000000000E+00  0.00000000000E+00  0.74505805969E-08  0.10566000000E+00  0.10566000000E+00 0.  1.
     999900   -1    0    0    0    0 -0.00000000000E+00 -0.00000000000E+00 -0.74505805969E-08  0.93827000000E+00  0.93827000000E+00 0. -1.
     999902    2    1    2    0    0 -0.36642722539E-02  0.16126320372E-01  0.15420224856E-01  0.10213187542E+01  0.10210684254E+01 0.  0.
     999903    2    3    3    0    0  0.85294599898E-01 -0.33274522941E-01  0.92766361001E-01  0.13208506785E+00  0.21412724388E-01 0.  0.
         14    1    1    2    0    0  0.36642722539E-02 -0.16126320372E-01 -0.15420224856E-01  0.22611245753E-01  0.00000000000E+00 0. -1.
     999901    1    3    3    0    0 -0.88958872151E-01  0.49400843314E-01 -0.77346136145E-01  0.88923368640E+00  0.88000000000E+00 0. -1.
        -11    1    4    4    0    0  0.48593747744E-01 -0.76411458956E-02  0.50981781188E-01  0.70845907182E-01  0.51100000000E-03 0. -1.
         11    1    4    4    0    0  0.36700852154E-01 -0.25633377046E-01  0.41784579813E-01  0.61239160663E-01  0.51100000000E-03 0.  1.
</event>
<event>
 8    1  0.1119901E+005  0.1043930E+01  0.7957747E-01            NaN
         13   -1    0    0    0    0  0.00000000000E+00  0.00000000000E+00  0.74505805969E-08  0.10566000000E+00  0.10566000000E+00 0. -1.
     999900   -1    0    0    0    0 -0.00000000000E+00 -0.00000000000E+00 -0.74505805969E-08  0.93827000000E+00  0.93827000000E+00 0.  1.
     999902    2    1    2    0    0  0.18782967303E-01 -0.14193476263E-01 -0.48571641276E-02  0.10198915584E+01  0.10196082308E+01 0.  0.
     999903    2    3    3    0    0 -0.33988317516E-02 -0.11966685729E+00 -0.52017863605E-01  0.13206229677E+00  0.20071953123E-01 0.  0.
         14    1    1    2    0    0 -0.18782967303E-01  0.14193476263E-01  0.48571641276E-02  0.24038441557E-01  0.00000000000E+00 0.  1.
     999901    1    3    3    0    0  0.22181799054E-01  0.10547338103E+00  0.47160699478E-01  0.88782926168E+00  0.88000000000E+00 0. -1.
        -11    1    4    4    0    0  0.36645705381E-02 -0.35040435464E-01 -0.69203293519E-02  0.35908401163E-01  0.51100000000E-03 0.  1.
         11    1    4    4    0    0 -0.70634022896E-02 -0.84626421826E-01 -0.45097534253E-01  0.96153895603E-01  0.51100000000E-03 0. -1.
</event>
<event>
 8    1  0.1119901E+005  0.1043930E+01  0.7957747E-01            NaN
         13   -1    0    0    0    0  0.00000000000E+00  0.00000000000E+00  0.74505805969E-08  0.10566000000E+00  0.10566000000E+00 0. -1.
     999900   -1    0    0    0    0 -0.00000000000E+00 -0.00000000000E+00 -0.74505805969E-08  0.93827000000E+00  0.93827000000E+00 0.  1.
     999902    2    1    2    0    0  0.62392391564E-02 -0.25063806872E-02 -0.22616639153E-01  0.10203350341E+01  0.10200621841E+01 0.  0.
     999903    2    3    3    0    0 -0.93022462853E-02  0.12624589492E+00 -0.26079247739E-01  0.13082355249E+00  0.20251344481E-01 0.  0.
         14    1    1    2    0    0 -0.62392391564E-02  0.25063806872E-02  0.22616639153E-01  0.23594965903E-01  0.00000000000E+00 0. -1.
     999901    1    3    3    0    0  0.15541485442E-01 -0.12875227561E+00  0.34626085860E-02  0.88951148160E+00  0.88000000000E+00 0. -1.
        -11    1    4    4    0    0 -0.91650982028E-02  0.56312648663E-01 -0.28336170211E-02  0.57126210542E-01  0.51100000000E-03 0.  1.
         11    1    4    4    0    0 -0.13714808253E-03  0.69933246262E-01 -0.23245630718E-01  0.73697341952E-01  0.51100000000E-03 0. -1.
</event>
<event>
 8    1  0.1119901E+005  0.1043930E+01  0.7957747E-01            NaN
         13   -1    0    0    0    0  0.00000000000E+00  0.00000000000E+00  0.74505805969E-08  0.10566000000E+00  0.10566000000E+00 0. -1.
     999900   -1    0    0    0    0 -0.00000000000E+00 -0.00000000000E+00 -0.74505805969E-08  0.93827000000E+00  0.93827000000E+00 0. -1.
     999902    2    1    2    0    0  0.12765093911E-01 -0.15205008875E-01 -0.16993591265E-01  0.10177972225E+01  0.10174616769E+01 0.  0.
     999903    2    3    3    0    0 -0.39720745322E-01 -0.11182408250E+00 -0.50125137785E-01  0.13033583847E+00  0.19812579738E-01 0.  0.
         14    1    1    2    0    0 -0.12765093911E-01  0.15205008875E-01  0.16993591265E-01  0.26132777532E-01  0.00000000000E+00 0. -1.
     999901    1    3    3    0    0  0.52485839234E-01  0.96619073628E-01  0.33131546521E-01  0.88746138400E+00  0.88000000000E+00 0.  1.
        -11    1    4    4    0    0 -0.16555691211E-01 -0.52952004462E-01 -0.13017244459E-01  0.56988731012E-01  0.51100000000E-03 0.  1.
         11    1    4    4    0    0 -0.23165054111E-01 -0.58872078040E-01 -0.37107893326E-01  0.73347107461E-01  0.51100000000E-03 0. -1.
</event>
<event>
 8    1  0.1119901E+005  0.1043930E+01  0.7957747E-01            NaN
         13   -1    0    0    0    0  0.00000000000E+00  0.00000000000E+00  0.74505805969E-08  0.10566000000E+00  0.10566000000E+00 0. -1.
     999900   -1    0    0    0    0 -0.00000000000E+00 -0.00000000000E+00 -0.74505805969E-08  0.93827000000E+00  0.93827000000E+00 0.  1.
     999902    2    1    2    0    0  0.19867168606E-01 -0.11120300260E-01  0.10369692757E-02  0.10211387567E+01  0.10208843811E+01 0.  0.
     999903    2    3    3    0    0  0.59528941315E-01 -0.35157158214E-01  0.11187474917E+00  0.13297444745E+00  0.19660202044E-01 0.  0.
         14    1    1    2    0    0 -0.19867168606E-01  0.11120300260E-01 -0.10369692757E-02  0.22791243308E-01  0.00000000000E+00 0. -1.
     999901    1    3    3    0    0 -0.39661772709E-01  0.24036857955E-01 -0.11083777990E+00  0.88816430924E+00  0.88000000000E+00 0.  1.
        -11    1    4    4    0    0  0.50852927429E-01 -0.37001550038E-01  0.95595617794E-01  0.11442865985E+00  0.51100000000E-03 0. -1.
         11    1    4    4    0    0  0.86760138863E-02  0.18443918239E-02  0.16279131381E-01  0.18545787599E-01  0.51100000000E-03 0.  1.
</event>
<event>
 8    1  0.1119901E+005  0.1043930E+01  0.7957747E-01            NaN
         13   -1    0    0    0    0  0.00000000000E+00  0.00000000000E+00  0.74505805969E-08  0.10566000000E+00  0.10566000000E+00 0. -1.
     999900   -1    0    0    0    0 -0.00000000000E+00 -0.00000000000E+00 -0.74505805969E-08  0.93827000000E+00  0.93827000000E+00 0.  1.
     999902    2    1    2    0    0  0.16158450191E-01  0.83826508299E-02  0.24064070862E-01  0.10137564378E+01  0.10133072937E+01 0.  0.
     999903    2    3    3    0    0 -0.41008551928E-01 -0.21708471524E-02  0.11836460995E+00  0.12681109897E+00  0.19607652184E-01 0.  0.
         14    1    1    2    0    0 -0.16158450191E-01 -0.83826508299E-02 -0.24064070862E-01  0.30173562169E-01  0.00000000000E+00 0.  1.
     999901    1    3    3    0    0  0.57167002120E-01  0.10553497982E-01 -0.94300539092E-01  0.88694533886E+00  0.88000000000E+00 0.  1.
        -11    1    4    4    0    0 -0.25842349426E-01  0.29539420626E-02  0.94898492904E-01  0.98399887571E-01  0.51100000000E-03 0.  1.
         11    1    4    4    0    0 -0.15166202502E-01 -0.51247892150E-02  0.23466117050E-01  0.28411211400E-01  0.51100000000E-03 0. -1.
</event>
<event>
 8    1  0.1119901E+005  0.1043930E+01  0.7957747E-01            NaN
         13   -1    0    0    0    0  0.00000000000E+00  0.00000000000E+00  0.74505805969E-08  0.10566000000E+00  0.10566000000E+00 0. -1.
     999900   -1    0    0    0    0 -0.00000000000E+00 -0.00000000000E+00 -0.74505805969E-08  0.93827000000E+00  0.93827000000E+00 0.  1.
     999902    2    1    2    0    0 -0.14941398079E-01  0.14346454015E-02  0.17951287413E-01  0.10205301644E+01  0.10202618606E+01 0.  0.
     999903    2    3    3    0    0 -0.66198285958E-01 -0.68158579694E-01 -0.86777126452E-01  0.13011535875E+00  0.19285534952E-01 0.  0.
         14    1    1    2    0    0  0.14941398079E-01 -0.14346454015E-02 -0.17951287413E-01  0.23399835550E-01  0.00000000000E+00 0.  1.
     999901    1    3    3    0    0  0.51256887879E-01  0.69593225095E-01  0.10472841386E+00  0.89041480570E+00  0.88000000000E+00 0. -1.
        -11    1    4    4    0    0 -0.54908397114E-01 -0.48848168630E-01 -0.57766597275E-01  0.93478963055E-01  0.51100000000E-03 0.  1.
         11    1    4    4    0    0 -0.11289888844E-01 -0.19310411064E-01 -0.29010529177E-01  0.36636395698E-01  0.51100000000E-03 0. -1.
</event>
<event>
 8    1  0.1119901E+005  0.1043930E+01  0.7957747E-01            NaN
         13   -1    0    0    0    0  0.00000000000E+00  0.00000000000E+00  0.74505805969E-08  0.10566000000E+00  0.10566000000E+00 0.  1.
     999900   -1    0    0    0    0 -0.00000000000E+00 -0.00000000000E+00 -0.74505805969E-08  0.93827000000E+00  0.93827000000E+00 0.  1.
     999902    2    1    2    0    0  0.91694961132E-03 -0.17586288166E-01  0.15427294742E-01  0.10205180426E+01  0.10202494575E+01 0.  0.
     999903    2    3    3    0    0 -0.26613146410E-01 -0.12400867093E+00 -0.32330869845E-01  0.13239391158E+00  0.19911118817E-01 0.  0.
         14    1    1    2    0    0 -0.91694961132E-03  0.17586288166E-01 -0.15427294742E-01  0.23411957438E-01  0.00000000000E+00 0. -1.
     999901    1    3    3    0    0  0.27530096021E-01  0.10642238276E+00  0.47758164587E-01  0.88812413098E+00  0.88000000000E+00 0.  1.
        -11    1    4    4    0    0 -0.52321565886E-02 -0.50128284262E-01 -0.21194980366E-01  0.54678228385E-01  0.51100000000E-03 0. -1.
         11    1    4    4    0    0 -0.21380989822E-01 -0.73880386665E-01 -0.11135889479E-01  0.77715683199E-01  0.51100000000E-03 0.  1.
</event>
<event>
 8    1  0.1119901E+005  0.1043930E+01  0.7957747E-01            NaN
         13   -1    0    0    0    0  0.00000000000E+00  0.00000000000E+00  0.74505805969E-08  0.10566000000E+00  0.10566000000E+00 0.  1.
     999900   -1    0    0    0    0 -0.00000000000E+00 -0.00000000000E+00 -0.74505805969E-08  0.93827000000E+00  0.93827000000E+00 0. -1.
     999902    2    1    2    0    0 -0.11100776544E-01  0.97372363531E-02 -0.18692807639E-01  0.10201085376E+01  0.10198303616E+01 0.  0.
     999903    2    3    3    0    0  0.62004022228E-01  0.62142690104E-01  0.90204339953E-01  0.12884581995E+00  0.27535607244E-01 0.  0.
         14    1    1    2    0    0  0.11100776544E-01 -0.97372363531E-02  0.18692807639E-01  0.23821462362E-01  0.00000000000E+00 0.  1.
     999901    1    3    3    0    0 -0.73104798772E-01 -0.52405453751E-01 -0.10889714759E+00  0.89126271769E+00  0.88000000000E+00 0. -1.
        -11    1    4    4    0    0  0.29546007584E-01  0.39571662671E-01  0.33342976369E-01  0.59589413866E-01  0.51100000000E-03 0.  1.
         11    1    4    4    0    0  0.32458014643E-01  0.22571027433E-01  0.56861363585E-01  0.69256406084E-01  0.51100000000E-03 0. -1.
</event>
<event>
 8    1  0.1119901E+005  0.1043930E+01  0.7957747E-01            NaN
         13   -1    0    0    0    0  0.00000000000E+00  0.00000000000E+00  0.74505805969E-08  0.10566000000E+00  0.10566000000E+00 0.  1.
     999900   -1    0    0    0    0 -0.00000000000E+00 -0.00000000000E+00 -0.74505805969E-08  0.93827000000E+00  0.93827000000E+00 0.  1.
     999902    2    1    2    0    0  0.10363516221E-01  0.19627356252E-01  0.17277944523E-01  0.10158023810E+01  0.10154128788E+01 0.  0.
     999903    2    3    3    0    0  0.77070177665E-01 -0.82081110817E-01 -0.49662826871E-01  0.12491773203E+00  0.21469102548E-01 0.  0.
         14    1    1    2    0    0 -0.10363516221E-01 -0.19627356252E-01 -0.17277944523E-01  0.28127618968E-01  0.00000000000E+00 0.  1.
     999901    1    3    3    0    0 -0.66706661443E-01  0.10170846707E+00  0.66940771394E-01  0.89088464900E+00  0.88000000000E+00 0.  1.
        -11    1    4    4    0    0  0.35202952332E-01 -0.50514419192E-01 -0.20374911683E-01  0.64856399424E-01  0.51100000000E-03 0. -1.
         11    1    4    4    0    0  0.41867225332E-01 -0.31566691625E-01 -0.29287915188E-01  0.60061332604E-01  0.51100000000E-03 0.  1.
</event>
<event>
 8    1  0.1119901E+005  0.1043930E+01  0.7957747E-01            NaN
         13   -1    0    0    0    0  0.00000000000E+00  0.00000000000E+00  0.74505805969E-08  0.10566000000E+00  0.10566000000E+00 0. -1.
     999900   -1    0    0    0    0 -0.00000000000E+00 -0.00000000000E+00 -0.74505805969E-08  0.93827000000E+00  0.93827000000E+00 0. -1.
     999902    2    1    2    0    0 -0.24926830903E-01  0.77550338689E-02  0.94887535646E-02  0.10161536811E+01  0.10157739806E+01 0.  0.
     999903    2    3    3    0    0 -0.38047159948E-01 -0.10826987119E+00 -0.49265528670E-01  0.12649869889E+00  0.20121558539E-01 0.  0.
         14    1    1    2    0    0  0.24926830903E-01 -0.77550338689E-02 -0.94887535646E-02  0.27776318931E-01  0.00000000000E+00 0. -1.
     999901    1    3    3    0    0  0.13120329046E-01  0.11602490506E+00  0.58754282235E-01  0.88965498218E+00  0.88000000000E+00 0. -1.
        -11    1    4    4    0    0 -0.88354065761E-02 -0.80761245228E-02 -0.71678674890E-02  0.13961648972E-01  0.51100000000E-03 0. -1.
         11    1    4    4    0    0 -0.29211753372E-01 -0.10019374667E+00 -0.42097661181E-01  0.11253704992E+00  0.51100000000E-03 0.  1.
</event>
<event>
 8    1  0.1119901E+005  0.1043930E+01  0.7957747E-01            NaN
         13   -1    0    0    0    0  0.00000000000E+00  0.00000000000E+00  0.74505805969E-08  0.10566000000E+00  0.10566000000E+00 0.  1.
     999900   -1    0    0    0    0 -0.00000000000E+00 -0.00000000000E+00 -0.74505805969E-08  0.93827000000E+00  0.93827000000E+00 0. -1.
     999902    2    1    2    0    0  0.23916791498E-02  0.28969671412E-02 -0.21148072058E-01  0.10224508590E+01  0.10222252225E+01 0.  0.
     999903    2    3    3    0    0  0.91405850748E-01 -0.95720064116E-03 -0.96826995306E-01  0.13472022596E+00  0.20448141197E-01 0.  0.
         14    1    1    2    0    0 -0.23916791498E-02 -0.28969671412E-02  0.21148072058E-01  0.21479141034E-01  0.00000000000E+00 0. -1.
     999901    1    3    3    0    0 -0.89014171598E-01  0.38541677823E-02  0.75678923248E-01  0.88773063301E+00  0.88000000000E+00 0.  1.
        -11    1    4    4    0    0  0.62382586900E-01 -0.97632396666E-03 -0.78956323044E-01  0.10063251178E+00  0.51100000000E-03 0. -1.
         11    1    4    4    0    0  0.29023263848E-01  0.19123325493E-04 -0.17870672262E-01  0.34087714183E-01  0.51100000000E-03 0.  1.
</event>
<event>
 8    1  0.1119901E+005  0.1043930E+01  0.7957747E-01            NaN
         13   -1    0    0    0    0  0.00000000000E+00  0.00000000000E+00  0.74505805969E-08  0.10566000000E+00  0.10566000000E+00 0.  1.
     999900   -1    0    0    0    0 -0.00000000000E+00 -0.00000000000E+00 -0.74505805969E-08  0.93827000000E+00  0.93827000000E+00 0. -1.
     999902    2    1    2    0    0 -0.12399459425E-01  0.31418567019E-02  0.19753826608E-01  0.10203963746E+01  0.10201249579E+01 0.  0.
     999903    2    3    3    0    0  0.93683663188E-01 -0.40506732959E-01  0.81325007654E-01  0.13081791343E+00  0.90634122752E-02 0.  0.
         14    1    1    2    0    0  0.12399459425E-01 -0.31418567019E-02 -0.19753826608E-01  0.23533625373E-01  0.00000000000E+00 0. -1.
     999901    1    3    3    0    0 -0.10608312261E+00  0.43648589661E-01 -0.61571181046E-01  0.88957846119E+00  0.88000000000E+00 0. -1.
        -11    1    4    4    0    0  0.92657503476E-01 -0.40689316520E-01  0.80967337717E-01  0.12960325739E+00  0.51100000000E-03 0. -1.
         11    1    4    4    0    0  0.10261597120E-02  0.18258356095E-03  0.35766993658E-03  0.12146560397E-02  0.51100000000E-03 0.  1.
</event>
<event>
 8    1  0.1119901E+005  0.1043930E+01  0.7957747E-01            NaN
         13   -1    0    0    0    0  0.00000000000E+00  0.00000000000E+00  0.74505805969E-08  0.10566000000E+00  0.10566000000E+00 0.  1.
     999900   -1    0    0    0    0 -0.00000000000E+00 -0.00000000000E+00 -0.74505805969E-08  0.93827000000E+00  0.93827000000E+00 0.  1.
     999902    2    1    2    0    0 -0.10167141089E-01 -0.28204645425E-02  0.20594810444E-01  0.10207897322E+01  0.10205274153E+01 0.  0.
     999903    2    3    3    0    0 -0.11934633586E+00 -0.24077890008E-01  0.50668660847E-01  0.13327837382E+00  0.19300752990E-01 0.  0.
         14    1    1    2    0    0  0.10167141089E-01  0.28204645425E-02 -0.20594810444E-01  0.23140267833E-01  0.00000000000E+00 0.  1.
     999901    1    3    3    0    0  0.10917919477E+00  0.21257425466E-01 -0.30073850403E-01  0.88751135834E+00  0.88000000000E+00 0.  1.
        -11    1    4    4    0    0 -0.69309249317E-01 -0.11514770854E-01  0.19166229521E-01  0.72828342449E-01  0.51100000000E-03 0. -1.
         11    1    4    4    0    0 -0.50037086546E-01 -0.12563119154E-01  0.31502431326E-01  0.60450031376E-01  0.51100000000E-03 0.  1.
</event>
<event>
 8    1  0.1119901E+005  0.1043930E+01  0.7957747E-01            NaN
         13   -1    0    0    0    0  0.00000000000E+00  0.00000000000E+00  0.74505805969E-08  0.10566000000E+00  0.10566000000E+00 0. -1.
     999900   -1    0    0    0    0 -0.00000000000E+00 -0.00000000000E+00 -0.74505805969E-08  0.93827000000E+00  0.93827000000E+00 0. -1.
     999902    2    1    2    0    0  0.67018561110E-02 -0.85762852981E-02 -0.20465369220E-01  0.10207502916E+01  0.10204870694E+01 0.  0.
     999903    2    3    3    0    0  0.78957488106E-01 -0.42097679415E-01 -0.97380032168E-01  0.13381149686E+00  0.20399668772E-01 0.  0.
         14    1    1    2    0    0 -0.67018561110E-02  0.85762852981E-02  0.20465369220E-01  0.23179708414E-01  0.00000000000E+00 0. -1.
     999901    1    3    3    0    0 -0.72255631995E-01  0.33521394117E-01  0.76914662947E-01  0.88693879473E+00  0.88000000000E+00 0.  1.
        -11    1    4    4    0    0  0.65687832863E-01 -0.32516066675E-01 -0.67027347821E-01  0.99323272475E-01  0.51100000000E-03 0.  1.
         11    1    4    4    0    0  0.13269655243E-01 -0.95816127392E-02 -0.30352684347E-01  0.34488224382E-01  0.51100000000E-03 0. -1.
</event>
<event>
 8    1  0.1119901E+005  0.1043930E+01  0.7957747E-01            NaN
         13   -1    0    0    0    0  0.00000000000E+00  0.00000000000E+00  0.74505805969E-08  0.10566000000E+00  0.10566000000E+00 0. -1.
     999900   -1    0    0    0    0 -0.00000000000E+00 -0.00000000000E+00 -0.74505805969E-08  0.93827000000E+00  0.93827000000E+00 0.  1.
     999902    2    1    2    0    0  0.40544066138E-02 -0.54355530690E-02  0.21926577371E-01  0.10209787855E+01  0.10207207857E+01 0.  0.
     999903    2    3    3    0    0  0.22358895962E-02 -0.59813043093E-01 -0.11287251269E+00  0.12905333287E+00  0.18219749649E-01 0.  0.
         14    1    1    2    0    0 -0.40544066138E-02  0.54355530690E-02 -0.21926577371E-01  0.22951214464E-01  0.00000000000E+00 0.  1.
     999901    1    3    3    0    0  0.18185170176E-02  0.54377490024E-01  0.13479909007E+00  0.89192545266E+00  0.88000000000E+00 0. -1.
        -11    1    4    4    0    0 -0.79323903609E-02 -0.31132897546E-01 -0.58364094733E-01  0.66624385937E-01  0.51100000000E-03 0.  1.
         11    1    4    4    0    0  0.10168279957E-01 -0.28680145547E-01 -0.54508417962E-01  0.62428946936E-01  0.51100000000E-03 0. -1.
</event>
<event>
 8    1  0.1119901E+005  0.1043930E+01  0.7957747E-01            NaN
         13   -1    0    0    0    0  0.00000000000E+00  0.00000000000E+00  0.74505805969E-08  0.10566000000E+00  0.10566000000E+00 0.  1.
     999900   -1    0    0    0    0 -0.00000000000E+00 -0.00000000000E+00 -0.74505805969E-08  0.93827000000E+00  0.93827000000E+00 0. -1.
     999902    2    1    2    0    0 -0.20368147743E-01 -0.76831606166E-02  0.94947914582E-02  0.10201804008E+01  0.10199039203E+01 0.  0.
     999903    2    3    3    0    0  0.10770853813E+00  0.58874113879E-01  0.31045984339E-01  0.12816136387E+00  0.19854258327E-01 0.  0.
         14    1    1    2    0    0  0.20368147743E-01  0.76831606166E-02 -0.94947914582E-02  0.23749599247E-01  0.00000000000E+00 0. -1.
     999901    1    3    3    0    0 -0.12807668587E+00 -0.66557274495E-01 -0.21551192881E-01  0.89201903689E+00  0.88000000000E+00 0.  1.
        -11    1    4    4    0    0  0.48957264430E-01  0.31923405276E-01  0.23832424327E-01  0.63120227464E-01  0.51100000000E-03 0. -1.
         11    1    4    4    0    0  0.58751273700E-01  0.26950708602E-01  0.72135600126E-02  0.65041136403E-01  0.51100000000E-03 0.  1.
</event>
<event>
 8    1  0.1119901E+005  0.1043930E+01  0.7957747E-01            NaN
         13   -1    0    0    0    0  0.00000000000E+00  0.00000000000E+00  0.74505805969E-08  0.10566000000E+00  0.10566000000E+00 0.  1.
     999900   -1    0    0    0    0 -0.00000000000E+00 -0.00000000000E+00 -0.74505805969E-08  0.93827000000E+00  0.93827000000E+00 0.  1.
     999902    2    1    2    0    0 -0.23949107712E-01 -0.15280639179E-02 -0.85792440078E-03  0.10199168625E+01  0.10196341381E+01 0.  0.
     999903    2    3    3    0    0  0.32801859219E-01 -0.80106191467E-02 -0.12350654305E+00  0.12957682663E+00  0.19903663878E-01 0.  0.
         14    1    1    2    0    0  0.23949107712E-01  0.15280639179E-02  0.85792440078E-03  0.24013137525E-01  0.00000000000E+00 0.  1.
     999901    1    3    3    0    0 -0.56750966931E-01  0.64825552289E-02  0.12264861865E+00  0.89034003584E+00  0.88000000000E+00 0. -1.
        -11    1    4    4    0    0  0.11483973649E-01 -0.54565891618E-02 -0.18873034618E-01  0.22761998435E-01  0.51100000000E-03 0.  1.
         11    1    4    4    0    0  0.21317885569E-01 -0.25540299849E-02 -0.10463350843E+00  0.10681482820E+00  0.51100000000E-03 0. -1.
</event>
<event>
 7    1  0.1119901E+005  0.1043930E+01  0.7957747E-01            NaN
         13   -1    0    0    0    0  0.00000000000E+00  0.00000000000E+00  0.74505805969E-08  0.10566000000E+00  0.10566000000E+00 0.  1.
     999900   -1    0    0    0    0 -0.00000000000E+00 -0.00000000000E+00 -0.74505805969E-08  0.93827000000E+00  0.93827000000E+00 0.  1.
     999902    2    1    2    0    0  0.48623419915E-02 -0.10270827123E-01  0.20949154692E-01  0.10200972632E+01  0.10198188207E+01 0.  0.
         14    1    1    2    0    0 -0.48623419915E-02  0.10270827123E-01 -0.20949154692E-01  0.23832736766E-01  0.00000000000E+00 0. -1.
     999901    1    3    3    0    0 -0.11187437511E-02  0.10102293058E+00 -0.51192962581E-01  0.88725847615E+00  0.88000000000E+00 0.  1.
        -11    1    3    3    0    0  0.44613369941E-02 -0.43977985623E-01  0.28816631865E-01  0.52769556947E-01  0.51100000000E-03 0. -1.
         11    1    3    3    0    0  0.15197487486E-02 -0.67315772082E-01  0.43325485408E-01  0.80069230133E-01  0.51100000000E-03 0.  1.
</event>
<event>
 8    1  0.1119901E+005  0.1043930E+01  0.7957747E-01            NaN
         13   -1    0    0    0    0  0.00000000000E+00  0.00000000000E+00  0.74505805969E-08  0.10566000000E+00  0.10566000000E+00 0.  1.
     999900   -1    0    0    0    0 -0.00000000000E+00 -0.00000000000E+00 -0.74505805969E-08  0.93827000000E+00  0.93827000000E+00 0.  1.
     999902    2    1    2    0    0  0.85232617187E-04  0.49280277974E-02  0.23413543178E-01  0.10200033051E+01  0.10197226367E+01 0.  0.
     999903    2    3    3    0    0 -0.17019951779E-01 -0.38938994772E-01  0.12433888834E+00  0.13298423641E+00  0.20462744354E-01 0.  0.
         14    1    1    2    0    0 -0.85232617187E-04 -0.49280277974E-02 -0.23413543178E-01  0.23926694856E-01  0.00000000000E+00 0. -1.
     999901    1    3    3    0    0  0.17105184396E-01  0.43867022570E-01 -0.10092534517E+00  0.88701906873E+00  0.88000000000E+00 0.  1.
        -11    1    4    4    0    0 -0.15370219236E-01 -0.17052774536E-01  0.83717817944E-01  0.86809993210E-01  0.51100000000E-03 0.  1.
         11    1    4    4    0    0 -0.16497325435E-02 -0.21886220237E-01  0.40621070399E-01  0.46174243200E-01  0.51100000000E-03 0. -1.
</event>
<event>
 8    1  0.1119901E+005  0.1043930E+01  0.7957747E-01            NaN
         13   -1    0    0    0    0  0.00000000000E+00  0.00000000000E+00  0.74505805969E-08  0.10566000000E+00  0.10566000000E+00 0.  1.
     999900   -1    0    0    0    0 -0.00000000000E+00 -0.00000000000E+00 -0.74505805969E-08  0.93827000000E+00  0.93827000000E+00 0. -1.
     999902    2    1    2    0    0  0.68908793794E-02 -0.48449285154E-02 -0.21836306412E-01  0.10205252606E+01  0.10202568430E+01 0.  0.
     999903    2    3    3    0    0 -0.19585504287E-01 -0.12819714609E+00  0.21332774340E-02  0.13120455944E+00  0.19798618661E-01 0.  0.
         14    1    1    2    0    0 -0.68908793794E-02  0.48449285154E-02  0.21836306412E-01  0.23404739448E-01  0.00000000000E+00 0.  1.
     999901    1    3    3    0    0  0.26476383667E-01  0.12335221758E+00 -0.23969583846E-01  0.88932070111E+00  0.88000000000E+00 0. -1.
        -11    1    4    4    0    0 -0.22053754534E-01 -0.82194098313E-01  0.22413367712E-02  0.85132382782E-01  0.51100000000E-03 0.  1.
         11    1    4    4    0    0  0.24682502462E-02 -0.46003047780E-01 -0.10805933724E-03  0.46072176660E-01  0.51100000000E-03 0. -1.
</event>
<event>
 8    1  0.1119901E+005  0.1043930E+01  0.7957747E-01            NaN
         13   -1    0    0    0    0  0.00000000000E+00  0.00000000000E+00  0.74505805969E-08  0.10566000000E+00  0.10566000000E+00 0.  1.
     999900   -1    0    0    0    0 -0.00000000000E+00 -0.00000000000E+00 -0.74505805969E-08  0.93827000000E+00  0.93827000000E+00 0.  1.
     999902    2    1    2    0    0 -0.10767320454E-01  0.13968858375E-01  0.16121237727E-01  0.10200352621E+01  0.10197553517E+01 0.  0.
     999903    2    3    3    0    0 -0.11999532588E+00 -0.41197375472E-01 -0.24032854312E-01  0.13066108794E+00  0.19965966978E-01 0.  0.
         14    1    1    2    0    0  0.10767320454E-01 -0.13968858375E-01 -0.16121237727E-01  0.23894737912E-01  0.00000000000E+00 0. -1.
     999901    1    3    3    0    0  0.10922800543E+00  0.55166233847E-01  0.40154092039E-01  0.88937417414E+00  0.88000000000E+00 0. -1.
        -11    1    4    4    0    0 -0.14328383978E-01 -0.11735381815E-01 -0.61012782153E-02  0.19506626838E-01  0.51100000000E-03 0. -1.
         11    1    4    4    0    0 -0.10566694190E+00 -0.29461993658E-01 -0.17931576097E-01  0.11115446111E+00  0.51100000000E-03 0.  1.
</event>
<event>
 8    1  0.1119901E+005  0.1043930E+01  0.7957747E-01            NaN
         13   -1    0    0    0    0  0.00000000000E+00  0.00000000000E+00  0.74505805969E-08  0.10566000000E+00  0.10566000000E+00 0.  1.
     999900   -1    0    0    0    0 -0.00000000000E+00 -0.00000000000E+00 -0.74505805969E-08  0.93827000000E+00  0.93827000000E+00 0.  1.
     999902    2    1    2    0    0  0.14320800646E-01 -0.21132194721E-01 -0.91495672925E-02  0.10168123016E+01  0.10164506319E+01 0.  0.
     999903    2    3    3    0    0 -0.78921768806E-01 -0.24262525560E-01 -0.95672642312E-01  0.12766089816E+00  0.18075804102E-01 0.  0.
         14    1    1    2    0    0 -0.14320800646E-01  0.21132194721E-01  0.91495672925E-02  0.27117698400E-01  0.00000000000E+00 0.  1.
     999901    1    3    3    0    0  0.93242569452E-01  0.31303308388E-02  0.86523075020E-01  0.88915140344E+00  0.88000000000E+00 0. -1.
        -11    1    4    4    0    0 -0.31007410881E-01 -0.12222513254E-01 -0.51733519971E-01  0.61542404644E-01  0.51100000000E-03 0. -1.
         11    1    4    4    0    0 -0.47914357925E-01 -0.12040012306E-01 -0.43939122341E-01  0.66118493516E-01  0.51100000000E-03 0.  1.
</event>
<event>
 8    1  0.1119901E+005  0.1043930E+01  0.7957747E-01            NaN
         13   -1    0    0    0    0  0.00000000000E+00  0.00000000000E+00  0.74505805969E-08  0.10566000000E+00  0.10566000000E+00 0.  1.
     999900   -1    0    0    0    0 -0.00000000000E+00 -0.00000000000E+00 -0.74505805969E-08  0.93827000000E+00  0.93827000000E+00 0. -1.
     999902    2    1    2    0    0  0.79269123001E-02  0.18834332691E-01  0.89017767719E-02  0.10216407726E+01  0.10213976007E+01 0.  0.
     999903    2    3    3    0    0 -0.67040842901E-01 -0.98804452372E-01 -0.39979379125E-01  0.12931324562E+00  0.29440963185E-01 0.  0.
         14    1    1    2    0    0 -0.79269123001E-02 -0.18834332691E-01 -0.89017767719E-02  0.22289227358E-01  0.00000000000E+00 0.  1.
     999901    1    3    3    0    0  0.74967755201E-01  0.11763878506E+00  0.48881155897E-01  0.89232752702E+00  0.88000000000E+00 0. -1.
        -11    1    4    4    0    0  0.35318343801E-03 -0.64072245299E-02  0.30468559833E-02  0.71219180774E-02  0.51100000000E-03 0. -1.
         11    1    4    4    0    0 -0.67394026339E-01 -0.92397227842E-01 -0.43026235108E-01  0.12219132755E+00  0.51100000000E-03 0.  1.
</event>
<event>
 8    1  0.1119901E+005  0.1043930E+01  0.7957747E-01            NaN
         13   -1    0    0    0    0  0.00000000000E+00  0.00000000000E+00  0.74505805969E-08  0.10566000000E+00  0.10566000000E+00 0.  1.
     999900   -1    0    0    0    0 -0.00000000000E+00 -0.00000000000E+00 -0.74505805969E-08  0.93827000000E+00  0.93827000000E+00 0. -1.
     999902    2    1    2    0    0  0.48245842978E-02  0.18532807398E-01 -0.16722682647E-01  0.10185058053E+01  0.10181884333E+01 0.  0.
     999903    2    3    3    0    0 -0.62720568623E-01  0.99783507400E-01  0.50127083702E-01  0.12966784747E+00  0.20258530779E-01 0.  0.
         14    1    1    2    0    0 -0.48245842978E-02 -0.18532807398E-01  0.16722682647E-01  0.25424194749E-01  0.00000000000E+00 0.  1.
     999901    1    3    3    0    0  0.67545152921E-01 -0.81250700002E-01 -0.66849766350E-01  0.88883795778E+00  0.88000000000E+00 0.  1.
        -11    1    4    4    0    0 -0.28998708195E-01  0.35777618245E-01  0.10735359573E-01  0.47291353443E-01  0.51100000000E-03 0. -1.
         11    1    4    4    0    0 -0.33721860428E-01  0.64005889154E-01  0.39391724129E-01  0.82376494026E-01  0.51100000000E-03 0.  1.
</event>
<event>
 8    1  0.1119901E+005  0.1043930E+01  0.7957747E-01            NaN
         13   -1    0    0    0    0  0.00000000000E+00  0.00000000000E+00  0.74505805969E-08  0.10566000000E+00  0.10566000000E+00 0.  1.
     999900   -1    0    0    0    0 -0.00000000000E+00 -0.00000000000E+00 -0.74505805969E-08  0.93827000000E+00  0.93827000000E+00 0. -1.
     999902    2    1    2    0    0 -0.20939901149E-01  0.11101601675E-01 -0.14565700935E-02  0.10201845454E+01  0.10199081625E+01 0.  0.
     999903    2    3    3    0    0 -0.69979111234E-01  0.33806486386E-01  0.10512980844E+00  0.13210740231E+00  0.18977212431E-01 0.  0.
         14    1    1    2    0    0  0.20939901149E-01 -0.11101601675E-01  0.14565700935E-02  0.23745454645E-01  0.00000000000E+00 0. -1.
     999901    1    3    3    0    0  0.49039210085E-01 -0.22704884711E-01 -0.10658637853E+00  0.88807714305E+00  0.88000000000E+00 0. -1.
        -11    1    4    4    0    0 -0.56852688127E-01  0.34314965409E-01  0.92565382682E-01  0.11392258859E+00  0.51100000000E-03 0. -1.
         11    1    4    4    0    0 -0.13126423107E-01 -0.50847902358E-03  0.12564425754E-01  0.18184813720E-01  0.51100000000E-03 0.  1.
</event>
<event>
 8    1  0.1119901E+005  0.1043930E+01  0.7957747E-01            NaN
         13   -1    0    0    0    0  0.00000000000E+00  0.00000000000E+00  0.74505805969E-08  0.10566000000E+00  0.10566000000E+00 0.  1.
     999900   -1    0    0    0    0 -0.00000000000E+00 -0.00000000000E+00 -0.74505805969E-08  0.93827000000E+00  0.93827000000E+00 0. -1.
     999902    2    1    2    0    0  0.18906307779E-03 -0.14589212433E-01  0.19785687437E-01  0.10193463816E+01  0.10190498965E+01 0.  0.
     999903    2    3    3    0    0  0.87310230731E-01  0.39428308487E-01  0.86852412943E-01  0.13086118982E+00  0.20090830397E-01 0.  0.
         14    1    1    2    0    0 -0.18906307779E-03  0.14589212433E-01 -0.19785687437E-01  0.24583618359E-01  0.00000000000E+00 0.  1.
     999901    1    3    3    0    0 -0.87121167653E-01 -0.54017520920E-01 -0.67066725505E-01  0.88848519182E+00  0.88000000000E+00 0. -1.
        -11    1    4    4    0    0  0.11775459253E-01  0.13725909546E-01  0.15690778807E-01  0.23948354725E-01  0.51100000000E-03 0.  1.
         11    1    4    4    0    0  0.75534771478E-01  0.25702398941E-01  0.71161634136E-01  0.10691283509E+00  0.51100000000E-03 0. -1.
</event>
<event>
 8    1  0.1119901E+005  0.1043930E+01  0.7957747E-01            NaN
         13   -1    0    0    0    0  0.00000000000E+00  0.00000000000E+00  0.74505805969E-08  0.10566000000E+00  0.10566000000E+00 0. -1.
     999900   -1    0    0    0    0 -0.00000000000E+00 -0.00000000000E+00 -0.74505805969E-08  0.93827000000E+00  0.93827000000E+00 0.  1.
     999902    2    1    2    0    0  0.35234103624E-03  0.16338502567E-02  0.24284519617E-01  0.10195880300E+01  0.10192974146E+01 0.  0.
     999903    2    3    3    0    0  0.65694069516E-01  0.35887682397E-01  0.10751483560E+00  0.13258738061E+00  0.20404340408E-01 0.  0.
         14    1    1    2    0    0 -0.35234103624E-03 -0.16338502567E-02 -0.24284519617E-01  0.24341970008E-01  0.00000000000E+00 0.  1.
     999901    1    3    3    0    0 -0.65341728480E-01 -0.34253832140E-01 -0.83230315980E-01  0.88700064938E+00  0.88000000000E+00 0.  1.
        -11    1    4    4    0    0  0.30035903846E-01  0.63381635410E-02  0.35140513203E-01  0.46663097048E-01  0.51100000000E-03 0.  1.
         11    1    4    4    0    0  0.35658165671E-01  0.29549518856E-01  0.72374322393E-01  0.85924283567E-01  0.51100000000E-03 0. -1.
</event>
<event>
 8    1  0.1119901E+005  0.1043930E+01  0.7957747E-01            NaN
         13   -1    0    0    0    0  0.00000000000E+00  0.00000000000E+00  0.74505805969E-08  0.10566000000E+00  0.10566000000E+00 0. -1.
     999900   -1    0    0    0    0 -0.00000000000E+00 -0.00000000000E+00 -0.74505805969E-08  0.93827000000E+00  0.93827000000E+00 0.  1.
     999902    2    1    2    0    0  0.46289792445E-03 -0.19471538112E-01  0.13645292061E-01  0.10201487245E+01  0.10198714973E+01 0.  0.
     999903    2    3    3    0    0 -0.18777727251E-01  0.23785520549E-01  0.12643360940E+00  0.13168793224E+00  0.20926057505E-01 0.  0.
         14    1    1    2    0    0 -0.46289792445E-03  0.19471538112E-01 -0.13645292061E-01  0.23781275541E-01  0.00000000000E+00 0.  1.
     999901    1    3    3    0    0  0.19240625175E-01 -0.43257058661E-01 -0.11278831734E+00  0.88846079222E+00  0.88000000000E+00 0.  1.
        -11    1    4    4    0    0 -0.10422342001E-02  0.96502619897E-02  0.72915210634E-01  0.73560198962E-01  0.51100000000E-03 0. -1.
         11    1    4    4    0    0 -0.17735493051E-01  0.14135258559E-01  0.53518398769E-01  0.58127733278E-01  0.51100000000E-03 0.  1.
</event>
<event>
 8    1  0.1119901E+005  0.1043930E+01  0.7957747E-01            NaN
         13   -1    0    0    0    0  0.00000000000E+00  0.00000000000E+00  0.74505805969E-08  0.10566000000E+00  0.10566000000E+00 0. -1.
     999900   -1    0    0    0    0 -0.00000000000E+00 -0.00000000000E+00 -0.74505805969E-08  0.93827000000E+00  0.93827000000E+00 0. -1.
     999902    2    1    2    0    0 -0.62828355509E-02 -0.28422363396E-01  0.50656996133E-03  0.10148170926E+01  0.10143994135E+01 0.  0.
     999903    2    3    3    0    0  0.38041538064E-01 -0.45239834564E-01 -0.11129389164E+00  0.12647773142E+00  0.10792820681E-01 0.  0.
         14    1    1    2    0    0  0.62828355509E-02  0.28422363396E-01 -0.50656996133E-03  0.29112907390E-01  0.00000000000E+00 0. -1.
     999901    1    3    3    0    0 -0.44324373615E-01  0.16817471169E-01  0.11180046160E+00  0.88833936119E+00  0.88000000000E+00 0.  1.
        -11    1    4    4    0    0  0.14969087535E-01 -0.20903540360E-01 -0.38108745724E-01  0.45973570699E-01  0.51100000000E-03 0.  1.
         11    1    4    4    0    0  0.23072450529E-01 -0.24336294204E-01 -0.73185145916E-01  0.80504160717E-01  0.51100000000E-03 0. -1.
</event>
<event>
 8    1  0.1119901E+005  0.1043930E+01  0.7957747E-01            NaN
         13   -1    0    0    0    0  0.00000000000E+00  0.00000000000E+00  0.74505805969E-08  0.10566000000E+00  0.10566000000E+00 0.  1.
     999900   -1    0    0    0    0 -0.00000000000E+00 -0.00000000000E+00 -0.74505805969E-08  0.93827000000E+00  0.93827000000E+00 0. -1.
     999902    2    1    2    0    0  0.13172708332E-01 -0.58208871463E-02  0.18807695440E-01  0.10202417671E+01  0.10199667303E+01 0.  0.
     999903    2    3    3    0    0  0.77943614119E-01  0.41946996820E-01 -0.92420791578E-01  0.12959659793E+00  0.20467485304E-01 0.  0.
         14    1    1    2    0    0 -0.13172708332E-01  0.58208871463E-02 -0.18807695440E-01  0.23688232939E-01  0.00000000000E+00 0. -1.
     999901    1    3    3    0    0 -0.64770905787E-01 -0.47767883966E-01  0.11122848702E+00  0.89064516913E+00  0.88000000000E+00 0.  1.
        -11    1    4    4    0    0  0.47473835678E-01  0.31551154916E-01 -0.70414402312E-01  0.90596300280E-01  0.51100000000E-03 0.  1.
         11    1    4    4    0    0  0.30469778442E-01  0.10395841904E-01 -0.22006389265E-01  0.39000297649E-01  0.51100000000E-03 0. -1.
</event>
<event>
 8    1  0.1119901E+005  0.1043930E+01  0.7957747E-01            NaN
         13   -1    0    0    0    0  0.00000000000E+00  0.00000000000E+00  0.74505805969E-08  0.10566000000E+00  0.10566000000E+00 0. -1.
     999900   -1    0    0    0    0 -0.00000000000E+00 -0.00000000000E+00 -0.74505805969E-08  0.93827000000E+00  0.93827000000E+00 0. -1.
     999902    2    1    2    0    0  0.10894680541E-01  0.39932130309E-02 -0.19542510534E-01  0.10212022739E+01  0.10209493302E+01 0.  0.
     999903    2    3    3    0    0  0.11826146388E+00  0.41593183477E-01 -0.42318164962E-01  0.13358742819E+00  0.18412146383E-01 0.  0.
         14    1    1    2    0    0 -0.10894680541E-01 -0.39932130309E-02  0.19542510534E-01  0.22727726071E-01  0.00000000000E+00 0. -1.
     999901    1    3    3    0    0 -0.10736678334E+00 -0.37599970446E-01  0.22775654428E-01  0.88761484574E+00  0.88000000000E+00 0.  1.
        -11    1    4    4    0    0  0.41835009016E-01  0.24165929680E-01 -0.16473662498E-01  0.51047064693E-01  0.51100000000E-03 0.  1.
         11    1    4    4    0    0  0.76426454862E-01  0.17427253797E-01 -0.25844502463E-01  0.82540363497E-01  0.51100000000E-03 0. -1.
</event>
<event>
 8    1  0.1119901E+005  0.1043930E+01  0.7957747E-01            NaN
         13   -1    0    0    0    0  0.00000000000E+00  0.00000000000E+00  0.74505805969E-08  0.10566000000E+00  0.10566000000E+00 0.  1.
     999900   -1    0    0    0    0 -0.00000000000E+00 -0.00000000000E+00 -0.74505805969E-08  0.93827000000E+00  0.93827000000E+00 0. -1.
     999902    2    1    2    0    0 -0.15897235004E-01  0.41539736723E-02  0.17048859810E-01  0.10202521369E+01  0.10199773437E+01 0.  0.
     999903    2    3    3    0    0 -0.17223607070E-01 -0.10357553820E+00  0.76837782190E-01  0.13166780092E+00  0.20194560501E-01 0.  0.
         14    1    1    2    0    0  0.15897235004E-01 -0.41539736723E-02 -0.17048859810E-01  0.23677863056E-01  0.00000000000E+00 0. -1.
     999901    1    3    3    0    0  0.13263720655E-02  0.10772951187E+00 -0.59788922380E-01  0.88858433603E+00  0.88000000000E+00 0.  1.
        -11    1    4    4    0    0 -0.59953592784E-02 -0.75537743975E-02  0.11327541626E-01  0.14885501698E-01  0.51100000000E-03 0. -1.
         11    1    4    4    0    0 -0.11228247791E-01 -0.96021763799E-01  0.65510240564E-01  0.11678229922E+00  0.51100000000E-03 0.  1.
</event>
<event>
 8    1  0.1119901E+005  0.1043930E+01  0.7957747E-01            NaN
         13   -1    0    0    0    0  0.00000000000E+00  0.00000000000E+00  0.74505805969E-08  0.10566000000E+00  0.10566000000E+00 0.  1.
     999900   -1    0    0    0    0 -0.00000000000E+00 -0.00000000000E+00 -0.74505805969E-08  0.93827000000E+00  0.93827000000E+00 0.  1.
     999902    2    1    2    0    0  0.90985232594E-02 -0.11448502415E-01 -0.29043541423E-01  0.10114126411E+01  0.10108897823E+01 0.  0.
     999903    2    3    3    0    0 -0.63198046951E-01 -0.71406718650E-01 -0.78425447440E-01  0.12503780253E+00  0.19773432917E-01 0.  0.
         14    1    1    2    0    0 -0.90985232594E-02  0.11448502415E-01  0.29043541423E-01  0.32517358925E-01  0.00000000000E+00 0.  1.
     999901    1    3    3    0    0  0.72296570211E-01  0.59958216235E-01  0.49381906017E-01  0.88637483854E+00  0.88000000000E+00 0. -1.
        -11    1    4    4    0    0 -0.25366122132E-01 -0.31448083160E-01 -0.45748958225E-01  0.61038106018E-01  0.51100000000E-03 0.  1.
         11    1    4    4    0    0 -0.37831924819E-01 -0.39958635489E-01 -0.32676489215E-01  0.63999696516E-01  0.51100000000E-03 0. -1.
</event>
<event>
 8    1  0.1119901E+005  0.1043930E+01  0.7957747E-01            NaN
         13   -1    0    0    0    0  0.00000000000E+00  0.00000000000E+00  0.74505805969E-08  0.10566000000E+00  0.10566000000E+00 0. -1.
     999900   -1    0    0    0    0 -0.00000000000E+00 -0.00000000000E+00 -0.74505805969E-08  0.93827000000E+00  0.93827000000E+00 0.  1.
     999902    2    1    2    0    0  0.82004626577E-02 -0.25316508585E-02  0.23512768534E-01  0.10188998756E+01  0.10185923863E+01 0.  0.
     999903    2    3    3    0    0  0.38957732826E-01 -0.95384224495E-01  0.79597617902E-01  0.13170591685E+00  0.19869889971E-01 0.  0.
         14    1    1    2    0    0 -0.82004626577E-02  0.25316508585E-02 -0.23512768534E-01  0.25030124411E-01  0.00000000000E+00 0.  1.
     999901    1    3    3    0    0 -0.30757270168E-01  0.92852573636E-01 -0.56084849368E-01  0.88719395874E+00  0.88000000000E+00 0.  1.
        -11    1    4    4    0    0  0.23004448855E-01 -0.31234849473E-01  0.27897053611E-01  0.47784173216E-01  0.51100000000E-03 0. -1.
         11    1    4    4    0    0  0.15953283971E-01 -0.64149375022E-01  0.51700564291E-01  0.83921743632E-01  0.51100000000E-03 0.  1.
</event>
<event>
 8    1  0.1119901E+005  0.1043930E+01  0.7957747E-01            NaN
         13   -1    0    0    0    0  0.00000000000E+00  0.00000000000E+00  0.74505805969E-08  0.10566000000E+00  0.10566000000E+00 0.  1.
     999900   -1    0    0    0    0 -0.00000000000E+00 -0.00000000000E+00 -0.74505805969E-08  0.93827000000E+00  0.93827000000E+00 0.  1.
     999902    2    1    2    0    0 -0.85394023909E-02  0.22399436677E-01 -0.70369586016E-03  0.10199476868E+01  0.10196656965E+01 0.  0.
     999903    2    3    3    0    0  0.35526593818E-01 -0.11273253361E+00  0.43023437270E-01  0.12747106329E+00  0.20666224125E-01 0.  0.
         14    1    1    2    0    0  0.85394023909E-02 -0.22399436677E-01  0.70369586016E-03  0.23982313160E-01  0.00000000000E+00 0.  1.
     999901    1    3    3    0    0 -0.44065996208E-01  0.13513197028E+00 -0.43727133130E-01  0.89247662355E+00  0.88000000000E+00 0.  1.
        -11    1    4    4    0    0  0.14810234185E-01 -0.35062092063E-01  0.23541584077E-01  0.44756682610E-01  0.51100000000E-03 0.  1.
         11    1    4    4    0    0  0.20716359633E-01 -0.77670441545E-01  0.19481853193E-01  0.82714380678E-01  0.51100000000E-03 0. -1.
</event>
<event>
 8    1  0.1119901E+005  0.1043930E+01  0.7957747E-01            NaN
         13   -1    0    0    0    0  0.00000000000E+00  0.00000000000E+00  0.74505805969E-08  0.10566000000E+00  0.10566000000E+00 0. -1.
     999900   -1    0    0    0    0 -0.00000000000E+00 -0.00000000000E+00 -0.74505805969E-08  0.93827000000E+00  0.93827000000E+00 0. -1.
     999902    2    1    2    0    0 -0.49342739959E-02  0.21078370847E-01  0.10882510320E-01  0.10197003940E+01  0.10194124875E+01 0.  0.
     999903    2    3    3    0    0 -0.16563274915E-01 -0.37750090634E-01 -0.11960265321E+00  0.12806010807E+00  0.19879265681E-01 0.  0.
         14    1    1    2    0    0  0.49342739959E-02 -0.21078370847E-01 -0.10882510320E-01  0.24229606028E-01  0.00000000000E+00 0.  1.
     999901    1    3    3    0    0  0.11629000919E-01  0.58828461481E-01  0.13048516353E+00  0.89164028590E+00  0.88000000000E+00 0.  1.
        -11    1    4    4    0    0  0.11664074317E-02 -0.19974635879E-01 -0.63843686426E-01  0.66907578063E-01  0.51100000000E-03 0.  1.
         11    1    4    4    0    0 -0.17729682346E-01 -0.17775454755E-01 -0.55758966788E-01  0.61152530006E-01  0.51100000000E-03 0. -1.
</event>
<event>
 8    1  0.1119901E+005  0.1043930E+01  0.7957747E-01            NaN
         13   -1    0    0    0    0  0.00000000000E+00  0.00000000000E+00  0.74505805969E-08  0.10566000000E+00  0.10566000000E+00 0.  1.
     999900   -1    0    0    0    0 -0.00000000000E+00 -0.00000000000E+00 -0.74505805969E-08  0.93827000000E+00  0.93827000000E+00 0. -1.
     999902    2    1    2    0    0  0.19045976403E-01 -0.16470435459E-02  0.12121232633E-01  0.10212940496E+01  0.10210431673E+01 0.  0.
     999903    2    3    3    0    0  0.58165974752E-01 -0.11607138361E+00  0.19683261135E-01  0.13299202431E+00  0.21061838709E-01 0.  0.
         14    1    1    2    0    0 -0.19045976403E-01  0.16470435459E-02 -0.12121232633E-01  0.22635950391E-01  0.00000000000E+00 0.  1.
     999901    1    3    3    0    0 -0.39119998349E-01  0.11442434006E+00 -0.75620285016E-02  0.88830202530E+00  0.88000000000E+00 0. -1.
        -11    1    4    4    0    0  0.47124918969E-01 -0.93276086591E-01  0.72098190298E-02  0.10475413562E+00  0.51100000000E-03 0. -1.
         11    1    4    4    0    0  0.11041055782E-01 -0.22795297020E-01  0.12473442105E-01  0.28237888695E-01  0.51100000000E-03 0.  1.
</event>
<event>
 8    1  0.1119901E+005  0.1043930E+01  0.7957747E-01            NaN
         13   -1    0    0    0    0  0.00000000000E+00  0.00000000000E+00  0.74505805969E-08  0.10566000000E+00  0.10566000000E+00 0. -1.
     999900   -1    0    0    0    0 -0.00000000000E+00 -0.00000000000E+00 -0.74505805969E-08  0.93827000000E+00  0.93827000000E+00 0.  1.
     999902    2    1    2    0    0 -0.17136780760E-01 -0.14517240156E-01  0.73649618125E-02  0.10202939644E+01  0.10200201525E+01 0.  0.
     999903    2    3    3    0    0 -0.92622985624E-02  0.12659628825E+00  0.99110887934E-02  0.12901313428E+00  0.20826635899E-01 0.  0.
         14    1    1    2    0    0  0.17136780760E-01  0.14517240156E-01 -0.73649618125E-02  0.23636035604E-01  0.00000000000E+00 0. -1.
     999901    1    3    3    0    0 -0.78744821974E-02 -0.14111352840E+00 -0.25461269809E-02  0.89128083012E+00  0.88000000000E+00 0.  1.
        -11    1    4    4    0    0 -0.48537730094E-02  0.65551994883E-02  0.29493415421E-02  0.86884687540E-02  0.51100000000E-03 0. -1.
         11    1    4    4    0    0 -0.44085255530E-02  0.12004108876E+00  0.69617472513E-02  0.12032466553E+00  0.51100000000E-03 0.  1.
</event>
<event>
 8    1  0.1119901E+005  0.1043930E+01  0.7957747E-01            NaN
         13   -1    0    0    0    0  0.00000000000E+00  0.00000000000E+00  0.74505805969E-08  0.10566000000E+00  0.10566000000E+00 0. -1.
     999900   -1    0    0    0    0 -0.00000000000E+00 -0.00000000000E+00 -0.74505805969E-08  0.93827000000E+00  0.93827000000E+00 0.  1.
     999902    2    1    2    0    0 -0.58516512759E-02  0.74180212724E-02  0.20862445743E-01  0.10210278057E+01  0.10207709192E+01 0.  0.
     999903    2    3    3    0    0 -0.50611595139E-01 -0.29474045073E-01 -0.11310119419E+00  0.12900160990E+00  0.20476384775E-01 0.  0.
         14    1    1    2    0    0  0.58516512759E-02 -0.74180212724E-02 -0.20862445743E-01  0.22902194319E-01  0.00000000000E+00 0.  1.
     999901    1    3    3    0    0  0.44759943863E-01  0.36892066345E-01  0.13396363994E+00  0.89202619578E+00  0.88000000000E+00 0. -1.
        -11    1    4    4    0    0 -0.40804697392E-01 -0.31471146846E-01 -0.10009965531E+00  0.11258622708E+00  0.51100000000E-03 0. -1.
         11    1    4    4    0    0 -0.98068977475E-02  0.19971017735E-02 -0.13001538880E-01  0.16415382821E-01  0.51100000000E-03 0.  1.
</event>
<event>
 8    1  0.1119901E+005  0.1043930E+01  0.7957747E-01            NaN
         13   -1    0    0    0    0  0.00000000000E+00  0.00000000000E+00  0.74505805969E-08  0.10566000000E+00  0.10566000000E+00 0. -1.
     999900   -1    0    0    0    0 -0.00000000000E+00 -0.00000000000E+00 -0.74505805969E-08  0.93827000000E+00  0.93827000000E+00 0. -1.
     999902    2    1    2    0    0 -0.18294176368E-01 -0.12755305774E-01 -0.29227397524E-02  0.10214373985E+01  0.10211897189E+01 0.  0.
     999903    2    3    3    0    0 -0.64941330102E-01  0.98556028773E-01 -0.54490199648E-01  0.13170408280E+00  0.21121467898E-01 0.  0.
         14    1    1    2    0    0  0.18294176368E-01  0.12755305774E-01  0.29227397524E-02  0.22492601495E-01  0.00000000000E+00 0. -1.
     999901    1    3    3    0    0  0.46647153734E-01 -0.11131133455E+00  0.51567459896E-01  0.88973331570E+00  0.88000000000E+00 0.  1.
        -11    1    4    4    0    0 -0.24014265103E-01  0.50287284442E-01 -0.17558766905E-01  0.58430020720E-01  0.51100000000E-03 0.  1.
         11    1    4    4    0    0 -0.40927064999E-01  0.48268744331E-01 -0.36931432743E-01  0.73274062083E-01  0.51100000000E-03 0. -1.
</event>
<event>
 8    1  0.1119901E+005  0.1043930E+01  0.7957747E-01            NaN
         13   -1    0    0    0    0  0.00000000000E+00  0.00000000000E+00  0.74505805969E-08  0.10566000000E+00  0.10566000000E+00 0.  1.
     999900   -1    0    0    0    0 -0.00000000000E+00 -0.00000000000E+00 -0.74505805969E-08  0.93827000000E+00  0.93827000000E+00 0.  1.
     999902    2    1    2    0    0  0.80397253695E-02  0.22163470242E-01  0.12012912292E-02  0.10203228041E+01  0.10200496679E+01 0.  0.
     999903    2    3    3    0    0 -0.11843233895E+00 -0.40607054540E-01 -0.20889868458E-01  0.12879414996E+00  0.21826467212E-01 0.  0.
         14    1    1    2    0    0 -0.80397253695E-02 -0.22163470242E-01 -0.12012912292E-02  0.23607195890E-01  0.00000000000E+00 0.  1.
     999901    1    3    3    0    0  0.12647206432E+00  0.62770524782E-01  0.22091159687E-01  0.89152865415E+00  0.88000000000E+00 0. -1.
        -11    1    4    4    0    0 -0.47704735560E-01 -0.26307447954E-01 -0.14347585128E-01  0.56337713237E-01  0.51100000000E-03 0.  1.
         11    1    4    4    0    0 -0.70727603394E-01 -0.14299606586E-01 -0.65422833294E-02  0.72456436723E-01  0.51100000000E-03 0. -1.
</event>
<event>
 8    1  0.1119901E+005  0.1043930E+01  0.7957747E-01            NaN
         13   -1    0    0    0    0  0.00000000000E+00  0.00000000000E+00  0.74505805969E-08  0.10566000000E+00  0.10566000000E+00 0.  1.
     999900   -1    0    0    0    0 -0.00000000000E+00 -0.00000000000E+00 -0.74505805969E-08  0.93827000000E+00  0.93827000000E+00 0. -1.
     999902    2    1    2    0    0 -0.21968368559E-01 -0.97469611461E-02  0.55409894721E-02  0.10192659567E+01  0.10189675046E+01 0.  0.
     999903    2    3    3    0    0 -0.11459978412E+00  0.62936359249E-01 -0.47048832830E-02  0.13136482360E+00  0.11852641715E-01 0.  0.
         14    1    1    2    0    0  0.21968368559E-01  0.97469611461E-02 -0.55409894721E-02  0.24664043323E-01  0.00000000000E+00 0. -1.
     999901    1    3    3    0    0  0.92631415565E-01 -0.72683320395E-01  0.10245872755E-01  0.88790113308E+00  0.88000000000E+00 0.  1.
        -11    1    4    4    0    0 -0.82547412979E-01  0.41639462212E-01 -0.76118059642E-02  0.92769180841E-01  0.51100000000E-03 0. -1.
         11    1    4    4    0    0 -0.32052371144E-01  0.21296897037E-01  0.29069226812E-02  0.38595642758E-01  0.51100000000E-03 0.  1.
</event>
<event>
 8    1  0.1119901E+005  0.1043930E+01  0.7957747E-01            NaN
         13   -1    0    0    0    0  0.00000000000E+00  0.00000000000E+00  0.74505805969E-08  0.10566000000E+00  0.10566000000E+00 0.  1.
     999900   -1    0    0    0    0 -0.00000000000E+00 -0.00000000000E+00 -0.74505805969E-08  0.93827000000E+00  0.93827000000E+00 0. -1.
     999902    2    1    2    0    0 -0.20103012245E-01  0.98281464546E-02 -0.56133490189E-02  0.10208598190E+01  0.10205991068E+01 0.  0.
     999903    2    3    3    0    0  0.77173196938E-01 -0.45174190740E-01 -0.91613319668E-01  0.12963374616E+00  0.20383767244E-01 0.  0.
         14    1    1    2    0    0  0.20103012245E-01 -0.98281464546E-02  0.56133490189E-02  0.23070180998E-01  0.00000000000E+00 0. -1.
     999901    1    3    3    0    0 -0.97276209183E-01  0.55002337195E-01  0.85999970649E-01  0.89122607285E+00  0.88000000000E+00 0.  1.
        -11    1    4    4    0    0  0.17222278115E-01 -0.96793695746E-02 -0.94463604462E-02  0.21904152700E-01  0.51100000000E-03 0. -1.
         11    1    4    4    0    0  0.59950918823E-01 -0.35494821166E-01 -0.82166959222E-01  0.10772959346E+00  0.51100000000E-03 0.  1.
</event>
<event>
 8    1  0.1119901E+005  0.1043930E+01  0.7957747E-01            NaN
         13   -1    0    0    0    0  0.00000000000E+00  0.00000000000E+00  0.74505805969E-08  0.10566000000E+00  0.10566000000E+00 0. -1.
     999900   -1    0    0    0    0 -0.00000000000E+00 -0.00000000000E+00 -0.74505805969E-08  0.93827000000E+00  0.93827000000E+00 0.  1.
     999902    2    1    2    0    0  0.21303824734E-01  0.76898424427E-02  0.69452010501E-02  0.10202398661E+01  0.10199647847E+01 0.  0.
     999903    2    3    3    0    0  0.37385356244E-01 -0.10969694582E+00 -0.55794217088E-01  0.13008566134E+00  0.19447360834E-01 0.  0.
         14    1    1    2    0    0 -0.21303824734E-01 -0.76898424427E-02 -0.69452010501E-02  0.23690133869E-01  0.00000000000E+00 0.  1.
     999901    1    3    3    0    0 -0.16081531509E-01  0.11738678826E+00  0.62739418138E-01  0.89015420479E+00  0.88000000000E+00 0. -1.
        -11    1    4    4    0    0  0.11718645393E-01 -0.61306314402E-01 -0.34462226524E-01  0.71300049182E-01  0.51100000000E-03 0.  1.
         11    1    4    4    0    0  0.25666710850E-01 -0.48390631416E-01 -0.21331990564E-01  0.58785612161E-01  0.51100000000E-03 0. -1.
</event>
<event>
 8    1  0.1119901E+005  0.1043930E+01  0.7957747E-01            NaN
         13   -1    0    0    0    0  0.00000000000E+00  0.00000000000E+00  0.74505805969E-08  0.10566000000E+00  0.10566000000E+00 0.  1.
     999900   -1    0    0    0    0 -0.00000000000E+00 -0.00000000000E+00 -0.74505805969E-08  0.93827000000E+00  0.93827000000E+00 0. -1.
     999902    2    1    2    0    0  0.19157570786E-01 -0.10140534446E-02 -0.13313340289E-01  0.10205786435E+01  0.10203114630E+01 0.  0.
     999903    2    3    3    0    0  0.17418165351E-02 -0.92778817394E-01 -0.92026410860E-01  0.13214191083E+00  0.19536668609E-01 0.  0.
         14    1    1    2    0    0 -0.19157570786E-01  0.10140534446E-02  0.13313340289E-01  0.23351356544E-01  0.00000000000E+00 0.  1.
     999901    1    3    3    0    0  0.17415754251E-01  0.91764763950E-01  0.78713070572E-01  0.88843673263E+00  0.88000000000E+00 0.  1.
        -11    1    4    4    0    0  0.17082522550E-02 -0.79521683607E-01 -0.67782132722E-01  0.10450499953E+00  0.51100000000E-03 0.  1.
         11    1    4    4    0    0  0.33564280134E-04 -0.13257133788E-01 -0.24244278138E-01  0.27636911301E-01  0.51100000000E-03 0. -1.
</event>
<event>
 8    1  0.1119901E+005  0.1043930E+01  0.7957747E-01            NaN
         13   -1    0    0    0    0  0.00000000000E+00  0.00000000000E+00  0.74505805969E-08  0.10566000000E+00  0.10566000000E+00 0. -1.
     999900   -1    0    0    0    0 -0.00000000000E+00 -0.00000000000E+00 -0.74505805969E-08  0.93827000000E+00  0.93827000000E+00 0. -1.
     999902    2    1    2    0    0 -0.72831469571E-02  0.18273600632E-01 -0.13160211478E-01  0.10202623031E+01  0.10199877486E+01 0.  0.
     999903    2    3    3    0    0  0.96914067019E-01  0.86654265944E-01 -0.39858671609E-02  0.13143321753E+00  0.18907811636E-01 0.  0.
         14    1    1    2    0    0  0.72831469571E-02 -0.18273600632E-01  0.13160211478E-01  0.23667696884E-01  0.00000000000E+00 0.  1.
     999901    1    3    3    0    0 -0.10419721398E+00 -0.68380665312E-01 -0.91743443172E-02  0.88882908559E+00  0.88000000000E+00 0.  1.
        -11    1    4    4    0    0  0.44769130340E-02  0.12269206604E-02  0.26883075031E-02  0.53885251092E-02  0.51100000000E-03 0.  1.
         11    1    4    4    0    0  0.92437153985E-01  0.85427345284E-01 -0.66741746640E-02  0.12604469242E+00  0.51100000000E-03 0. -1.
</event>
<event>
 8    1  0.1119901E+005  0.1043930E+01  0.7957747E-01            NaN
         13   -1    0    0    0    0  0.00000000000E+00  0.00000000000E+00  0.74505805969E-08  0.10566000000E+00  0.10566000000E+00 0. -1.
     999900   -1    0    0    0    0 -0.00000000000E+00 -0.00000000000E+00 -0.74505805969E-08  0.93827000000E+00  0.93827000000E+00 0. -1.
     999902    2    1    2    0    0 -0.30384470281E-02  0.54929522673E-02  0.28186830117E-01  0.10150526373E+01  0.10146417862E+01 0.  0.
     999903    2    3    3    0    0  0.12391153042E+00  0.90867339360E-03  0.91643362730E-02  0.12572751808E+00  0.19197153039E-01 0.  0.
         14    1    1    2    0    0  0.30384470281E-02 -0.54929522673E-02 -0.28186830117E-01  0.28877362708E-01  0.00000000000E+00 0.  1.
     999901    1    3    3    0    0 -0.12694997745E+00  0.45842788737E-02  0.19022493844E-01  0.88932511921E+00  0.88000000000E+00 0.  1.
        -11    1    4    4    0    0  0.31429406573E-01 -0.39429805004E-02  0.96449377163E-02  0.33115564880E-01  0.51100000000E-03 0. -1.
         11    1    4    4    0    0  0.92482123848E-01  0.48516538940E-02 -0.48060144325E-03  0.92611953201E-01  0.51100000000E-03 0.  1.
</event>
<event>
 8    1  0.1119901E+005  0.1043930E+01  0.7957747E-01            NaN
         13   -1    0    0    0    0  0.00000000000E+00  0.00000000000E+00  0.74505805969E-08  0.10566000000E+00  0.10566000000E+00 0.  1.
     999900   -1    0    0    0    0 -0.00000000000E+00 -0.00000000000E+00 -0.74505805969E-08  0.93827000000E+00  0.93827000000E+00 0.  1.
     999902    2    1    2    0    0 -0.60993536992E-02  0.14284805579E-01  0.17846401328E-01  0.10202709251E+01  0.10199965729E+01 0.  0.
     999903    2    3    3    0    0 -0.64697083056E-01 -0.51415389790E-01 -0.96346958953E-01  0.12853647296E+00  0.20239405081E-01 0.  0.
         14    1    1    2    0    0  0.60993536992E-02 -0.14284805579E-01 -0.17846401328E-01  0.23659074926E-01  0.00000000000E+00 0. -1.
     999901    1    3    3    0    0  0.58597729357E-01  0.65700195369E-01  0.11419336028E+00  0.89173445212E+00  0.88000000000E+00 0.  1.
        -11    1    4    4    0    0 -0.17842960731E-01 -0.25536042590E-01 -0.29584894512E-01  0.42964960411E-01  0.51100000000E-03 0. -1.
         11    1    4    4    0    0 -0.46854122325E-01 -0.25879347199E-01 -0.66762064442E-01  0.85571512548E-01  0.51100000000E-03 0.  1.
</event>
<event>
 8    1  0.1119901E+005  0.1043930E+01  0.7957747E-01            NaN
         13   -1    0    0    0    0  0.00000000000E+00  0.00000000000E+00  0.74505805969E-08  0.10566000000E+00  0.10566000000E+00 0. -1.
     999900   -1    0    0    0    0 -0.00000000000E+00 -0.00000000000E+00 -0.74505805969E-08  0.93827000000E+00  0.93827000000E+00 0. -1.
     999902    2    1    2    0    0  0.36286724564E-02  0.17617809424E-01 -0.20133550761E-01  0.10169315864E+01  0.10165731341E+01 0.  0.
     999903    2    3    3    0    0  0.44385004415E-01  0.10701462858E+00 -0.57620615895E-01  0.13067081778E+00  0.18236444215E-01 0.  0.
         14    1    1    2    0    0 -0.36286724564E-02 -0.17617809424E-01  0.20133550761E-01  0.26998413637E-01  0.00000000000E+00 0. -1.
     999901    1    3    3    0    0 -0.40756331958E-01 -0.89396819154E-01  0.37487065134E-01  0.88626076858E+00  0.88000000000E+00 0.  1.
        -11    1    4    4    0    0  0.29173582944E-01  0.57048163068E-01 -0.23350642569E-01  0.68199006449E-01  0.51100000000E-03 0. -1.
         11    1    4    4    0    0  0.15211421471E-01  0.49966465509E-01 -0.34269973326E-01  0.62471811335E-01  0.51100000000E-03 0.  1.
</event>
<event>
 8    1  0.1119901E+005  0.1043930E+01  0.7957747E-01            NaN
         13   -1    0    0    0    0  0.00000000000E+00  0.00000000000E+00  0.74505805969E-08  0.10566000000E+00  0.10566000000E+00 0.  1.
     999900   -1    0    0    0    0 -0.00000000000E+00 -0.00000000000E+00 -0.74505805969E-08  0.93827000000E+00  0.93827000000E+00 0. -1.
     999902    2    1    2    0    0  0.21102246878E-01  0.11061527446E-01 -0.21393190865E-02  0.10200084846E+01  0.10197279391E+01 0.  0.
     999903    2    3    3    0    0 -0.90667080085E-01 -0.87234948775E-01  0.47335168546E-02  0.12748295804E+00  0.19976053426E-01 0.  0.
         14    1    1    2    0    0 -0.21102246878E-01 -0.11061527446E-01  0.21393190865E-02  0.23921515398E-01  0.00000000000E+00 0.  1.
     999901    1    3    3    0    0  0.11176932696E+00  0.98296476222E-01 -0.68728359410E-02  0.89252552656E+00  0.88000000000E+00 0.  1.
        -11    1    4    4    0    0 -0.18749631488E-01 -0.12500308029E-01 -0.56725282759E-02  0.23243172757E-01  0.51100000000E-03 0.  1.
         11    1    4    4    0    0 -0.71917448597E-01 -0.74734640746E-01  0.10406045130E-01  0.10423978529E+00  0.51100000000E-03 0. -1.
</event>
<event>
 8    1  0.1119901E+005  0.1043930E+01  0.7957747E-01            NaN
         13   -1    0    0    0    0  0.00000000000E+00  0.00000000000E+00  0.74505805969E-08  0.10566000000E+00  0.10566000000E+00 0.  1.
     999900   -1    0    0    0    0 -0.00000000000E+00 -0.00000000000E+00 -0.74505805969E-08  0.93827000000E+00  0.93827000000E+00 0.  1.
     999902    2    1    2    0    0 -0.43156655361E-03  0.11209499322E-01  0.19688415551E-01  0.10212700611E+01  0.10210186408E+01 0.  0.
     999903    2    3    3    0    0 -0.45378797661E-01 -0.90735366740E-01  0.81819928488E-01  0.13207191995E+00  0.21362333357E-01 0.  0.
         14    1    1    2    0    0  0.43156655361E-03 -0.11209499322E-01 -0.19688415551E-01  0.22659938915E-01  0.00000000000E+00 0. -1.
     999901    1    3    3    0    0  0.44947231107E-01  0.10194486606E+00 -0.62131512937E-01  0.88919814114E+00  0.88000000000E+00 0.  1.
        -11    1    4    4    0    0 -0.14002609664E-01 -0.41834573306E-01  0.46384113728E-01  0.64015246062E-01  0.51100000000E-03 0. -1.
         11    1    4    4    0    0 -0.31376187997E-01 -0.48900793435E-01  0.35435814760E-01  0.68056673886E-01  0.51100000000E-03 0.  1.
</event>
<event>
 8    1  0.1119901E+005  0.1043930E+01  0.7957747E-01            NaN
         13   -1    0    0    0    0  0.00000000000E+00  0.00000000000E+00  0.74505805969E-08  0.10566000000E+00  0.10566000000E+00 0. -1.
     999900   -1    0    0    0    0 -0.00000000000E+00 -0.00000000000E+00 -0.74505805969E-08  0.93827000000E+00  0.93827000000E+00 0.  1.
     999902    2    1    2    0    0  0.19992024645E-01  0.81588449039E-02  0.10210183695E-01  0.10200449492E+01  0.10197652685E+01 0.  0.
     999903    2    3    3    0    0 -0.34416462372E-01  0.12279954774E+00  0.21016140549E-01  0.13087705568E+00  0.20564623312E-01 0.  0.
         14    1    1    2    0    0 -0.19992024645E-01 -0.81588449039E-02 -0.10210183695E-01  0.23885050778E-01  0.00000000000E+00 0.  1.
     999901    1    3    3    0    0  0.54408487017E-01 -0.11464070284E+00 -0.10805956854E-01  0.88916789354E+00  0.88000000000E+00 0. -1.
        -11    1    4    4    0    0 -0.12026511392E-01  0.67506358694E-01  0.33214249782E-02  0.68651572635E-01  0.51100000000E-03 0. -1.
         11    1    4    4    0    0 -0.22389950980E-01  0.55293189046E-01  0.17694715570E-01  0.62225483043E-01  0.51100000000E-03 0.  1.
</event>
<event>
 8    1  0.1119901E+005  0.1043930E+01  0.7957747E-01            NaN
         13   -1    0    0    0    0  0.00000000000E+00  0.00000000000E+00  0.74505805969E-08  0.10566000000E+00  0.10566000000E+00 0. -1.
     999900   -1    0    0    0    0 -0.00000000000E+00 -0.00000000000E+00 -0.74505805969E-08  0.93827000000E+00  0.93827000000E+00 0.  1.
     999902    2    1    2    0    0  0.22053177116E-02  0.15553279056E-01 -0.16823386708E-01  0.10209127400E+01  0.10206532362E+01 0.  0.
     999903    2    3    3    0    0 -0.28213369397E-01 -0.95348899046E-02 -0.12807450717E+00  0.13303238518E+00  0.20189794022E-01 0.  0.
         14    1    1    2    0    0 -0.22053177116E-02 -0.15553279056E-01  0.16823386708E-01  0.23017259957E-01  0.00000000000E+00 0. -1.
     999901    1    3    3    0    0  0.30418687109E-01  0.25088168961E-01  0.11125112046E+00  0.88788035486E+00  0.88000000000E+00 0. -1.
        -11    1    4    4    0    0 -0.11666909338E-01 -0.26613278457E-02 -0.91724296754E-01  0.92503011710E-01  0.51100000000E-03 0. -1.
         11    1    4    4    0    0 -0.16546460060E-01 -0.68735620589E-02 -0.36350210412E-01  0.40529373470E-01  0.51100000000E-03 0.  1.
</event>
<event>
 8    1  0.1119901E+005  0.1043930E+01  0.7957747E-01            NaN
         13   -1    0    0    0    0  0.00000000000E+00  0.00000000000E+00  0.74505805969E-08  0.10566000000E+00  0.10566000000E+00 0.  1.
     999900   -1    0    0    0    0 -0.00000000000E+00 -0.00000000000E+00 -0.74505805969E-08  0.93827000000E+00  0.93827000000E+00 0. -1.
     999902    2    1    2    0    0 -0.73239886137E-02 -0.14592907441E-01 -0.16063436838E-01  0.10210252459E+01  0.10207683013E+01 0.  0.
     999903    2    3    3    0    0  0.90834324736E-01 -0.62116529296E-02  0.89684166043E-01  0.12923611421E+00  0.19216253404E-01 0.  0.
         14    1    1    2    0    0  0.73239886137E-02  0.14592907441E-01  0.16063436838E-01  0.22904754088E-01  0.00000000000E+00 0.  1.
     999901    1    3    3    0    0 -0.98158313349E-01 -0.83812545113E-02 -0.10574760288E+00  0.89178913170E+00  0.88000000000E+00 0. -1.
        -11    1    4    4    0    0  0.68170547608E-01 -0.95782476189E-02  0.75998544723E-01  0.10254270481E+00  0.51100000000E-03 0. -1.
         11    1    4    4    0    0  0.22663777127E-01  0.33665946893E-02  0.13685621320E-01  0.26693409400E-01  0.51100000000E-03 0.  1.
</event>
<event>
 8    1  0.1119901E+005  0.1043930E+01  0.7957747E-01            NaN
         13   -1    0    0    0    0  0.00000000000E+00  0.00000000000E+00  0.74505805969E-08  0.10566000000E+00  0.10566000000E+00 0. -1.
     999900   -1    0    0    0    0 -0.00000000000E+00 -0.00000000000E+00 -0.74505805969E-08  0.93827000000E+00  0.93827000000E+00 0.  1.
     999902    2    1    2    0    0  0.13843579356E-01  0.11884940394E-01 -0.14243354826E-01  0.10207833014E+01  0.10205208370E+01 0.  0.
     999903    2    3    3    0    0  0.11842421098E+00 -0.42483214329E-01  0.33187012773E-01  0.13165865071E+00  0.20087439988E-01 0.  0.
         14    1    1    2    0    0 -0.13843579356E-01 -0.11884940394E-01  0.14243354826E-01  0.23146698561E-01  0.00000000000E+00 0. -1.
     999901    1    3    3    0    0 -0.10458063162E+00  0.54368154723E-01 -0.47430367599E-01  0.88912465073E+00  0.88000000000E+00 0.  1.
        -11    1    4    4    0    0  0.33057790478E-01 -0.10535062391E-01  0.13211180837E-03  0.34699908147E-01  0.51100000000E-03 0. -1.
         11    1    4    4    0    0  0.85366420500E-01 -0.31948151938E-01  0.33054900964E-01  0.96958742566E-01  0.51100000000E-03 0.  1.
</event>
<event>
 8    1  0.1119901E+005  0.1043930E+01  0.7957747E-01            NaN
         13   -1    0    0    0    0  0.00000000000E+00  0.00000000000E+00  0.74505805969E-08  0.10566000000E+00  0.10566000000E+00 0. -1.
     999900   -1    0    0    0    0 -0.00000000000E+00 -0.00000000000E+00 -0.74505805969E-08  0.93827000000E+00  0.93827000000E+00 0.  1.
     999902    2    1    2    0    0  0.24621348760E-03 -0.20022957494E-01  0.13942005980E-01  0.10195300209E+01  0.10192380019E+01 0.  0.
     999903    2    3    3    0    0 -0.95243913157E-01  0.74428315062E-01  0.40298140814E-01  0.12894928174E+00  0.19824228393E-01 0.  0.
         14    1    1    2    0    0 -0.24621348760E-03  0.20022957494E-01 -0.13942005980E-01  0.24399979071E-01  0.00000000000E+00 0.  1.
     999901    1    3    3    0    0  0.95490126645E-01 -0.94451272556E-01 -0.26356134834E-01  0.89058073919E+00  0.88000000000E+00 0.  1.
        -11    1    4    4    0    0 -0.67226707604E-01  0.43261008922E-01  0.32598464833E-01  0.86335775543E-01  0.51100000000E-03 0. -1.
         11    1    4    4    0    0 -0.28017205554E-01  0.31167306140E-01  0.76996759806E-02  0.42613506195E-01  0.51100000000E-03 0.  1.
</event>
<event>
 8    1  0.1119901E+005  0.1043930E+01  0.7957747E-01            NaN
         13   -1    0    0    0    0  0.00000000000E+00  0.00000000000E+00  0.74505805969E-08  0.10566000000E+00  0.10566000000E+00 0.  1.
     999900   -1    0    0    0    0 -0.00000000000E+00 -0.00000000000E+00 -0.74505805969E-08  0.93827000000E+00  0.93827000000E+00 0. -1.
     999902    2    1    2    0    0 -0.18799125065E-01  0.83720237205E-02  0.12658955488E-01  0.10197691424E+01  0.10194828870E+01 0.  0.
     999903    2    3    3    0    0 -0.97895572135E-02 -0.12008503113E+00 -0.41093289523E-01  0.12877436630E+00  0.19440391953E-01 0.  0.
         14    1    1    2    0    0  0.18799125065E-01 -0.83720237205E-02 -0.12658955488E-01  0.24160857568E-01  0.00000000000E+00 0. -1.
     999901    1    3    3    0    0 -0.90095678513E-02  0.12845705485E+00  0.53752245011E-01  0.89099477613E+00  0.88000000000E+00 0.  1.
        -11    1    4    4    0    0 -0.49049862332E-03 -0.88948617125E-01 -0.35615343388E-01  0.95816548064E-01  0.51100000000E-03 0.  1.
         11    1    4    4    0    0 -0.92990585902E-02 -0.31136414007E-01 -0.54779461355E-02  0.32957818234E-01  0.51100000000E-03 0. -1.
</event>
<event>
 8    1  0.1119901E+005  0.1043930E+01  0.7957747E-01            NaN
         13   -1    0    0    0    0  0.00000000000E+00  0.00000000000E+00  0.74505805969E-08  0.10566000000E+00  0.10566000000E+00 0.  1.
     999900   -1    0    0    0    0 -0.00000000000E+00 -0.00000000000E+00 -0.74505805969E-08  0.93827000000E+00  0.93827000000E+00 0. -1.
     999902    2    1    2    0    0  0.13410618854E-01  0.36139184727E-02  0.19281211442E-01  0.10201672094E+01  0.10198904180E+01 0.  0.
     999903    2    3    3    0    0  0.10608703624E+00  0.74661303978E-01 -0.14324461972E-01  0.13181705845E+00  0.18487214947E-01 0.  0.
         14    1    1    2    0    0 -0.13410618854E-01 -0.36139184727E-02 -0.19281211442E-01  0.23762790650E-01  0.00000000000E+00 0. -1.
     999901    1    3    3    0    0 -0.92676417386E-01 -0.71047385506E-01  0.33605673414E-01  0.88835015090E+00  0.88000000000E+00 0.  1.
        -11    1    4    4    0    0  0.73445442819E-01  0.59607478593E-01 -0.15477058272E-01  0.95849282881E-01  0.51100000000E-03 0.  1.
         11    1    4    4    0    0  0.32641593422E-01  0.15053825385E-01  0.11525963004E-02  0.35967775565E-01  0.51100000000E-03 0. -1.
</event>
<event>
 8    1  0.1119901E+005  0.1043930E+01  0.7957747E-01            NaN
         13   -1    0    0    0    0  0.00000000000E+00  0.00000000000E+00  0.74505805969E-08  0.10566000000E+00  0.10566000000E+00 0. -1.
     999900   -1    0    0    0    0 -0.00000000000E+00 -0.00000000000E+00 -0.74505805969E-08  0.93827000000E+00  0.93827000000E+00 0.  1.
     999902    2    1    2    0    0 -0.21699633933E-01  0.90408749050E-02  0.25657270762E-03  0.10204209090E+01  0.10201500645E+01 0.  0.
     999903    2    3    3    0    0 -0.38178392129E-01 -0.41702279641E-01 -0.11655822094E+00  0.13109975594E+00  0.20116097663E-01 0.  0.
         14    1    1    2    0    0  0.21699633933E-01 -0.90408749050E-02 -0.25657270762E-03  0.23509091038E-01  0.00000000000E+00 0.  1.
     999901    1    3    3    0    0  0.16478758196E-01  0.50743154546E-01  0.11681479365E+00  0.88932115303E+00  0.88000000000E+00 0. -1.
        -11    1    4    4    0    0 -0.13821368430E-01 -0.61023059946E-02 -0.45782598551E-01  0.48213855009E-01  0.51100000000E-03 0. -1.
         11    1    4    4    0    0 -0.24357023699E-01 -0.35599973646E-01 -0.70775622388E-01  0.82885900927E-01  0.51100000000E-03 0.  1.
</event>
<event>
 8    1  0.1247860E+005  0.1043930E+01  0.7957747E-01            NaN
         13   -1    0    0    0    0  0.00000000000E+00  0.00000000000E+00  0.74505805969E-08  0.10566000000E+00  0.10566000000E+00 0.  1.
     999900   -1    0    0    0    0 -0.00000000000E+00 -0.00000000000E+00 -0.74505805969E-08  0.93827000000E+00  0.93827000000E+00 0. -1.
     999902    2    1    2    0    0 -0.20145006553E-02  0.12999163876E-01 -0.22735632896E-01  0.10176631868E+01  0.10173241451E+01 0.  0.
     999903    2    3    3    0    0 -0.97589503118E-01 -0.79243100818E-01 -0.84149982447E-02  0.12757987770E+00  0.20065713384E-01 0.  0.
         14    1    1    2    0    0  0.20145006553E-02 -0.12999163876E-01  0.22735632896E-01  0.26266813235E-01  0.00000000000E+00 0.  1.
     999901    1    3    3    0    0  0.95575002462E-01  0.92242264694E-01 -0.14320634651E-01  0.89008330906E+00  0.88000000000E+00 0. -1.
        -11    1    4    4    0    0 -0.75334469835E-01 -0.56316995861E-01  0.16595058697E-02  0.94073914816E-01  0.51100000000E-03 0.  1.
         11    1    4    4    0    0 -0.22255033283E-01 -0.22926104956E-01 -0.10074504114E-01  0.33505962888E-01  0.51100000000E-03 0. -1.
</event>
<event>
 8    1  0.1119901E+005  0.1043930E+01  0.7957747E-01            NaN
         13   -1    0    0    0    0  0.00000000000E+00  0.00000000000E+00  0.74505805969E-08  0.10566000000E+00  0.10566000000E+00 0.  1.
     999900   -1    0    0    0    0 -0.00000000000E+00 -0.00000000000E+00 -0.74505805969E-08  0.93827000000E+00  0.93827000000E+00 0. -1.
     999902    2    1    2    0    0 -0.88159156250E-02 -0.20873542381E-01 -0.78678542330E-02  0.10199439985E+01  0.10196619203E+01 0.  0.
     999903    2    3    3    0    0  0.85134899251E-01 -0.23145514493E-03  0.93076638865E-01  0.12896552393E+00  0.26848482607E-01 0.  0.
         14    1    1    2    0    0  0.88159156250E-02  0.20873542381E-01  0.78678542330E-02  0.23986001544E-01  0.00000000000E+00 0.  1.
     999901    1    3    3    0    0 -0.93950814876E-01 -0.20642087236E-01 -0.10094449310E+00  0.89097847453E+00  0.88000000000E+00 0. -1.
        -11    1    4    4    0    0  0.20047662924E-01 -0.80667838386E-02  0.12082258844E-01  0.24763357809E-01  0.51100000000E-03 0.  1.
         11    1    4    4    0    0  0.65087236327E-01  0.78353286937E-02  0.80994380021E-01  0.10420216612E+00  0.51100000000E-03 0. -1.
</event>
<event>
 8    1  0.1119901E+005  0.1043930E+01  0.7957747E-01            NaN
         13   -1    0    0    0    0  0.00000000000E+00  0.00000000000E+00  0.74505805969E-08  0.10566000000E+00  0.10566000000E+00 0.  1.
     999900   -1    0    0    0    0 -0.00000000000E+00 -0.00000000000E+00 -0.74505805969E-08  0.93827000000E+00  0.93827000000E+00 0.  1.
     999902    2    1    2    0    0 -0.52526356382E-02  0.20292366297E-01  0.11972172300E-01  0.10197907535E+01  0.10195050160E+01 0.  0.
     999903    2    3    3    0    0 -0.24496387951E-01 -0.59784999457E-01  0.11144986799E+00  0.13036480469E+00  0.19989748500E-01 0.  0.
         14    1    1    2    0    0  0.52526356382E-02 -0.20292366297E-01 -0.11972172300E-01  0.24139246481E-01  0.00000000000E+00 0. -1.
     999901    1    3    3    0    0  0.19243752313E-01  0.80077365754E-01 -0.99477695687E-01  0.88942594883E+00  0.88000000000E+00 0.  1.
        -11    1    4    4    0    0 -0.21216458615E-01 -0.53381989652E-01  0.10809268136E+00  0.12240941067E+00  0.51100000000E-03 0. -1.
         11    1    4    4    0    0 -0.32799293358E-02 -0.64030098052E-02  0.33571866257E-02  0.79553940225E-02  0.51100000000E-03 0.  1.
</event>
<event>
 8    1  0.1119901E+005  0.1043930E+01  0.7957747E-01            NaN
         13   -1    0    0    0    0  0.00000000000E+00  0.00000000000E+00  0.74505805969E-08  0.10566000000E+00  0.10566000000E+00 0. -1.
     999900   -1    0    0    0    0 -0.00000000000E+00 -0.00000000000E+00 -0.74505805969E-08  0.93827000000E+00  0.93827000000E+00 0.  1.
     999902    2    1    2    0    0  0.42183872180E-02 -0.20301888529E-01 -0.47233184901E-02  0.10226633311E+01  0.10224421830E+01 0.  0.
     999903    2    3    3    0    0 -0.12811997528E+00 -0.30905543284E-02  0.25540129077E-01  0.13208736664E+00  0.19248237381E-01 0.  0.
         14    1    1    2    0    0 -0.42183872180E-02  0.20301888529E-01  0.47233184901E-02  0.21266668901E-01  0.00000000000E+00 0. -1.
     999901    1    3    3    0    0  0.13233836249E+00 -0.17211334201E-01 -0.30263447567E-01  0.89057596446E+00  0.88000000000E+00 0.  1.
        -11    1    4    4    0    0 -0.32477300768E-01  0.66164263852E-03  0.15024083280E-01  0.35793812811E-01  0.51100000000E-03 0.  1.
         11    1    4    4    0    0 -0.95642674508E-01 -0.37521969670E-02  0.10516045797E-01  0.96293553830E-01  0.51100000000E-03 0. -1.
</event>
<event>
 8    1  0.1119901E+005  0.1043930E+01  0.7957747E-01            NaN
         13   -1    0    0    0    0  0.00000000000E+00  0.00000000000E+00  0.74505805969E-08  0.10566000000E+00  0.10566000000E+00 0. -1.
     999900   -1    0    0    0    0 -0.00000000000E+00 -0.00000000000E+00 -0.74505805969E-08  0.93827000000E+00  0.93827000000E+00 0.  1.
     999902    2    1    2    0    0 -0.21296566034E-01  0.87812464801E-02 -0.36114002908E-02  0.10206127054E+01  0.10203463129E+01 0.  0.
     999903    2    3    3    0    0 -0.11940980629E+00  0.56844479768E-01 -0.70981274524E-02  0.13384980612E+00  0.19374995874E-01 0.  0.
         14    1    1    2    0    0  0.21296566034E-01 -0.87812464801E-02  0.36114002908E-02  0.23317294583E-01  0.00000000000E+00 0.  1.
     999901    1    3    3    0    0  0.98113240259E-01 -0.48063233288E-01  0.34867271616E-02  0.88676289930E+00  0.88000000000E+00 0.  1.
        -11    1    4    4    0    0 -0.71069067727E-01  0.29185685909E-01  0.44874255145E-02  0.76961124981E-01  0.51100000000E-03 0.  1.
         11    1    4    4    0    0 -0.48340738567E-01  0.27658793859E-01 -0.11585552967E-01  0.56888681137E-01  0.51100000000E-03 0. -1.
</event>
<event>
 8    1  0.1119901E+005  0.1043930E+01  0.7957747E-01            NaN
         13   -1    0    0    0    0  0.00000000000E+00  0.00000000000E+00  0.74505805969E-08  0.10566000000E+00  0.10566000000E+00 0. -1.
     999900   -1    0    0    0    0 -0.00000000000E+00 -0.00000000000E+00 -0.74505805969E-08  0.93827000000E+00  0.93827000000E+00 0. -1.
     999902    2    1    2    0    0 -0.13625052742E-01  0.87247503406E-02 -0.15099918944E-01  0.10217992322E+01  0.10215595431E+01 0.  0.
     999903    2    3    3    0    0  0.78888146097E-01  0.69459391628E-01 -0.78275859720E-01  0.13262062917E+00  0.20326691496E-01 0.  0.
         14    1    1    2    0    0  0.13625052742E-01 -0.87247503406E-02  0.15099918944E-01  0.22130767787E-01  0.00000000000E+00 0. -1.
     999901    1    3    3    0    0 -0.92513198839E-01 -0.60734641288E-01  0.63175940776E-01  0.88917860304E+00  0.88000000000E+00 0.  1.
        -11    1    4    4    0    0  0.38885246300E-01  0.27672609462E-01 -0.46417319536E-01  0.66578257473E-01  0.51100000000E-03 0.  1.
         11    1    4    4    0    0  0.40002899797E-01  0.41786782167E-01 -0.31858540184E-01  0.66042371699E-01  0.51100000000E-03 0. -1.
</event>
<event>
 8    1  0.1119901E+005  0.1043930E+01  0.7957747E-01            NaN
         13   -1    0    0    0    0  0.00000000000E+00  0.00000000000E+00  0.74505805969E-08  0.10566000000E+00  0.10566000000E+00 0.  1.
     999900   -1    0    0    0    0 -0.00000000000E+00 -0.00000000000E+00 -0.74505805969E-08  0.93827000000E+00  0.93827000000E+00 0.  1.
     999902    2    1    2    0    0  0.79585281124E-02 -0.15715691567E-01  0.15942433930E-01  0.10201711631E+01  0.10198944650E+01 0.  0.
     999903    2    3    3    0    0  0.12240291072E+00 -0.45737160335E-01  0.34622461722E-02  0.13216521696E+00  0.19526828681E-01 0.  0.
         14    1    1    2    0    0 -0.79585281124E-02  0.15715691567E-01 -0.15942433930E-01  0.23758836898E-01  0.00000000000E+00 0.  1.
     999901    1    3    3    0    0 -0.11444438260E+00  0.30021468768E-01  0.12480187758E-01  0.88800594614E+00  0.88000000000E+00 0.  1.
        -11    1    4    4    0    0  0.50136689549E-01 -0.29054002611E-01  0.18959657953E-02  0.57979983736E-01  0.51100000000E-03 0. -1.
         11    1    4    4    0    0  0.72266221167E-01 -0.16683157723E-01  0.15662803768E-02  0.74185233224E-01  0.51100000000E-03 0.  1.
</event>
<event>
 8    1  0.1119901E+005  0.1043930E+01  0.7957747E-01            NaN
         13   -1    0    0    0    0  0.00000000000E+00  0.00000000000E+00  0.74505805969E-08  0.10566000000E+00  0.10566000000E+00 0.  1.
     999900   -1    0    0    0    0 -0.00000000000E+00 -0.00000000000E+00 -0.74505805969E-08  0.93827000000E+00  0.93827000000E+00 0. -1.
     999902    2    1    2    0    0  0.18215568507E-01 -0.43993044213E-02 -0.13732011880E-01  0.10206979324E+01  0.10204335060E+01 0.  0.
     999903    2    3    3    0    0 -0.12453866082E-01 -0.11862303957E+00 -0.51977867032E-01  0.13196263921E+00  0.22043484042E-01 0.  0.
         14    1    1    2    0    0 -0.18215568507E-01  0.43993044213E-02  0.13732011880E-01  0.23232067616E-01  0.00000000000E+00 0. -1.
     999901    1    3    3    0    0  0.30669434589E-01  0.11422373515E+00  0.38245855152E-01  0.88873529317E+00  0.88000000000E+00 0.  1.
        -11    1    4    4    0    0  0.14956181172E-02 -0.61080672547E-01 -0.34770505624E-01  0.70301739770E-01  0.51100000000E-03 0. -1.
         11    1    4    4    0    0 -0.13949484199E-01 -0.57542367028E-01 -0.17207361408E-01  0.61660899444E-01  0.51100000000E-03 0.  1.
</event>
<event>
 8    1  0.1119901E+005  0.1043930E+01  0.7957747E-01            NaN
         13   -1    0    0    0    0  0.00000000000E+00  0.00000000000E+00  0.74505805969E-08  0.10566000000E+00  0.10566000000E+00 0.  1.
     999900   -1    0    0    0    0 -0.00000000000E+00 -0.00000000000E+00 -0.74505805969E-08  0.93827000000E+00  0.93827000000E+00 0.  1.
     999902    2    1    2    0    0  0.16076811329E-01  0.18441205805E-01 -0.58635396237E-03  0.10194578578E+01  0.10191640879E+01 0.  0.
     999903    2    3    3    0    0  0.34844549778E-01 -0.35980977129E-01  0.11768319238E+00  0.12968165693E+00  0.21429535973E-01 0.  0.
         14    1    1    2    0    0 -0.16076811329E-01 -0.18441205805E-01  0.58635396237E-03  0.24472142224E-01  0.00000000000E+00 0. -1.
     999901    1    3    3    0    0 -0.18767738449E-01  0.54422182933E-01 -0.11826954634E+00  0.88977620085E+00  0.88000000000E+00 0.  1.
        -11    1    4    4    0    0  0.94704972998E-02 -0.38341988844E-02  0.93291379956E-02  0.13845047379E-01  0.51100000000E-03 0.  1.
         11    1    4    4    0    0  0.25374052479E-01 -0.32146778244E-01  0.10835405438E+00  0.11583660955E+00  0.51100000000E-03 0. -1.
</event>
<event>
 8    1  0.1119901E+005  0.1043930E+01  0.7957747E-01            NaN
         13   -1    0    0    0    0  0.00000000000E+00  0.00000000000E+00  0.74505805969E-08  0.10566000000E+00  0.10566000000E+00 0.  1.
     999900   -1    0    0    0    0 -0.00000000000E+00 -0.00000000000E+00 -0.74505805969E-08  0.93827000000E+00  0.93827000000E+00 0. -1.
     999902    2    1    2    0    0  0.14238139659E-01  0.13789000040E-01 -0.13747239177E-01  0.10198084800E+01  0.10195231670E+01 0.  0.
     999903    2    3    3    0    0  0.17300740426E-01 -0.51481907235E-01 -0.11739194476E+00  0.13131993427E+00  0.22679375011E-01 0.  0.
         14    1    1    2    0    0 -0.14238139659E-01 -0.13789000040E-01  0.13747239177E-01  0.24121520020E-01  0.00000000000E+00 0.  1.
     999901    1    3    3    0    0 -0.30626007670E-02  0.65270907276E-01  0.10364470558E+00  0.88848854571E+00  0.88000000000E+00 0.  1.
        -11    1    4    4    0    0  0.64968307805E-02 -0.74631167300E-03 -0.18829249282E-01  0.19939095788E-01  0.51100000000E-03 0. -1.
         11    1    4    4    0    0  0.10803909645E-01 -0.50735595562E-01 -0.98562695477E-01  0.11138083848E+00  0.51100000000E-03 0.  1.
</event>
<event>
 8    1  0.1119901E+005  0.1043930E+01  0.7957747E-01            NaN
         13   -1    0    0    0    0  0.00000000000E+00  0.00000000000E+00  0.74505805969E-08  0.10566000000E+00  0.10566000000E+00 0. -1.
     999900   -1    0    0    0    0 -0.00000000000E+00 -0.00000000000E+00 -0.74505805969E-08  0.93827000000E+00  0.93827000000E+00 0. -1.
     999902    2    1    2    0    0 -0.68490646005E-02  0.36476548800E-02 -0.23252782307E-01  0.10194165964E+01  0.10191218230E+01 0.  0.
     999903    2    3    3    0    0  0.84353382828E-02 -0.11641685684E+00  0.49295185274E-01  0.12817459359E+00  0.19356437229E-01 0.  0.
         14    1    1    2    0    0  0.68490646005E-02 -0.36476548800E-02  0.23252782307E-01  0.24513403620E-01  0.00000000000E+00 0. -1.
     999901    1    3    3    0    0 -0.15284402883E-01  0.12006451172E+00 -0.72547967581E-01  0.89124200279E+00  0.88000000000E+00 0.  1.
        -11    1    4    4    0    0  0.12730154134E-01 -0.80404484864E-01  0.40140524483E-01  0.90765967396E-01  0.51100000000E-03 0.  1.
         11    1    4    4    0    0 -0.42948158515E-02 -0.36012371971E-01  0.91546607915E-02  0.37408626189E-01  0.51100000000E-03 0. -1.
</event>
<event>
 8    1  0.1119901E+005  0.1043930E+01  0.7957747E-01            NaN
         13   -1    0    0    0    0  0.00000000000E+00  0.00000000000E+00  0.74505805969E-08  0.10566000000E+00  0.10566000000E+00 0.  1.
     999900   -1    0    0    0    0 -0.00000000000E+00 -0.00000000000E+00 -0.74505805969E-08  0.93827000000E+00  0.93827000000E+00 0. -1.
     999902    2    1    2    0    0  0.16951753819E-01  0.15674378227E-01 -0.26648193125E-02  0.10206888866E+01  0.10204242519E+01 0.  0.
     999903    2    3    3    0    0  0.11738229914E+00 -0.54518788041E-01  0.15946279186E-01  0.13200460744E+00  0.20494637456E-01 0.  0.
         14    1    1    2    0    0 -0.16951753819E-01 -0.15674378227E-01  0.26648193125E-02  0.23241113405E-01  0.00000000000E+00 0.  1.
     999901    1    3    3    0    0 -0.10043054532E+00  0.70193166268E-01 -0.18611098499E-01  0.88868427915E+00  0.88000000000E+00 0.  1.
        -11    1    4    4    0    0  0.78643505403E-01 -0.35834367072E-01  0.87663962811E-03  0.86428770809E-01  0.51100000000E-03 0.  1.
         11    1    4    4    0    0  0.38738793741E-01 -0.18684420969E-01  0.15069639558E-01  0.45575836633E-01  0.51100000000E-03 0. -1.
</event>
<event>
 8    1  0.1119901E+005  0.1043930E+01  0.7957747E-01            NaN
         13   -1    0    0    0    0  0.00000000000E+00  0.00000000000E+00  0.74505805969E-08  0.10566000000E+00  0.10566000000E+00 0.  1.
     999900   -1    0    0    0    0 -0.00000000000E+00 -0.00000000000E+00 -0.74505805969E-08  0.93827000000E+00  0.93827000000E+00 0. -1.
     999902    2    1    2    0    0  0.16703686964E-01 -0.23227001606E-02  0.18115574900E-01  0.10191796031E+01  0.10188790317E+01 0.  0.
     999903    2    3    3    0    0  0.69319517262E-01  0.10113967172E+00 -0.37806281061E-01  0.12979771548E+00  0.19588348263E-01 0.  0.
         14    1    1    2    0    0 -0.16703686964E-01  0.23227001606E-02 -0.18115574900E-01  0.24750396929E-01  0.00000000000E+00 0. -1.
     999901    1    3    3    0    0 -0.52615830298E-01 -0.10346237188E+00  0.55921855961E-01  0.88938188759E+00  0.88000000000E+00 0.  1.
        -11    1    4    4    0    0  0.26898330283E-01  0.39440023323E-01 -0.48480248357E-02  0.47987499180E-01  0.51100000000E-03 0. -1.
         11    1    4    4    0    0  0.42421186979E-01  0.61699648399E-01 -0.32958256226E-01  0.81810216304E-01  0.51100000000E-03 0.  1.
</event>
<event>
 8    1  0.1119901E+005  0.1043930E+01  0.7957747E-01            NaN
         13   -1    0    0    0    0  0.00000000000E+00  0.00000000000E+00  0.74505805969E-08  0.10566000000E+00  0.10566000000E+00 0.  1.
     999900   -1    0    0    0    0 -0.00000000000E+00 -0.00000000000E+00 -0.74505805969E-08  0.93827000000E+00  0.93827000000E+00 0.  1.
     999902    2    1    2    0    0 -0.13430009658E-01 -0.14436421460E-01 -0.15044806910E-01  0.10191283541E+01  0.10188265213E+01 0.  0.
     999903    2    3    3    0    0 -0.86291788041E-01 -0.72081501748E-01  0.63739692167E-01  0.13073722891E+00  0.19683980510E-01 0.  0.
         14    1    1    2    0    0  0.13430009658E-01  0.14436421460E-01  0.15044806910E-01  0.24801645892E-01  0.00000000000E+00 0. -1.
     999901    1    3    3    0    0  0.72861778384E-01  0.57645080288E-01 -0.78784499077E-01  0.88839112520E+00  0.88000000000E+00 0.  1.
        -11    1    4    4    0    0 -0.56063941361E-01 -0.58413273601E-01  0.44853510494E-01  0.92560113323E-01  0.51100000000E-03 0.  1.
         11    1    4    4    0    0 -0.30227846680E-01 -0.13668228148E-01  0.18886181673E-01  0.38177115591E-01  0.51100000000E-03 0. -1.
</event>
<event>
 8    1  0.1119901E+005  0.1043930E+01  0.7957747E-01            NaN
         13   -1    0    0    0    0  0.00000000000E+00  0.00000000000E+00  0.74505805969E-08  0.10566000000E+00  0.10566000000E+00 0. -1.
     999900   -1    0    0    0    0 -0.00000000000E+00 -0.00000000000E+00 -0.74505805969E-08  0.93827000000E+00  0.93827000000E+00 0.  1.
     999902    2    1    2    0    0  0.20822687036E-01  0.25597587812E-02  0.10222835272E-01  0.10205924118E+01  0.10203255500E+01 0.  0.
     999903    2    3    3    0    0 -0.55936689223E-02 -0.10796424503E+00  0.72092927044E-01  0.13113117741E+00  0.17618973387E-01 0.  0.
         14    1    1    2    0    0 -0.20822687036E-01 -0.25597587812E-02 -0.10222835272E-01  0.23337588166E-01  0.00000000000E+00 0.  1.
     999901    1    3    3    0    0  0.26416355959E-01  0.11052400381E+00 -0.61870091772E-01  0.88946123442E+00  0.88000000000E+00 0. -1.
        -11    1    4    4    0    0 -0.11013663462E-01 -0.92046426283E-01  0.61584905944E-01  0.11129603378E+00  0.51100000000E-03 0.  1.
         11    1    4    4    0    0  0.54199945402E-02 -0.15917818747E-01  0.10508021100E-01  0.19835143632E-01  0.51100000000E-03 0. -1.
</event>
<event>
 8    1  0.1119901E+005  0.1043930E+01  0.7957747E-01            NaN
         13   -1    0    0    0    0  0.00000000000E+00  0.00000000000E+00  0.74505805969E-08  0.10566000000E+00  0.10566000000E+00 0. -1.
     999900   -1    0    0    0    0 -0.00000000000E+00 -0.00000000000E+00 -0.74505805969E-08  0.93827000000E+00  0.93827000000E+00 0.  1.
     999902    2    1    2    0    0  0.63519406502E-02 -0.11538204284E-01 -0.20566250110E-01  0.10195077161E+01  0.10192151565E+01 0.  0.
     999903    2    3    3    0    0 -0.43015863505E-01 -0.11327418291E+00 -0.47889502099E-01  0.13185127943E+00  0.20247233094E-01 0.  0.
         14    1    1    2    0    0 -0.63519406502E-02  0.11538204284E-01  0.20566250110E-01  0.24422283917E-01  0.00000000000E+00 0.  1.
     999901    1    3    3    0    0  0.49367804156E-01  0.10173597863E+00  0.27323251988E-01  0.88765643665E+00  0.88000000000E+00 0. -1.
        -11    1    4    4    0    0  0.21218675444E-02 -0.75316488500E-02 -0.23460589335E-02  0.81849355401E-02  0.51100000000E-03 0.  1.
         11    1    4    4    0    0 -0.45137731050E-01 -0.10574253406E+00 -0.45543443165E-01  0.12366634389E+00  0.51100000000E-03 0. -1.
</event>
<event>
 8    1  0.1119901E+005  0.1043930E+01  0.7957747E-01            NaN
         13   -1    0    0    0    0  0.00000000000E+00  0.00000000000E+00  0.74505805969E-08  0.10566000000E+00  0.10566000000E+00 0.  1.
     999900   -1    0    0    0    0 -0.00000000000E+00 -0.00000000000E+00 -0.74505805969E-08  0.93827000000E+00  0.93827000000E+00 0.  1.
     999902    2    1    2    0    0 -0.22311569847E-01  0.29342791813E-03  0.99022172606E-02  0.10195179916E+01  0.10192256811E+01 0.  0.
     999903    2    3    3    0    0 -0.62319965529E-01  0.11136499827E+00 -0.22396882115E-01  0.13104694686E+00  0.19640290438E-01 0.  0.
         14    1    1    2    0    0  0.22311569847E-01 -0.29342791813E-03 -0.99022172606E-02  0.24412008431E-01  0.00000000000E+00 0. -1.
     999901    1    3    3    0    0  0.40008395682E-01 -0.11107157036E+00  0.32299099376E-01  0.88847104471E+00  0.88000000000E+00 0. -1.
        -11    1    4    4    0    0 -0.14488634657E-01  0.45139659666E-01 -0.91659457374E-02  0.48288560667E-01  0.51100000000E-03 0. -1.
         11    1    4    4    0    0 -0.47831330872E-01  0.66225338608E-01 -0.13230936378E-01  0.82758386192E-01  0.51100000000E-03 0.  1.
</event>
<event>
 8    1  0.1119901E+005  0.1043930E+01  0.7957747E-01            NaN
         13   -1    0    0    0    0  0.00000000000E+00  0.00000000000E+00  0.74505805969E-08  0.10566000000E+00  0.10566000000E+00 0. -1.
     999900   -1    0    0    0    0 -0.00000000000E+00 -0.00000000000E+00 -0.74505805969E-08  0.93827000000E+00  0.93827000000E+00 0. -1.
     999902    2    1    2    0    0 -0.17537442842E-01  0.16543833491E-01 -0.20317224123E-03  0.10198198028E+01  0.10195347609E+01 0.  0.
     999903    2    3    3    0    0 -0.74160228956E-01  0.80630163815E-01 -0.72116423244E-01  0.13275457790E+00  0.20543528788E-01 0.  0.
         14    1    1    2    0    0  0.17537442842E-01 -0.16543833491E-01  0.20317224123E-03  0.24110197157E-01  0.00000000000E+00 0. -1.
     999901    1    3    3    0    0  0.56622786114E-01 -0.64086330325E-01  0.71913251002E-01  0.88706522495E+00  0.88000000000E+00 0.  1.
        -11    1    4    4    0    0 -0.34095858368E-01  0.51848256775E-01 -0.37866107014E-01  0.72697128347E-01  0.51100000000E-03 0.  1.
         11    1    4    4    0    0 -0.40064370587E-01  0.28781907040E-01 -0.34250316230E-01  0.60057449548E-01  0.51100000000E-03 0. -1.
</event>
<event>
 7    1  0.1119901E+005  0.1043930E+01  0.7957747E-01            NaN
         13   -1    0    0    0    0  0.00000000000E+00  0.00000000000E+00  0.74505805969E-08  0.10566000000E+00  0.10566000000E+00 0. -1.
     999900   -1    0    0    0    0 -0.00000000000E+00 -0.00000000000E+00 -0.74505805969E-08  0.93827000000E+00  0.93827000000E+00 0.  1.
     999902    2    1    2    0    0 -0.95457392247E-02 -0.69984248732E-02 -0.21616557822E-01  0.10192850277E+01  0.10189870426E+01 0.  0.
         14    1    1    2    0    0  0.95457392247E-02  0.69984248732E-02  0.21616557822E-01  0.24644972309E-01  0.00000000000E+00 0. -1.
     999901    1    3    3    0    0 -0.64422741648E-01  0.97419144611E-01 -0.47977535051E-01  0.88901216147E+00  0.88000000000E+00 0.  1.
        -11    1    3    3    0    0  0.35047288601E-01 -0.42666172944E-01  0.34185777143E-01  0.64943384820E-01  0.51100000000E-03 0. -1.
         11    1    3    3    0    0  0.19829713823E-01 -0.61751396541E-01 -0.78247999139E-02  0.65329481398E-01  0.51100000000E-03 0.  1.
</event>
<event>
 8    1  0.1119901E+005  0.1043930E+01  0.7957747E-01            NaN
         13   -1    0    0    0    0  0.00000000000E+00  0.00000000000E+00  0.74505805969E-08  0.10566000000E+00  0.10566000000E+00 0. -1.
     999900   -1    0    0    0    0 -0.00000000000E+00 -0.00000000000E+00 -0.74505805969E-08  0.93827000000E+00  0.93827000000E+00 0. -1.
     999902    2    1    2    0    0 -0.16176233118E-01 -0.12481066155E-02  0.17799574664E-01  0.10198457075E+01  0.10195612850E+01 0.  0.
     999903    2    3    3    0    0 -0.64543372119E-01  0.10058309166E+00 -0.48638103279E-01  0.13016995861E+00  0.17197320165E-01 0.  0.
         14    1    1    2    0    0  0.16176233118E-01  0.12481066155E-02 -0.17799574664E-01  0.24084292521E-01  0.00000000000E+00 0.  1.
     999901    1    3    3    0    0  0.48367139001E-01 -0.10183119828E+00  0.66437677943E-01  0.88967574887E+00  0.88000000000E+00 0.  1.
        -11    1    4    4    0    0 -0.50716126410E-01  0.90026414628E-01 -0.41115846192E-01  0.11120995791E+00  0.51100000000E-03 0. -1.
         11    1    4    4    0    0 -0.13827245709E-01  0.10556677034E-01 -0.75222570870E-02  0.18960000701E-01  0.51100000000E-03 0.  1.
</event>
<event>
 8    1  0.1119901E+005  0.1043930E+01  0.7957747E-01            NaN
         13   -1    0    0    0    0  0.00000000000E+00  0.00000000000E+00  0.74505805969E-08  0.10566000000E+00  0.10566000000E+00 0. -1.
     999900   -1    0    0    0    0 -0.00000000000E+00 -0.00000000000E+00 -0.74505805969E-08  0.93827000000E+00  0.93827000000E+00 0.  1.
     999902    2    1    2    0    0  0.49498379048E-02 -0.42904861099E-02  0.20932450927E-01  0.10219965400E+01  0.10217611517E+01 0.  0.
     999903    2    3    3    0    0 -0.97461023269E-01 -0.28440811252E-01  0.84357872055E-01  0.13346178730E+00  0.19704499228E-01 0.  0.
         14    1    1    2    0    0 -0.49498379048E-02  0.42904861099E-02 -0.20932450927E-01  0.21933460013E-01  0.00000000000E+00 0.  1.
     999901    1    3    3    0    0  0.10241086117E+00  0.24150325142E-01 -0.63425421128E-01  0.88853475269E+00  0.88000000000E+00 0.  1.
        -11    1    4    4    0    0 -0.58772923703E-01 -0.21993944506E-01  0.40835706975E-01  0.74871932262E-01  0.51100000000E-03 0.  1.
         11    1    4    4    0    0 -0.38688099566E-01 -0.64468667465E-02  0.43522165080E-01  0.58589855036E-01  0.51100000000E-03 0. -1.
</event>
<event>
 8    1  0.1119901E+005  0.1043930E+01  0.7957747E-01            NaN
         13   -1    0    0    0    0  0.00000000000E+00  0.00000000000E+00  0.74505805969E-08  0.10566000000E+00  0.10566000000E+00 0. -1.
     999900   -1    0    0    0    0 -0.00000000000E+00 -0.00000000000E+00 -0.74505805969E-08  0.93827000000E+00  0.93827000000E+00 0. -1.
     999902    2    1    2    0    0  0.70597037901E-02 -0.19659826969E-01  0.10971772100E-01  0.10203349158E+01  0.10200620630E+01 0.  0.
     999903    2    3    3    0    0  0.68140973546E-01  0.73600922339E-01 -0.78317754523E-01  0.12881873065E+00  0.20007664705E-01 0.  0.
         14    1    1    2    0    0 -0.70597037901E-02  0.19659826969E-01 -0.10971772100E-01  0.23595084172E-01  0.00000000000E+00 0.  1.
     999901    1    3    3    0    0 -0.61081269756E-01 -0.93260749308E-01  0.89289526623E-01  0.89151618518E+00  0.88000000000E+00 0.  1.
        -11    1    4    4    0    0  0.35610127811E-01  0.50719172949E-01 -0.41236530398E-01  0.74439426836E-01  0.51100000000E-03 0.  1.
         11    1    4    4    0    0  0.32530845735E-01  0.22881749390E-01 -0.37081224125E-01  0.54379303811E-01  0.51100000000E-03 0. -1.
</event>
<event>
 8    1  0.1119901E+005  0.1043930E+01  0.7957747E-01            NaN
         13   -1    0    0    0    0  0.00000000000E+00  0.00000000000E+00  0.74505805969E-08  0.10566000000E+00  0.10566000000E+00 0. -1.
     999900   -1    0    0    0    0 -0.00000000000E+00 -0.00000000000E+00 -0.74505805969E-08  0.93827000000E+00  0.93827000000E+00 0. -1.
     999902    2    1    2    0    0 -0.48270333409E-02 -0.22415812419E-01  0.36460855791E-02  0.10207122732E+01  0.10204481770E+01 0.  0.
     999903    2    3    3    0    0  0.49961139888E-01 -0.10872229712E+00  0.55381850614E-01  0.13328501275E+00  0.19521574080E-01 0.  0.
         14    1    1    2    0    0  0.48270333409E-02  0.22415812419E-01 -0.36460855791E-02  0.23217726791E-01  0.00000000000E+00 0. -1.
     999901    1    3    3    0    0 -0.54788173229E-01  0.86306484706E-01 -0.51735765035E-01  0.88742726046E+00  0.88000000000E+00 0. -1.
        -11    1    4    4    0    0  0.16490493703E-01 -0.40120793945E-01  0.30385100546E-01  0.52963477469E-01  0.51100000000E-03 0. -1.
         11    1    4    4    0    0  0.33470646184E-01 -0.68601503180E-01  0.24996750068E-01  0.80321535278E-01  0.51100000000E-03 0.  1.
</event>
<event>
 8    1  0.1119901E+005  0.1043930E+01  0.7957747E-01            NaN
         13   -1    0    0    0    0  0.00000000000E+00  0.00000000000E+00  0.74505805969E-08  0.10566000000E+00  0.10566000000E+00 0. -1.
     999900   -1    0    0    0    0 -0.00000000000E+00 -0.00000000000E+00 -0.74505805969E-08  0.93827000000E+00  0.93827000000E+00 0.  1.
     999902    2    1    2    0    0 -0.65325248323E-02  0.13696272061E-01  0.20190522490E-01  0.10186729426E+01  0.10183597817E+01 0.  0.
     999903    2    3    3    0    0  0.88740126548E-01  0.61604139668E-01  0.71092175339E-01  0.13077485154E+00  0.19444390379E-01 0.  0.
         14    1    1    2    0    0  0.65325248323E-02 -0.13696272061E-01 -0.20190522490E-01  0.25257057379E-01  0.00000000000E+00 0.  1.
     999901    1    3    3    0    0 -0.95272651381E-01 -0.47907867607E-01 -0.50901652850E-01  0.88789809108E+00  0.88000000000E+00 0.  1.
        -11    1    4    4    0    0  0.58087735157E-01  0.28989958960E-01  0.44533072956E-01  0.78727748629E-01  0.51100000000E-03 0.  1.
         11    1    4    4    0    0  0.30652391391E-01  0.32614180708E-01  0.26559102383E-01  0.52047102913E-01  0.51100000000E-03 0. -1.
</event>
<event>
 8    1  0.1119901E+005  0.1043930E+01  0.7957747E-01            NaN
         13   -1    0    0    0    0  0.00000000000E+00  0.00000000000E+00  0.74505805969E-08  0.10566000000E+00  0.10566000000E+00 0. -1.
     999900   -1    0    0    0    0 -0.00000000000E+00 -0.00000000000E+00 -0.74505805969E-08  0.93827000000E+00  0.93827000000E+00 0.  1.
     999902    2    1    2    0    0 -0.28351622881E-02  0.17715071402E-01 -0.97270803282E-02  0.10235222076E+01  0.10233187340E+01 0.  0.
     999903    2    3    3    0    0 -0.38533492681E-01  0.21374915430E-03  0.12512131847E+00  0.13236298626E+00  0.19486919934E-01 0.  0.
         14    1    1    2    0    0  0.28351622881E-02 -0.17715071402E-01  0.97270803282E-02  0.20407792425E-01  0.00000000000E+00 0. -1.
     999901    1    3    3    0    0  0.35698330393E-01  0.17501322247E-01 -0.13484839880E+00  0.89115922131E+00  0.88000000000E+00 0.  1.
        -11    1    4    4    0    0  0.12101554591E-02  0.29066266076E-02  0.67052098674E-02  0.74252215345E-02  0.51100000000E-03 0. -1.
         11    1    4    4    0    0 -0.39743648140E-01 -0.26928774533E-02  0.11841610861E+00  0.12493776473E+00  0.51100000000E-03 0.  1.
</event>
<event>
 8    1  0.1119901E+005  0.1043930E+01  0.7957747E-01            NaN
         13   -1    0    0    0    0  0.00000000000E+00  0.00000000000E+00  0.74505805969E-08  0.10566000000E+00  0.10566000000E+00 0.  1.
     999900   -1    0    0    0    0 -0.00000000000E+00 -0.00000000000E+00 -0.74505805969E-08  0.93827000000E+00  0.93827000000E+00 0. -1.
     999902    2    1    2    0    0  0.43017913860E-02  0.21836361260E-01  0.27570112106E-02  0.10215038279E+01  0.10212576253E+01 0.  0.
     999903    2    3    3    0    0 -0.70253262094E-01 -0.45778903251E-01  0.98262159481E-01  0.13063261765E+00  0.19447364580E-01 0.  0.
         14    1    1    2    0    0 -0.43017913860E-02 -0.21836361260E-01 -0.27570112106E-02  0.22426172055E-01  0.00000000000E+00 0.  1.
     999901    1    3    3    0    0  0.74555053480E-01  0.67615264512E-01 -0.95505148271E-01  0.89087121030E+00  0.88000000000E+00 0. -1.
        -11    1    4    4    0    0 -0.54353308399E-01 -0.43936685655E-01  0.76613309287E-01  0.10370426588E+00  0.51100000000E-03 0.  1.
         11    1    4    4    0    0 -0.15899953695E-01 -0.18422175962E-02  0.21648850195E-01  0.26928351768E-01  0.51100000000E-03 0. -1.
</event>
<event>
 8    1  0.1119901E+005  0.1043930E+01  0.7957747E-01            NaN
         13   -1    0    0    0    0  0.00000000000E+00  0.00000000000E+00  0.74505805969E-08  0.10566000000E+00  0.10566000000E+00 0. -1.
     999900   -1    0    0    0    0 -0.00000000000E+00 -0.00000000000E+00 -0.74505805969E-08  0.93827000000E+00  0.93827000000E+00 0.  1.
     999902    2    1    2    0    0  0.11087936050E-01  0.17213438938E-01  0.12909409696E-01  0.10197246769E+01  0.10194373542E+01 0.  0.
     999903    2    3    3    0    0 -0.11376547764E+00 -0.20699659447E-01  0.53943224498E-01  0.12915769355E+00  0.20019453788E-01 0.  0.
         14    1    1    2    0    0 -0.11087936050E-01 -0.17213438938E-01 -0.12909409696E-01  0.24205323064E-01  0.00000000000E+00 0.  1.
     999901    1    3    3    0    0  0.12485341369E+00  0.37913098385E-01 -0.41033814802E-01  0.89056698339E+00  0.88000000000E+00 0. -1.
        -11    1    4    4    0    0 -0.74383202726E-01 -0.58559380747E-02  0.27891735816E-01  0.79657786226E-01  0.51100000000E-03 0. -1.
         11    1    4    4    0    0 -0.39382274915E-01 -0.14843721372E-01  0.26051488682E-01  0.49499907325E-01  0.51100000000E-03 0.  1.
</event>
<event>
 8    1  0.1119901E+005  0.1043930E+01  0.7957747E-01            NaN
         13   -1    0    0    0    0  0.00000000000E+00  0.00000000000E+00  0.74505805969E-08  0.10566000000E+00  0.10566000000E+00 0. -1.
     999900   -1    0    0    0    0 -0.00000000000E+00 -0.00000000000E+00 -0.74505805969E-08  0.93827000000E+00  0.93827000000E+00 0.  1.
     999902    2    1    2    0    0  0.13319880546E-01  0.16694239710E-01 -0.13732707493E-01  0.10185389758E+01  0.10182224418E+01 0.  0.
     999903    2    3    3    0    0  0.10416462726E+00 -0.26229000804E-01  0.68826689511E-01  0.12898221724E+00  0.19001818842E-01 0.  0.
         14    1    1    2    0    0 -0.13319880546E-01 -0.16694239710E-01  0.13732707493E-01  0.25391024247E-01  0.00000000000E+00 0. -1.
     999901    1    3    3    0    0 -0.90844746715E-01  0.42923240513E-01 -0.82559397004E-01  0.88955675851E+00  0.88000000000E+00 0.  1.
        -11    1    4    4    0    0  0.31419253126E-01  0.23902392753E-03  0.23871306463E-01  0.39462982561E-01  0.51100000000E-03 0. -1.
         11    1    4    4    0    0  0.72745374136E-01 -0.26468024731E-01  0.44955383049E-01  0.89519234679E-01  0.51100000000E-03 0.  1.
</event>
<event>
 8    1  0.1119901E+005  0.1043930E+01  0.7957747E-01            NaN
         13   -1    0    0    0    0  0.00000000000E+00  0.00000000000E+00  0.74505805969E-08  0.10566000000E+00  0.10566000000E+00 0.  1.
     999900   -1    0    0    0    0 -0.00000000000E+00 -0.00000000000E+00 -0.74505805969E-08  0.93827000000E+00  0.93827000000E+00 0.  1.
     999902    2    1    2    0    0  0.16004160838E-01  0.50134233982E-03 -0.16515570866E-01  0.10209267700E+01  0.10206675860E+01 0.  0.
     999903    2    3    3    0    0  0.40887864351E-02  0.52004171380E-02  0.12727895785E+00  0.12916395181E+00  0.20967375205E-01 0.  0.
         14    1    1    2    0    0 -0.16004160838E-01 -0.50134233982E-03  0.16515570866E-01  0.23003229976E-01  0.00000000000E+00 0.  1.
     999901    1    3    3    0    0  0.11915374403E-01 -0.46990747982E-02 -0.14379452872E+00  0.89176281821E+00  0.88000000000E+00 0.  1.
        -11    1    4    4    0    0  0.91528432073E-02  0.75740062236E-02  0.40660771326E-01  0.42363894472E-01  0.51100000000E-03 0. -1.
         11    1    4    4    0    0 -0.50640567722E-02 -0.23735890856E-02  0.86618186529E-01  0.86800057343E-01  0.51100000000E-03 0.  1.
</event>
<event>
 8    1  0.1119901E+005  0.1043930E+01  0.7957747E-01            NaN
         13   -1    0    0    0    0  0.00000000000E+00  0.00000000000E+00  0.74505805969E-08  0.10566000000E+00  0.10566000000E+00 0.  1.
     999900   -1    0    0    0    0 -0.00000000000E+00 -0.00000000000E+00 -0.74505805969E-08  0.93827000000E+00  0.93827000000E+00 0.  1.
     999902    2    1    2    0    0  0.11621510952E-01 -0.18961867380E-01  0.65202234404E-02  0.10207540373E+01  0.10204909012E+01 0.  0.
     999903    2    3    3    0    0  0.10383392972E+00  0.76126205472E-01  0.10522156808E-01  0.13083219401E+00  0.20728316032E-01 0.  0.
         14    1    1    2    0    0 -0.11621510952E-01  0.18961867380E-01 -0.65202234404E-02  0.23175962657E-01  0.00000000000E+00 0. -1.
     999901    1    3    3    0    0 -0.92212418764E-01 -0.95088072852E-01 -0.40019333680E-02  0.88992184333E+00  0.88000000000E+00 0. -1.
        -11    1    4    4    0    0  0.18404292398E-01  0.70041106392E-02  0.69265692977E-02  0.20880948919E-01  0.51100000000E-03 0. -1.
         11    1    4    4    0    0  0.85429637318E-01  0.69122094833E-01  0.35955875107E-02  0.10995124509E+00  0.51100000000E-03 0.  1.
</event>
<event>
 8    1  0.1119901E+005  0.1043930E+01  0.7957747E-01            NaN
         13   -1    0    0    0    0  0.00000000000E+00  0.00000000000E+00  0.74505805969E-08  0.10566000000E+00  0.10566000000E+00 0.  1.
     999900   -1    0    0    0    0 -0.00000000000E+00 -0.00000000000E+00 -0.74505805969E-08  0.93827000000E+00  0.93827000000E+00 0.  1.
     999902    2    1    2    0    0  0.11293482229E-01 -0.14751850504E-01 -0.12683813880E-01  0.10214346901E+01  0.10211869501E+01 0.  0.
     999903    2    3    3    0    0  0.11347223140E+00  0.49204016287E-02 -0.67209089904E-01  0.13362812330E+00  0.20958433143E-01 0.  0.
         14    1    1    2    0    0 -0.11293482229E-01  0.14751850504E-01  0.12683813880E-01  0.22495309927E-01  0.00000000000E+00 0. -1.
     999901    1    3    3    0    0 -0.10217874917E+00 -0.19672252133E-01  0.54525276024E-01  0.88780656678E+00  0.88000000000E+00 0.  1.
        -11    1    4    4    0    0  0.60969561560E-01 -0.75025261074E-02 -0.32868406372E-01  0.69671863713E-01  0.51100000000E-03 0. -1.
         11    1    4    4    0    0  0.52502669836E-01  0.12422927736E-01 -0.34340683532E-01  0.63956259583E-01  0.51100000000E-03 0.  1.
</event>
<event>
 8    1  0.1119901E+005  0.1043930E+01  0.7957747E-01            NaN
         13   -1    0    0    0    0  0.00000000000E+00  0.00000000000E+00  0.74505805969E-08  0.10566000000E+00  0.10566000000E+00 0.  1.
     999900   -1    0    0    0    0 -0.00000000000E+00 -0.00000000000E+00 -0.74505805969E-08  0.93827000000E+00  0.93827000000E+00 0.  1.
     999902    2    1    2    0    0  0.22798086321E-01 -0.69525533972E-02 -0.20504081775E-02  0.10200073139E+01  0.10197267406E+01 0.  0.
     999903    2    3    3    0    0  0.12396911974E+00  0.27642085170E-01  0.30591651467E-01  0.13293467248E+00  0.24563193746E-01 0.  0.
         14    1    1    2    0    0 -0.22798086321E-01  0.69525533972E-02  0.20504081775E-02  0.23922686144E-01  0.00000000000E+00 0.  1.
     999901    1    3    3    0    0 -0.10117103342E+00 -0.34594638567E-01 -0.32642059645E-01  0.88707264138E+00  0.88000000000E+00 0.  1.
        -11    1    4    4    0    0  0.10499520741E-01  0.93385923735E-02  0.26440924333E-03  0.14063437580E-01  0.51100000000E-03 0.  1.
         11    1    4    4    0    0  0.11346959900E+00  0.18303492796E-01  0.30327242224E-01  0.11887123490E+00  0.51100000000E-03 0. -1.
</event>
<event>
 8    1  0.1119901E+005  0.1043930E+01  0.7957747E-01            NaN
         13   -1    0    0    0    0  0.00000000000E+00  0.00000000000E+00  0.74505805969E-08  0.10566000000E+00  0.10566000000E+00 0. -1.
     999900   -1    0    0    0    0 -0.00000000000E+00 -0.00000000000E+00 -0.74505805969E-08  0.93827000000E+00  0.93827000000E+00 0. -1.
     999902    2    1    2    0    0  0.17399606229E-01  0.13995685823E-01 -0.17135452977E-01  0.10157830771E+01  0.10153930325E+01 0.  0.
     999903    2    3    3    0    0 -0.83441524619E-01 -0.29100103968E-01 -0.87746917221E-01  0.12616958821E+00  0.20246960929E-01 0.  0.
         14    1    1    2    0    0 -0.17399606229E-01 -0.13995685823E-01  0.17135452977E-01  0.28146922875E-01  0.00000000000E+00 0. -1.
     999901    1    3    3    0    0  0.10084113085E+00  0.43095789792E-01  0.70611464243E-01  0.88961348891E+00  0.88000000000E+00 0.  1.
        -11    1    4    4    0    0 -0.55764874401E-01 -0.27464772747E-01 -0.52821465783E-01  0.81574526217E-01  0.51100000000E-03 0. -1.
         11    1    4    4    0    0 -0.27676650218E-01 -0.16353312211E-02 -0.34925451437E-01  0.44595061998E-01  0.51100000000E-03 0.  1.
</event>
<event>
 7    1  0.1119901E+005  0.1043930E+01  0.7957747E-01            NaN
         13   -1    0    0    0    0  0.00000000000E+00  0.00000000000E+00  0.74505805969E-08  0.10566000000E+00  0.10566000000E+00 0. -1.
     999900   -1    0    0    0    0 -0.00000000000E+00 -0.00000000000E+00 -0.74505805969E-08  0.93827000000E+00  0.93827000000E+00 0. -1.
     999903    2    1    2    0    0 -0.57970808473E-01  0.70660826801E-01 -0.56444032264E-02  0.94035108756E-01  0.21381658302E-01 0.  0.
         14    1    1    2    0    0  0.18749799476E-01  0.56475064113E-01 -0.60855892025E-02  0.59816571641E-01  0.00000000000E+00 0.  1.
     999901    1    1    2    0    0  0.39221008997E-01 -0.12713589091E+00  0.11729992429E-01  0.89007831960E+00  0.88000000000E+00 0.  1.
        -11    1    3    3    0    0 -0.19888237717E-01  0.22601797739E-01 -0.11941530434E-01  0.32392044249E-01  0.51100000000E-03 0.  1.
         11    1    3    3    0    0 -0.38082570755E-01  0.48059029062E-01  0.62971272072E-02  0.61643064506E-01  0.51100000000E-03 0. -1.
</event>
<event>
 8    1  0.1119901E+005  0.1043930E+01  0.7957747E-01            NaN
         13   -1    0    0    0    0  0.00000000000E+00  0.00000000000E+00  0.74505805969E-08  0.10566000000E+00  0.10566000000E+00 0.  1.
     999900   -1    0    0    0    0 -0.00000000000E+00 -0.00000000000E+00 -0.74505805969E-08  0.93827000000E+00  0.93827000000E+00 0.  1.
     999902    2    1    2    0    0  0.14575688898E-01  0.19516442298E-01  0.16385354100E-02  0.10195163353E+01  0.10192239846E+01 0.  0.
     999903    2    3    3    0    0 -0.28120910335E-01  0.12184616421E+00 -0.36096172715E-01  0.13175607498E+00  0.20480631777E-01 0.  0.
         14    1    1    2    0    0 -0.14575688898E-01 -0.19516442298E-01 -0.16385354100E-02  0.24413664721E-01  0.00000000000E+00 0.  1.
     999901    1    3    3    0    0  0.42696599233E-01 -0.10232972191E+00  0.37734708125E-01  0.88776026030E+00  0.88000000000E+00 0.  1.
        -11    1    4    4    0    0 -0.24082883619E-01  0.92743213943E-01 -0.36028126872E-01  0.10236980054E+00  0.51100000000E-03 0. -1.
         11    1    4    4    0    0 -0.40380267162E-02  0.29102950267E-01 -0.68045842640E-04  0.29386274436E-01  0.51100000000E-03 0.  1.
</event>
<event>
 8    1  0.1119901E+005  0.1043930E+01  0.7957747E-01            NaN
         13   -1    0    0    0    0  0.00000000000E+00  0.00000000000E+00  0.74505805969E-08  0.10566000000E+00  0.10566000000E+00 0.  1.
     999900   -1    0    0    0    0 -0.00000000000E+00 -0.00000000000E+00 -0.74505805969E-08  0.93827000000E+00  0.93827000000E+00 0.  1.
     999902    2    1    2    0    0 -0.11814269504E-01 -0.18961907154E-01  0.60790830129E-02  0.10207764660E+01  0.10205138448E+01 0.  0.
     999903    2    3    3    0    0 -0.12838932878E+00 -0.17546385759E-01  0.19437879518E-01  0.13298696077E+00  0.22715747323E-01 0.  0.
         14    1    1    2    0    0  0.11814269504E-01  0.18961907154E-01 -0.60790830129E-02  0.23153534009E-01  0.00000000000E+00 0. -1.
     999901    1    3    3    0    0  0.11657505927E+00 -0.14155213947E-02 -0.13358796505E-01  0.88778950523E+00  0.88000000000E+00 0.  1.
        -11    1    4    4    0    0 -0.17213910838E-01 -0.10454764200E-01  0.23967686722E-02  0.20288579099E-01  0.51100000000E-03 0.  1.
         11    1    4    4    0    0 -0.11117541794E+00 -0.70916215596E-02  0.17041110846E-01  0.11269838167E+00  0.51100000000E-03 0. -1.
</event>
<event>
 8    1  0.1119901E+005  0.1043930E+01  0.7957747E-01            NaN
         13   -1    0    0    0    0  0.00000000000E+00  0.00000000000E+00  0.74505805969E-08  0.10566000000E+00  0.10566000000E+00 0. -1.
     999900   -1    0    0    0    0 -0.00000000000E+00 -0.00000000000E+00 -0.74505805969E-08  0.93827000000E+00  0.93827000000E+00 0. -1.
     999902    2    1    2    0    0 -0.19641375436E-01 -0.65056168697E-02  0.90976438135E-02  0.10213274824E+01  0.10210773489E+01 0.  0.
     999903    2    3    3    0    0 -0.78602671089E-01  0.10298688972E+00  0.18296433810E-01  0.13253635893E+00  0.21129306466E-01 0.  0.
         14    1    1    2    0    0  0.19641375436E-01  0.65056168697E-02 -0.90976438135E-02  0.22602517622E-01  0.00000000000E+00 0.  1.
     999901    1    3    3    0    0  0.58961295653E-01 -0.10949250659E+00 -0.91987899963E-02  0.88879112345E+00  0.88000000000E+00 0.  1.
        -11    1    4    4    0    0 -0.13052149964E-01  0.11142457383E-01  0.88163283706E-02  0.19300304198E-01  0.51100000000E-03 0.  1.
         11    1    4    4    0    0 -0.65550521125E-01  0.91844432336E-01  0.94801054391E-02  0.11323605473E+00  0.51100000000E-03 0. -1.
</event>
<event>
 8    1  0.1119901E+005  0.1043930E+01  0.7957747E-01            NaN
         13   -1    0    0    0    0  0.00000000000E+00  0.00000000000E+00  0.74505805969E-08  0.10566000000E+00  0.10566000000E+00 0. -1.
     999900   -1    0    0    0    0 -0.00000000000E+00 -0.00000000000E+00 -0.74505805969E-08  0.93827000000E+00  0.93827000000E+00 0.  1.
     999902    2    1    2    0    0 -0.24727453264E-02  0.21034632356E-01 -0.92617704481E-02  0.10208139748E+01  0.10205522136E+01 0.  0.
     999903    2    3    3    0    0 -0.12686501666E+00 -0.25002064843E-01 -0.92239937747E-03  0.13083512128E+00  0.19928432977E-01 0.  0.
         14    1    1    2    0    0  0.24727453264E-02 -0.21034632356E-01  0.92617704481E-02  0.23116025169E-01  0.00000000000E+00 0. -1.
     999901    1    3    3    0    0  0.12439227133E+00  0.46036697199E-01 -0.83393710706E-02  0.88997885355E+00  0.88000000000E+00 0.  1.
        -11    1    4    4    0    0 -0.58547443965E-02 -0.56655078384E-02 -0.14304964282E-02  0.82875480117E-02  0.51100000000E-03 0.  1.
         11    1    4    4    0    0 -0.12101027226E+00 -0.19336557004E-01  0.50809705077E-03  0.12254757327E+00  0.51100000000E-03 0. -1.
</event>
<event>
 8    1  0.1119901E+005  0.1043930E+01  0.7957747E-01            NaN
         13   -1    0    0    0    0  0.00000000000E+00  0.00000000000E+00  0.74505805969E-08  0.10566000000E+00  0.10566000000E+00 0.  1.
     999900   -1    0    0    0    0 -0.00000000000E+00 -0.00000000000E+00 -0.74505805969E-08  0.93827000000E+00  0.93827000000E+00 0.  1.
     999902    2    1    2    0    0  0.11761998448E-01  0.19382398489E-01 -0.49798576832E-02  0.10207174827E+01  0.10204535063E+01 0.  0.
     999903    2    3    3    0    0 -0.11874938960E+00  0.35171876707E-01  0.34427612345E-01  0.13007980171E+00  0.19925257320E-01 0.  0.
         14    1    1    2    0    0 -0.11761998448E-01 -0.19382398489E-01  0.49798576832E-02  0.23212517339E-01  0.00000000000E+00 0.  1.
     999901    1    3    3    0    0  0.13051138805E+00 -0.15789478219E-01 -0.39407470028E-01  0.89063768095E+00  0.88000000000E+00 0.  1.
        -11    1    4    4    0    0 -0.75169174019E-01  0.23734057503E-01  0.31617666121E-01  0.84933198104E-01  0.51100000000E-03 0. -1.
         11    1    4    4    0    0 -0.43580215584E-01  0.11437819204E-01  0.28099462247E-02  0.45146603608E-01  0.51100000000E-03 0.  1.
</event>
<event>
 8    1  0.1119901E+005  0.1043930E+01  0.7957747E-01            NaN
         13   -1    0    0    0    0  0.00000000000E+00  0.00000000000E+00  0.74505805969E-08  0.10566000000E+00  0.10566000000E+00 0.  1.
     999900   -1    0    0    0    0 -0.00000000000E+00 -0.00000000000E+00 -0.74505805969E-08  0.93827000000E+00  0.93827000000E+00 0.  1.
     999902    2    1    2    0    0 -0.76221684910E-03 -0.21125735274E-01  0.68257357406E-02  0.10217158528E+01  0.10214743343E+01 0.  0.
     999903    2    3    3    0    0 -0.44175953911E-01 -0.10825932869E+00 -0.62000262058E-01  0.13367642037E+00  0.18808394795E-01 0.  0.
         14    1    1    2    0    0  0.76221684910E-03  0.21125735274E-01 -0.68257357406E-02  0.22214147154E-01  0.00000000000E+00 0.  1.
     999901    1    3    3    0    0  0.43413737062E-01  0.87133593413E-01  0.68825997799E-01  0.88803943248E+00  0.88000000000E+00 0. -1.
        -11    1    4    4    0    0 -0.77211384504E-02 -0.11671068904E-01 -0.14076808815E-01  0.19855666591E-01  0.51100000000E-03 0.  1.
         11    1    4    4    0    0 -0.36454815460E-01 -0.96588259783E-01 -0.47923453243E-01  0.11382075377E+00  0.51100000000E-03 0. -1.
</event>
<event>
 8    1  0.1119901E+005  0.1043930E+01  0.7957747E-01            NaN
         13   -1    0    0    0    0  0.00000000000E+00  0.00000000000E+00  0.74505805969E-08  0.10566000000E+00  0.10566000000E+00 0. -1.
     999900   -1    0    0    0    0 -0.00000000000E+00 -0.00000000000E+00 -0.74505805969E-08  0.93827000000E+00  0.93827000000E+00 0. -1.
     999902    2    1    2    0    0 -0.11396748725E-01 -0.19977404900E-01 -0.55140099049E-02  0.10202786387E+01  0.10200044674E+01 0.  0.
     999903    2    3    3    0    0 -0.57867140940E-01  0.10034552766E+00 -0.53902810244E-01  0.12956062411E+00  0.21508404037E-01 0.  0.
         14    1    1    2    0    0  0.11396748725E-01  0.19977404900E-01  0.55140099049E-02  0.23651361341E-01  0.00000000000E+00 0. -1.
     999901    1    3    3    0    0  0.46470392215E-01 -0.12032293256E+00  0.48388800339E-01  0.89071801455E+00  0.88000000000E+00 0. -1.
        -11    1    4    4    0    0 -0.32174847419E-01  0.35473938657E-01 -0.25107791046E-01  0.54076643964E-01  0.51100000000E-03 0. -1.
         11    1    4    4    0    0 -0.25692293521E-01  0.64871589004E-01 -0.28795019199E-01  0.75483980141E-01  0.51100000000E-03 0.  1.
</event>
<event>
 8    1  0.1119901E+005  0.1043930E+01  0.7957747E-01            NaN
         13   -1    0    0    0    0  0.00000000000E+00  0.00000000000E+00  0.74505805969E-08  0.10566000000E+00  0.10566000000E+00 0. -1.
     999900   -1    0    0    0    0 -0.00000000000E+00 -0.00000000000E+00 -0.74505805969E-08  0.93827000000E+00  0.93827000000E+00 0.  1.
     999902    2    1    2    0    0 -0.22307624512E-01 -0.57992541766E-02  0.69700239826E-02  0.10198500769E+01  0.10195657589E+01 0.  0.
     999903    2    3    3    0    0  0.63967752637E-02  0.10404918471E+00 -0.73310117074E-01  0.12893171752E+00  0.19541313821E-01 0.  0.
         14    1    1    2    0    0  0.22307624512E-01  0.57992541766E-02 -0.69700239826E-02  0.24079923062E-01  0.00000000000E+00 0.  1.
     999901    1    3    3    0    0 -0.28704399776E-01 -0.10984843889E+00  0.80280141056E-01  0.89091835941E+00  0.88000000000E+00 0.  1.
        -11    1    4    4    0    0 -0.27104578634E-02  0.10079796114E-01 -0.13874644119E-01  0.17369966666E-01  0.51100000000E-03 0. -1.
         11    1    4    4    0    0  0.91072331271E-02  0.93969388596E-01 -0.59435472954E-01  0.11156175086E+00  0.51100000000E-03 0.  1.
</event>
<event>
 8    1  0.1119901E+005  0.1043930E+01  0.7957747E-01            NaN
         13   -1    0    0    0    0  0.00000000000E+00  0.00000000000E+00  0.74505805969E-08  0.10566000000E+00  0.10566000000E+00 0.  1.
     999900   -1    0    0    0    0 -0.00000000000E+00 -0.00000000000E+00 -0.74505805969E-08  0.93827000000E+00  0.93827000000E+00 0. -1.
     999902    2    1    2    0    0 -0.10959300601E-03 -0.20191659010E-01 -0.11678156610E-01  0.10206041678E+01  0.10203375779E+01 0.  0.
     999903    2    3    3    0    0  0.75084558224E-01  0.80455642025E-01  0.63383758954E-01  0.12851766376E+00  0.19710093422E-01 0.  0.
         14    1    1    2    0    0  0.10959300601E-03  0.20191659010E-01  0.11678156610E-01  0.23325832161E-01  0.00000000000E+00 0.  1.
     999901    1    3    3    0    0 -0.75194151230E-01 -0.10064730103E+00 -0.75061915565E-01  0.89208650408E+00  0.88000000000E+00 0. -1.
        -11    1    4    4    0    0  0.24945676242E-01  0.37409167701E-01  0.18453238128E-01  0.48605716842E-01  0.51100000000E-03 0. -1.
         11    1    4    4    0    0  0.50138881982E-01  0.43046474324E-01  0.44930520827E-01  0.79911946922E-01  0.51100000000E-03 0.  1.
</event>
<event>
 8    1  0.1119901E+005  0.1043930E+01  0.7957747E-01            NaN
         13   -1    0    0    0    0  0.00000000000E+00  0.00000000000E+00  0.74505805969E-08  0.10566000000E+00  0.10566000000E+00 0.  1.
     999900   -1    0    0    0    0 -0.00000000000E+00 -0.00000000000E+00 -0.74505805969E-08  0.93827000000E+00  0.93827000000E+00 0. -1.
     999902    2    1    2    0    0  0.17567973504E-01 -0.14264251797E-01 -0.73374013950E-02  0.10201405059E+01  0.10198630848E+01 0.  0.
     999903    2    3    3    0    0  0.45350059143E-01 -0.10370232429E+00 -0.67184689227E-01  0.13314968800E+00  0.20106143854E-01 0.  0.
         14    1    1    2    0    0 -0.17567973504E-01  0.14264251797E-01  0.73374013950E-02  0.23789494143E-01  0.00000000000E+00 0. -1.
     999901    1    3    3    0    0 -0.27782085639E-01  0.89438072497E-01  0.59847287832E-01  0.88699081785E+00  0.88000000000E+00 0.  1.
        -11    1    4    4    0    0  0.11891592134E-01 -0.47899890039E-01 -0.35370864898E-01  0.60722060520E-01  0.51100000000E-03 0. -1.
         11    1    4    4    0    0  0.33458467009E-01 -0.55802434255E-01 -0.31813824329E-01  0.72427627483E-01  0.51100000000E-03 0.  1.
</event>
<event>
 8    1  0.1119901E+005  0.1043930E+01  0.7957747E-01            NaN
         13   -1    0    0    0    0  0.00000000000E+00  0.00000000000E+00  0.74505805969E-08  0.10566000000E+00  0.10566000000E+00 0.  1.
     999900   -1    0    0    0    0 -0.00000000000E+00 -0.00000000000E+00 -0.74505805969E-08  0.93827000000E+00  0.93827000000E+00 0. -1.
     999902    2    1    2    0    0  0.43874024721E-02  0.43247702255E-02  0.23900401226E-01  0.10192483850E+01  0.10189495023E+01 0.  0.
     999903    2    3    3    0    0  0.11590588894E+00  0.22332822952E-01 -0.48325714483E-01  0.12909262644E+00  0.19914855022E-01 0.  0.
         14    1    1    2    0    0 -0.43874024721E-02 -0.43247702255E-02 -0.23900401226E-01  0.24681614954E-01  0.00000000000E+00 0. -1.
     999901    1    3    3    0    0 -0.11151848646E+00 -0.18008052726E-01  0.72226115709E-01  0.89015575860E+00  0.88000000000E+00 0.  1.
        -11    1    4    4    0    0  0.77482208552E-01  0.10204265726E-01 -0.40576108082E-01  0.88058510941E-01  0.51100000000E-03 0. -1.
         11    1    4    4    0    0  0.38423680383E-01  0.12128557226E-01 -0.77496064013E-02  0.41034115501E-01  0.51100000000E-03 0.  1.
</event>
<event>
 8    1  0.1119901E+005  0.1043930E+01  0.7957747E-01            NaN
         13   -1    0    0    0    0  0.00000000000E+00  0.00000000000E+00  0.74505805969E-08  0.10566000000E+00  0.10566000000E+00 0.  1.
     999900   -1    0    0    0    0 -0.00000000000E+00 -0.00000000000E+00 -0.74505805969E-08  0.93827000000E+00  0.93827000000E+00 0.  1.
     999902    2    1    2    0    0  0.42756874030E-02  0.17241224396E-01 -0.15268127289E-01  0.10205065709E+01  0.10202377194E+01 0.  0.
     999903    2    3    3    0    0 -0.38547506977E-02  0.12982887356E+00 -0.22296062252E-01  0.13326845478E+00  0.19823499566E-01 0.  0.
         14    1    1    2    0    0 -0.42756874030E-02 -0.17241224396E-01  0.15268127289E-01  0.23423429133E-01  0.00000000000E+00 0.  1.
     999901    1    3    3    0    0  0.81304381008E-02 -0.11258764916E+00  0.70279349631E-02  0.88723811609E+00  0.88000000000E+00 0.  1.
        -11    1    4    4    0    0 -0.60844925000E-02  0.58786174333E-01 -0.11630282865E-02  0.59113865526E-01  0.51100000000E-03 0. -1.
         11    1    4    4    0    0  0.22297418023E-02  0.71042699226E-01 -0.21133033965E-01  0.74154589254E-01  0.51100000000E-03 0.  1.
</event>
<event>
 8    1  0.1119901E+005  0.1043930E+01  0.7957747E-01            NaN
         13   -1    0    0    0    0  0.00000000000E+00  0.00000000000E+00  0.74505805969E-08  0.10566000000E+00  0.10566000000E+00 0. -1.
     999900   -1    0    0    0    0 -0.00000000000E+00 -0.00000000000E+00 -0.74505805969E-08  0.93827000000E+00  0.93827000000E+00 0.  1.
     999902    2    1    2    0    0 -0.12652015635E-03 -0.19280478555E-01  0.13608206332E-01  0.10203305055E+01  0.10200575495E+01 0.  0.
     999903    2    3    3    0    0  0.11661375911E+00 -0.31391161578E-03 -0.52500667504E-01  0.12996069096E+00  0.23121283539E-01 0.  0.
         14    1    1    2    0    0  0.12652015635E-03  0.19280478555E-01 -0.13608206332E-01  0.23599494491E-01  0.00000000000E+00 0.  1.
     999901    1    3    3    0    0 -0.11674027926E+00 -0.18966566940E-01  0.66108873836E-01  0.89036981455E+00  0.88000000000E+00 0.  1.
        -11    1    4    4    0    0  0.11354304626E+00 -0.33558816116E-02 -0.46967166806E-01  0.12292054822E+00  0.51100000000E-03 0. -1.
         11    1    4    4    0    0  0.30707128483E-02  0.30419699958E-02 -0.55335006980E-02  0.70401427420E-02  0.51100000000E-03 0.  1.
</event>
<event>
 8    1  0.1119901E+005  0.1043930E+01  0.7957747E-01            NaN
         13   -1    0    0    0    0  0.00000000000E+00  0.00000000000E+00  0.74505805969E-08  0.10566000000E+00  0.10566000000E+00 0. -1.
     999900   -1    0    0    0    0 -0.00000000000E+00 -0.00000000000E+00 -0.74505805969E-08  0.93827000000E+00  0.93827000000E+00 0. -1.
     999902    2    1    2    0    0  0.39949609816E-02 -0.10306616934E-01  0.17974148460E-01  0.10228289081E+01  0.10226112258E+01 0.  0.
     999903    2    3    3    0    0  0.90436721409E-01 -0.75105746889E-01  0.63184684351E-01  0.13507043998E+00  0.20785707233E-01 0.  0.
         14    1    1    2    0    0 -0.39949609816E-02  0.10306616934E-01 -0.17974148460E-01  0.21101091885E-01  0.00000000000E+00 0.  1.
     999901    1    3    3    0    0 -0.86441760427E-01  0.64799129955E-01 -0.45210535890E-01  0.88775846813E+00  0.88000000000E+00 0. -1.
        -11    1    4    4    0    0  0.27958669146E-01 -0.13116086470E-01  0.21846835079E-01  0.37832052927E-01  0.51100000000E-03 0. -1.
         11    1    4    4    0    0  0.62478052263E-01 -0.61989660418E-01  0.41337849271E-01  0.97238387053E-01  0.51100000000E-03 0.  1.
</event>
<event>
 8    1  0.1119901E+005  0.1043930E+01  0.7957747E-01            NaN
         13   -1    0    0    0    0  0.00000000000E+00  0.00000000000E+00  0.74505805969E-08  0.10566000000E+00  0.10566000000E+00 0. -1.
     999900   -1    0    0    0    0 -0.00000000000E+00 -0.00000000000E+00 -0.74505805969E-08  0.93827000000E+00  0.93827000000E+00 0.  1.
     999902    2    1    2    0    0  0.55124660875E-02 -0.23558429716E-01  0.22990277851E-02  0.10196262468E+01  0.10193365542E+01 0.  0.
     999903    2    3    3    0    0 -0.56596292510E-01  0.10540643294E+00  0.38964608993E-01  0.12730691012E+00  0.19368845573E-01 0.  0.
         14    1    1    2    0    0 -0.55124660875E-02  0.23558429716E-01 -0.22990277851E-02  0.24303753245E-01  0.00000000000E+00 0.  1.
     999901    1    3    3    0    0  0.62108758597E-01 -0.12896486265E+00 -0.36665581207E-01  0.89231933664E+00  0.88000000000E+00 0.  1.
        -11    1    4    4    0    0 -0.16444328121E-01  0.45796274976E-01  0.22292171880E-01  0.53524917349E-01  0.51100000000E-03 0.  1.
         11    1    4    4    0    0 -0.40151964388E-01  0.59610157962E-01  0.16672437113E-01  0.73781992768E-01  0.51100000000E-03 0. -1.
</event>
<event>
 8    1  0.1119901E+005  0.1043930E+01  0.7957747E-01            NaN
         13   -1    0    0    0    0  0.00000000000E+00  0.00000000000E+00  0.74505805969E-08  0.10566000000E+00  0.10566000000E+00 0.  1.
     999900   -1    0    0    0    0 -0.00000000000E+00 -0.00000000000E+00 -0.74505805969E-08  0.93827000000E+00  0.93827000000E+00 0.  1.
     999902    2    1    2    0    0 -0.20263147025E-01  0.53867898279E-03  0.10166804289E-01  0.10212529364E+01  0.10210011317E+01 0.  0.
     999903    2    3    3    0    0 -0.45475254884E-01  0.12012261646E+00 -0.24794768095E-01  0.13211949312E+00  0.18529385969E-01 0.  0.
         14    1    1    2    0    0  0.20263147025E-01 -0.53867898279E-03 -0.10166804289E-01  0.22677063563E-01  0.00000000000E+00 0.  1.
     999901    1    3    3    0    0  0.25212107859E-01 -0.11958393748E+00  0.34961572383E-01  0.88913344332E+00  0.88000000000E+00 0. -1.
        -11    1    4    4    0    0 -0.41046224480E-01  0.85614864255E-01 -0.16877281802E-01  0.96435477328E-01  0.51100000000E-03 0. -1.
         11    1    4    4    0    0 -0.44290304046E-02  0.34507752207E-01 -0.79174862925E-02  0.35684015790E-01  0.51100000000E-03 0.  1.
</event>
<event>
 8    1  0.1119901E+005  0.1043930E+01  0.7957747E-01            NaN
         13   -1    0    0    0    0  0.00000000000E+00  0.00000000000E+00  0.74505805969E-08  0.10566000000E+00  0.10566000000E+00 0. -1.
     999900   -1    0    0    0    0 -0.00000000000E+00 -0.00000000000E+00 -0.74505805969E-08  0.93827000000E+00  0.93827000000E+00 0.  1.
     999902    2    1    2    0    0 -0.79063119974E-02  0.18892306120E-01 -0.13212728153E-01  0.10195577784E+01  0.10192664315E+01 0.  0.
     999903    2    3    3    0    0 -0.76405704605E-01  0.86652941134E-01 -0.62385296984E-01  0.13293406343E+00  0.20808076227E-01 0.  0.
         14    1    1    2    0    0  0.79063119974E-02 -0.18892306120E-01  0.13212728153E-01  0.24372221589E-01  0.00000000000E+00 0. -1.
     999901    1    3    3    0    0  0.68499392608E-01 -0.67760635014E-01  0.49172568831E-01  0.88662371498E+00  0.88000000000E+00 0. -1.
        -11    1    4    4    0    0 -0.48727139176E-01  0.66902153355E-01 -0.37917114114E-01  0.91039556675E-01  0.51100000000E-03 0. -1.
         11    1    4    4    0    0 -0.27678565429E-01  0.19750787779E-01 -0.24468182870E-01  0.41894506753E-01  0.51100000000E-03 0.  1.
</event>
<event>
 8    1  0.1119901E+005  0.1043930E+01  0.7957747E-01            NaN
         13   -1    0    0    0    0  0.00000000000E+00  0.00000000000E+00  0.74505805969E-08  0.10566000000E+00  0.10566000000E+00 0.  1.
     999900   -1    0    0    0    0 -0.00000000000E+00 -0.00000000000E+00 -0.74505805969E-08  0.93827000000E+00  0.93827000000E+00 0. -1.
     999902    2    1    2    0    0  0.12234020272E-01 -0.77098498165E-03  0.20584230419E-01  0.10199721994E+01  0.10196907920E+01 0.  0.
     999903    2    3    3    0    0  0.12842746362E-01  0.70936050762E-01  0.10929431510E+00  0.13260995729E+00  0.21054548851E-01 0.  0.
         14    1    1    2    0    0 -0.12234020272E-01  0.77098498165E-03 -0.20584230419E-01  0.23957800646E-01  0.00000000000E+00 0. -1.
     999901    1    3    3    0    0 -0.60872609007E-03 -0.71707035744E-01 -0.88710084677E-01  0.88736224207E+00  0.88000000000E+00 0. -1.
        -11    1    4    4    0    0  0.14017349124E-01  0.22734422826E-01  0.43293477092E-01  0.50871665369E-01  0.51100000000E-03 0. -1.
         11    1    4    4    0    0 -0.11746027615E-02  0.48201627936E-01  0.66000838005E-01  0.81738291918E-01  0.51100000000E-03 0.  1.
</event>
<event>
 8    1  0.1119901E+005  0.1043930E+01  0.7957747E-01            NaN
         13   -1    0    0    0    0  0.00000000000E+00  0.00000000000E+00  0.74505805969E-08  0.10566000000E+00  0.10566000000E+00 0.  1.
     999900   -1    0    0    0    0 -0.00000000000E+00 -0.00000000000E+00 -0.74505805969E-08  0.93827000000E+00  0.93827000000E+00 0.  1.
     999902    2    1    2    0    0  0.14237236138E-01 -0.15567422057E-01  0.12866399737E-01  0.10192199258E+01  0.10189203450E+01 0.  0.
     999903    2    3    3    0    0 -0.10718561866E+00  0.50183323145E-01  0.44277875270E-01  0.12789879912E+00  0.19759802832E-01 0.  0.
         14    1    1    2    0    0 -0.14237236138E-01  0.15567422057E-01 -0.12866399737E-01  0.24710074151E-01  0.00000000000E+00 0.  1.
     999901    1    3    3    0    0  0.12142285480E+00 -0.65750745202E-01 -0.31411475533E-01  0.89132112673E+00  0.88000000000E+00 0. -1.
        -11    1    4    4    0    0 -0.75249965661E-01  0.41643227257E-01  0.24730130815E-01  0.89490536927E-01  0.51100000000E-03 0. -1.
         11    1    4    4    0    0 -0.31935653000E-01  0.85400958881E-02  0.19547744454E-01  0.38408262192E-01  0.51100000000E-03 0.  1.
</event>
<event>
 8    1  0.1378406E+005  0.1043930E+01  0.7957747E-01            NaN
         13   -1    0    0    0    0  0.00000000000E+00  0.00000000000E+00  0.74505805969E-08  0.10566000000E+00  0.10566000000E+00 0. -1.
     999900   -1    0    0    0    0 -0.00000000000E+00 -0.00000000000E+00 -0.74505805969E-08  0.93827000000E+00  0.93827000000E+00 0. -1.
     999902    2    1    2    0    0 -0.66188432441E-02  0.13811085158E-01 -0.17896844374E-01  0.10203746992E+01  0.10201027764E+01 0.  0.
     999903    2    3    3    0    0 -0.21278642296E-01 -0.12547580056E+00 -0.12318949911E-01  0.12928162930E+00  0.19105653753E-01 0.  0.
         14    1    1    2    0    0  0.66188432441E-02 -0.13811085158E-01  0.17896844374E-01  0.23555300841E-01  0.00000000000E+00 0. -1.
     999901    1    3    3    0    0  0.14659799052E-01  0.13928688571E+00 -0.55778944634E-02  0.89109306986E+00  0.88000000000E+00 0.  1.
        -11    1    4    4    0    0 -0.38791494123E-02 -0.70704577619E-01 -0.16690941606E-02  0.70832422609E-01  0.51100000000E-03 0. -1.
         11    1    4    4    0    0 -0.17399492884E-01 -0.54771222937E-01 -0.10649855750E-01  0.58449206693E-01  0.51100000000E-03 0.  1.
</event>
<event>
 8    1  0.1119901E+005  0.1043930E+01  0.7957747E-01            NaN
         13   -1    0    0    0    0  0.00000000000E+00  0.00000000000E+00  0.74505805969E-08  0.10566000000E+00  0.10566000000E+00 0. -1.
     999900   -1    0    0    0    0 -0.00000000000E+00 -0.00000000000E+00 -0.74505805969E-08  0.93827000000E+00  0.93827000000E+00 0.  1.
     999902    2    1    2    0    0  0.10964457412E-01  0.10791558685E-01 -0.16197822577E-01  0.10215906508E+01  0.10213463719E+01 0.  0.
     999903    2    3    3    0    0 -0.31482120132E-01  0.99644969199E-01 -0.80890805410E-01  0.13373828555E+00  0.20551468235E-01 0.  0.
         14    1    1    2    0    0 -0.10964457412E-01 -0.10791558685E-01  0.16197822577E-01  0.22339349172E-01  0.00000000000E+00 0. -1.
     999901    1    3    3    0    0  0.42446577545E-01 -0.88853410515E-01  0.64692982833E-01  0.88785236528E+00  0.88000000000E+00 0. -1.
        -11    1    4    4    0    0 -0.12699998846E-02  0.28959365654E-01 -0.28892388329E-01  0.40930294198E-01  0.51100000000E-03 0.  1.
         11    1    4    4    0    0 -0.30212120248E-01  0.70685603545E-01 -0.51998417081E-01  0.92807991349E-01  0.51100000000E-03 0. -1.
</event>
<event>
 8    1  0.1119901E+005  0.1043930E+01  0.7957747E-01            NaN
         13   -1    0    0    0    0  0.00000000000E+00  0.00000000000E+00  0.74505805969E-08  0.10566000000E+00  0.10566000000E+00 0.  1.
     999900   -1    0    0    0    0 -0.00000000000E+00 -0.00000000000E+00 -0.74505805969E-08  0.93827000000E+00  0.93827000000E+00 0. -1.
     999902    2    1    2    0    0  0.46234525173E-02 -0.54427205246E-02 -0.18594634962E-01  0.10240111655E+01  0.10238174188E+01 0.  0.
     999903    2    3    3    0    0  0.77721010226E-01  0.12538269324E-01  0.10423000342E+00  0.13229794882E+00  0.21002143292E-01 0.  0.
         14    1    1    2    0    0 -0.46234525173E-02  0.54427205246E-02  0.18594634962E-01  0.19918834536E-01  0.00000000000E+00 0.  1.
     999901    1    3    3    0    0 -0.73097557708E-01 -0.17980989848E-01 -0.12282463838E+00  0.89171321664E+00  0.88000000000E+00 0.  1.
        -11    1    4    4    0    0  0.33173373519E-01 -0.44393613386E-02  0.48926041753E-01  0.59280682540E-01  0.51100000000E-03 0. -1.
         11    1    4    4    0    0  0.44547636707E-01  0.16977630662E-01  0.55303961662E-01  0.73017266284E-01  0.51100000000E-03 0.  1.
</event>
<event>
 8    1  0.1119901E+005  0.1043930E+01  0.7957747E-01            NaN
         13   -1    0    0    0    0  0.00000000000E+00  0.00000000000E+00  0.74505805969E-08  0.10566000000E+00  0.10566000000E+00 0. -1.
     999900   -1    0    0    0    0 -0.00000000000E+00 -0.00000000000E+00 -0.74505805969E-08  0.93827000000E+00  0.93827000000E+00 0. -1.
     999902    2    1    2    0    0  0.23758138329E-01  0.27672106870E-02  0.22797293152E-02  0.10199028537E+01  0.10196197955E+01 0.  0.
     999903    2    3    3    0    0  0.89492726293E-03 -0.12190057845E+00 -0.40567091138E-01  0.12979014509E+00  0.18418495010E-01 0.  0.
         14    1    1    2    0    0 -0.23758138329E-01 -0.27672106870E-02 -0.22797293152E-02  0.24027146264E-01  0.00000000000E+00 0. -1.
     999901    1    3    3    0    0  0.22863211066E-01  0.12466778914E+00  0.42846820454E-01  0.89011270864E+00  0.88000000000E+00 0.  1.
        -11    1    4    4    0    0 -0.60805293064E-02 -0.45719475844E-01 -0.88083000506E-02  0.46958391997E-01  0.51100000000E-03 0. -1.
         11    1    4    4    0    0  0.69754565693E-02 -0.76181102605E-01 -0.31758791088E-01  0.82831753095E-01  0.51100000000E-03 0.  1.
</event>
<event>
 8    1  0.1119901E+005  0.1043930E+01  0.7957747E-01            NaN
         13   -1    0    0    0    0  0.00000000000E+00  0.00000000000E+00  0.74505805969E-08  0.10566000000E+00  0.10566000000E+00 0. -1.
     999900   -1    0    0    0    0 -0.00000000000E+00 -0.00000000000E+00 -0.74505805969E-08  0.93827000000E+00  0.93827000000E+00 0.  1.
     999902    2    1    2    0    0  0.22147597738E-01  0.84608230132E-02 -0.61457815242E-02  0.10194377106E+01  0.10191434509E+01 0.  0.
     999903    2    3    3    0    0 -0.17944755920E-01  0.29738739836E-01  0.12247803151E+00  0.12892986003E+00  0.20387096250E-01 0.  0.
         14    1    1    2    0    0 -0.22147597738E-01 -0.84608230132E-02  0.61457815242E-02  0.24492289443E-01  0.00000000000E+00 0. -1.
     999901    1    3    3    0    0  0.40092353658E-01 -0.21277916823E-01 -0.12862381303E+00  0.89050785052E+00  0.88000000000E+00 0.  1.
        -11    1    4    4    0    0 -0.15987578068E-01  0.11645287753E-01  0.42126872848E-01  0.46541915692E-01  0.51100000000E-03 0. -1.
         11    1    4    4    0    0 -0.19571778521E-02  0.18093452083E-01  0.80351158662E-01  0.82387944341E-01  0.51100000000E-03 0.  1.
</event>
<event>
 8    1  0.1119901E+005  0.1043930E+01  0.7957747E-01            NaN
         13   -1    0    0    0    0  0.00000000000E+00  0.00000000000E+00  0.74505805969E-08  0.10566000000E+00  0.10566000000E+00 0.  1.
     999900   -1    0    0    0    0 -0.00000000000E+00 -0.00000000000E+00 -0.74505805969E-08  0.93827000000E+00  0.93827000000E+00 0. -1.
     999902    2    1    2    0    0  0.44799560503E-02 -0.15863265445E-01  0.18848712569E-01  0.10188902883E+01  0.10185825604E+01 0.  0.
     999903    2    3    3    0    0  0.43846935707E-01  0.81495620496E-01 -0.84166841972E-01  0.12667914947E+00  0.19986487753E-01 0.  0.
         14    1    1    2    0    0 -0.44799560503E-02  0.15863265445E-01 -0.18848712569E-01  0.25039711706E-01  0.00000000000E+00 0. -1.
     999901    1    3    3    0    0 -0.39366979656E-01 -0.97358885941E-01  0.10301555454E+00  0.89221113882E+00  0.88000000000E+00 0. -1.
        -11    1    4    4    0    0  0.13541611272E-01  0.44210911948E-01 -0.35579536078E-01  0.58345046745E-01  0.51100000000E-03 0.  1.
         11    1    4    4    0    0  0.30305324435E-01  0.37284708548E-01 -0.48587305895E-01  0.68334102729E-01  0.51100000000E-03 0. -1.
</event>
<event>
 8    1  0.1119901E+005  0.1043930E+01  0.7957747E-01            NaN
         13   -1    0    0    0    0  0.00000000000E+00  0.00000000000E+00  0.74505805969E-08  0.10566000000E+00  0.10566000000E+00 0. -1.
     999900   -1    0    0    0    0 -0.00000000000E+00 -0.00000000000E+00 -0.74505805969E-08  0.93827000000E+00  0.93827000000E+00 0. -1.
     999902    2    1    2    0    0 -0.13229626794E-01 -0.16023639430E-01  0.94535989384E-02  0.10211012773E+01  0.10208460550E+01 0.  0.
     999903    2    3    3    0    0 -0.25994763765E-01  0.12409198734E+00 -0.59561704704E-02  0.12979167984E+00  0.27126649692E-01 0.  0.
         14    1    1    2    0    0  0.13229626794E-01  0.16023639430E-01 -0.94535989384E-02  0.22828722666E-01  0.00000000000E+00 0.  1.
     999901    1    3    3    0    0  0.12765136971E-01 -0.14011562677E+00  0.15409769409E-01  0.89130959749E+00  0.88000000000E+00 0.  1.
        -11    1    4    4    0    0 -0.28664625655E-01  0.74450707763E-01 -0.53840682246E-03  0.79781699989E-01  0.51100000000E-03 0. -1.
         11    1    4    4    0    0  0.26698618896E-02  0.49641279580E-01 -0.54177636479E-02  0.50009979852E-01  0.51100000000E-03 0.  1.
</event>
<event>
 8    1  0.1119901E+005  0.1043930E+01  0.7957747E-01            NaN
         13   -1    0    0    0    0  0.00000000000E+00  0.00000000000E+00  0.74505805969E-08  0.10566000000E+00  0.10566000000E+00 0. -1.
     999900   -1    0    0    0    0 -0.00000000000E+00 -0.00000000000E+00 -0.74505805969E-08  0.93827000000E+00  0.93827000000E+00 0. -1.
     999902    2    1    2    0    0 -0.44086583097E-02 -0.25567144970E-02 -0.23090812210E-01  0.10202834640E+01  0.10200094059E+01 0.  0.
     999903    2    3    3    0    0 -0.30357071229E-01 -0.15743294913E-01  0.12161558786E+00  0.12799026763E+00  0.20536657181E-01 0.  0.
         14    1    1    2    0    0  0.44086583097E-02  0.25567144970E-02  0.23090812210E-01  0.23646536018E-01  0.00000000000E+00 0. -1.
     999901    1    3    3    0    0  0.25948412920E-01  0.13186580416E-01 -0.14470640007E+00  0.89229319635E+00  0.88000000000E+00 0. -1.
        -11    1    4    4    0    0 -0.22408260971E-01 -0.20658866188E-01  0.95603048314E-01  0.10034501921E+00  0.51100000000E-03 0. -1.
         11    1    4    4    0    0 -0.79488102583E-02  0.49155712747E-02  0.26012539549E-01  0.27645248421E-01  0.51100000000E-03 0.  1.
</event>
<event>
 8    1  0.1119901E+005  0.1043930E+01  0.7957747E-01            NaN
         13   -1    0    0    0    0  0.00000000000E+00  0.00000000000E+00  0.74505805969E-08  0.10566000000E+00  0.10566000000E+00 0. -1.
     999900   -1    0    0    0    0 -0.00000000000E+00 -0.00000000000E+00 -0.74505805969E-08  0.93827000000E+00  0.93827000000E+00 0.  1.
     999902    2    1    2    0    0  0.12685523810E-01  0.13929324117E-01 -0.14452936420E-01  0.10201847698E+01  0.10199083923E+01 0.  0.
     999903    2    3    3    0    0 -0.11276916962E+00 -0.90594043636E-02 -0.60458548862E-01  0.12980065153E+00  0.19849800613E-01 0.  0.
         14    1    1    2    0    0 -0.12685523810E-01 -0.13929324117E-01  0.14452936420E-01  0.23745230171E-01  0.00000000000E+00 0.  1.
     999901    1    3    3    0    0  0.12545469343E+00  0.22988728481E-01  0.46005612442E-01  0.89038411830E+00  0.88000000000E+00 0. -1.
        -11    1    4    4    0    0 -0.57059676218E-01  0.40206474726E-02 -0.24609276914E-01  0.62272384629E-01  0.51100000000E-03 0.  1.
         11    1    4    4    0    0 -0.55709493398E-01 -0.13080051836E-01 -0.35849271948E-01  0.67528266903E-01  0.51100000000E-03 0. -1.
</event>
<event>
 8    1  0.1119901E+005  0.1043930E+01  0.7957747E-01            NaN
         13   -1    0    0    0    0  0.00000000000E+00  0.00000000000E+00  0.74505805969E-08  0.10566000000E+00  0.10566000000E+00 0.  1.
     999900   -1    0    0    0    0 -0.00000000000E+00 -0.00000000000E+00 -0.74505805969E-08  0.93827000000E+00  0.93827000000E+00 0. -1.
     999902    2    1    2    0    0  0.18876651633E-01  0.14178242785E-01  0.73521344039E-02  0.10192034065E+01  0.10189034201E+01 0.  0.
     999903    2    3    3    0    0  0.10950307684E+00 -0.35235973211E-01 -0.58859983466E-01  0.13069963148E+00  0.19631565670E-01 0.  0.
         14    1    1    2    0    0 -0.18876651633E-01 -0.14178242785E-01 -0.73521344039E-02  0.24726593490E-01  0.00000000000E+00 0.  1.
     999901    1    3    3    0    0 -0.90626425205E-01  0.49414215997E-01  0.66212117870E-01  0.88850377503E+00  0.88000000000E+00 0. -1.
        -11    1    4    4    0    0  0.89688605445E-01 -0.20935084003E-01 -0.43743192683E-01  0.10196103038E+00  0.51100000000E-03 0. -1.
         11    1    4    4    0    0  0.19814471392E-01 -0.14300889208E-01 -0.15116790783E-01  0.28738601101E-01  0.51100000000E-03 0.  1.
</event>
<event>
 8    1  0.1119901E+005  0.1043930E+01  0.7957747E-01            NaN
         13   -1    0    0    0    0  0.00000000000E+00  0.00000000000E+00  0.74505805969E-08  0.10566000000E+00  0.10566000000E+00 0.  1.
     999900   -1    0    0    0    0 -0.00000000000E+00 -0.00000000000E+00 -0.74505805969E-08  0.93827000000E+00  0.93827000000E+00 0.  1.
     999902    2    1    2    0    0  0.15118673563E-02  0.23911366329E-01  0.46753555555E-03  0.10199663239E+01  0.10196847768E+01 0.  0.
     999903    2    3    3    0    0 -0.11562648352E+00 -0.53095917666E-01 -0.17847518717E-02  0.12886779521E+00  0.20373098403E-01 0.  0.
         14    1    1    2    0    0 -0.15118673563E-02 -0.23911366329E-01 -0.46753555555E-03  0.23963676098E-01  0.00000000000E+00 0.  1.
     999901    1    3    3    0    0  0.11713835088E+00  0.77007283995E-01  0.22522874272E-02  0.89109852869E+00  0.88000000000E+00 0. -1.
        -11    1    4    4    0    0 -0.76170391707E-01 -0.24140463199E-01 -0.49923338077E-03  0.79907452038E-01  0.51100000000E-03 0.  1.
         11    1    4    4    0    0 -0.39456091818E-01 -0.28955454468E-01 -0.12855184909E-02  0.48960343174E-01  0.51100000000E-03 0. -1.
</event>
<event>
 8    1  0.1119901E+005  0.1043930E+01  0.7957747E-01            NaN
         13   -1    0    0    0    0  0.00000000000E+00  0.00000000000E+00  0.74505805969E-08  0.10566000000E+00  0.10566000000E+00 0.  1.
     999900   -1    0    0    0    0 -0.00000000000E+00 -0.00000000000E+00 -0.74505805969E-08  0.93827000000E+00  0.93827000000E+00 0.  1.
     999902    2    1    2    0    0 -0.22266115498E-01  0.92595624888E-03 -0.22719446729E-02  0.10215291289E+01  0.10212834876E+01 0.  0.
     999903    2    3    3    0    0 -0.10037281834E+00  0.16042233052E-01 -0.85088425441E-01  0.13406773347E+00  0.20051461602E-01 0.  0.
         14    1    1    2    0    0  0.22266115498E-01 -0.92595624888E-03  0.22719446729E-02  0.22400871120E-01  0.00000000000E+00 0.  1.
     999901    1    3    3    0    0  0.78106702838E-01 -0.15116276803E-01  0.82816480768E-01  0.88746139541E+00  0.88000000000E+00 0. -1.
        -11    1    4    4    0    0 -0.82377623750E-01  0.19762608340E-01 -0.64566328769E-01  0.10651622184E+00  0.51100000000E-03 0. -1.
         11    1    4    4    0    0 -0.17995194585E-01 -0.37203752884E-02 -0.20522096672E-01  0.27551511633E-01  0.51100000000E-03 0.  1.
</event>
<event>
 8    1  0.1119901E+005  0.1043930E+01  0.7957747E-01            NaN
         13   -1    0    0    0    0  0.00000000000E+00  0.00000000000E+00  0.74505805969E-08  0.10566000000E+00  0.10566000000E+00 0.  1.
     999900   -1    0    0    0    0 -0.00000000000E+00 -0.00000000000E+00 -0.74505805969E-08  0.93827000000E+00  0.93827000000E+00 0.  1.
     999902    2    1    2    0    0 -0.16743322019E-01  0.12633468080E-01 -0.11242316535E-01  0.10201322474E+01  0.10198546314E+01 0.  0.
     999903    2    3    3    0    0  0.87883002793E-01 -0.89435272972E-01  0.13700194317E-01  0.12772716864E+00  0.20110794428E-01 0.  0.
         14    1    1    2    0    0  0.16743322019E-01 -0.12633468080E-01  0.11242316535E-01  0.23797752605E-01  0.00000000000E+00 0.  1.
     999901    1    3    3    0    0 -0.10462632481E+00  0.10206874105E+00 -0.24942510852E-01  0.89240507876E+00  0.88000000000E+00 0. -1.
        -11    1    4    4    0    0  0.87681850939E-01 -0.87090268578E-01  0.10945498973E-01  0.12406807379E+00  0.51100000000E-03 0. -1.
         11    1    4    4    0    0  0.20115185434E-03 -0.23450043943E-02  0.27546953437E-02  0.36590948490E-02  0.51100000000E-03 0.  1.
</event>
<event>
 8    1  0.1119901E+005  0.1043930E+01  0.7957747E-01            NaN
         13   -1    0    0    0    0  0.00000000000E+00  0.00000000000E+00  0.74505805969E-08  0.10566000000E+00  0.10566000000E+00 0.  1.
     999900   -1    0    0    0    0 -0.00000000000E+00 -0.00000000000E+00 -0.74505805969E-08  0.93827000000E+00  0.93827000000E+00 0. -1.
     999902    2    1    2    0    0  0.18401827938E-01 -0.43389705362E-02  0.12435839682E-01  0.10213002840E+01  0.10210495414E+01 0.  0.
     999903    2    3    3    0    0  0.98516652046E-01  0.73461632751E-01 -0.43967738492E-01  0.13245120654E+00  0.22539251711E-01 0.  0.
         14    1    1    2    0    0 -0.18401827938E-01  0.43389705362E-02 -0.12435839682E-01  0.22629715981E-01  0.00000000000E+00 0. -1.
     999901    1    3    3    0    0 -0.80114824108E-01 -0.77800603287E-01  0.56403578175E-01  0.88884907748E+00  0.88000000000E+00 0.  1.
        -11    1    4    4    0    0  0.72866713952E-01  0.61251531738E-01 -0.25445276850E-01  0.98534417223E-01  0.51100000000E-03 0. -1.
         11    1    4    4    0    0  0.25649938094E-01  0.12210101013E-01 -0.18522461642E-01  0.33916789312E-01  0.51100000000E-03 0.  1.
</event>
<event>
 8    1  0.1119901E+005  0.1043930E+01  0.7957747E-01            NaN
         13   -1    0    0    0    0  0.00000000000E+00  0.00000000000E+00  0.74505805969E-08  0.10566000000E+00  0.10566000000E+00 0. -1.
     999900   -1    0    0    0    0 -0.00000000000E+00 -0.00000000000E+00 -0.74505805969E-08  0.93827000000E+00  0.93827000000E+00 0.  1.
     999902    2    1    2    0    0  0.56934587756E-02 -0.22304898176E-01  0.64690461877E-02  0.10200182348E+01  0.10197379207E+01 0.  0.
     999903    2    3    3    0    0 -0.72588192477E-01 -0.88470694984E-01  0.64868039040E-01  0.13214641301E+00  0.12597715088E-01 0.  0.
         14    1    1    2    0    0 -0.56934587756E-02  0.22304898176E-01 -0.64690461877E-02  0.23911765181E-01  0.00000000000E+00 0.  1.
     999901    1    3    3    0    0  0.78281651253E-01  0.66165796807E-01 -0.58398992852E-01  0.88787182181E+00  0.88000000000E+00 0. -1.
        -11    1    4    4    0    0 -0.36544805195E-01 -0.49146757190E-01  0.28290679255E-01  0.67465177557E-01  0.51100000000E-03 0. -1.
         11    1    4    4    0    0 -0.36043387282E-01 -0.39323937793E-01  0.36577359785E-01  0.64681235457E-01  0.51100000000E-03 0.  1.
</event>
<event>
 8    1  0.1119901E+005  0.1043930E+01  0.7957747E-01            NaN
         13   -1    0    0    0    0  0.00000000000E+00  0.00000000000E+00  0.74505805969E-08  0.10566000000E+00  0.10566000000E+00 0. -1.
     999900   -1    0    0    0    0 -0.00000000000E+00 -0.00000000000E+00 -0.74505805969E-08  0.93827000000E+00  0.93827000000E+00 0.  1.
     999902    2    1    2    0    0  0.10143789672E-01  0.20301637867E-01 -0.66989088736E-02  0.10202671948E+01  0.10199927551E+01 0.  0.
     999903    2    3    3    0    0  0.68033495719E-01 -0.61426124217E-01 -0.91186115711E-01  0.13056570933E+00  0.18187123965E-01 0.  0.
         14    1    1    2    0    0 -0.10143789672E-01 -0.20301637867E-01  0.66989088736E-02  0.23662805182E-01  0.00000000000E+00 0.  1.
     999901    1    3    3    0    0 -0.57889706047E-01  0.81727762084E-01  0.84487206838E-01  0.88970148549E+00  0.88000000000E+00 0. -1.
        -11    1    4    4    0    0  0.52153712065E-01 -0.43201233398E-01 -0.56027201083E-01  0.87895760031E-01  0.51100000000E-03 0.  1.
         11    1    4    4    0    0  0.15879783654E-01 -0.18224890818E-01 -0.35158914628E-01  0.42669949298E-01  0.51100000000E-03 0. -1.
</event>
<event>
 8    1  0.1119901E+005  0.1043930E+01  0.7957747E-01            NaN
         13   -1    0    0    0    0  0.00000000000E+00  0.00000000000E+00  0.74505805969E-08  0.10566000000E+00  0.10566000000E+00 0.  1.
     999900   -1    0    0    0    0 -0.00000000000E+00 -0.00000000000E+00 -0.74505805969E-08  0.93827000000E+00  0.93827000000E+00 0.  1.
     999902    2    1    2    0    0  0.86618020106E-02  0.20698581314E-01  0.94666873118E-02  0.10195768431E+01  0.10192859573E+01 0.  0.
     999903    2    3    3    0    0 -0.12164801577E+00  0.36495595779E-01 -0.13650329607E-01  0.12954055690E+00  0.21546603688E-01 0.  0.
         14    1    1    2    0    0 -0.86618020106E-02 -0.20698581314E-01 -0.94666873118E-02  0.24353156903E-01  0.00000000000E+00 0. -1.
     999901    1    3    3    0    0  0.13030981778E+00 -0.15797014466E-01  0.23117016919E-01  0.89003628620E+00  0.88000000000E+00 0.  1.
        -11    1    4    4    0    0 -0.51046989528E-01  0.10765129554E-01  0.40809242246E-02  0.52331617763E-01  0.51100000000E-03 0. -1.
         11    1    4    4    0    0 -0.70601026246E-01  0.25730466225E-01 -0.17731253832E-01  0.77208939136E-01  0.51100000000E-03 0.  1.
</event>
<event>
 8    1  0.1119901E+005  0.1043930E+01  0.7957747E-01            NaN
         13   -1    0    0    0    0  0.00000000000E+00  0.00000000000E+00  0.74505805969E-08  0.10566000000E+00  0.10566000000E+00 0.  1.
     999900   -1    0    0    0    0 -0.00000000000E+00 -0.00000000000E+00 -0.74505805969E-08  0.93827000000E+00  0.93827000000E+00 0.  1.
     999902    2    1    2    0    0 -0.22448552902E-01 -0.70745666448E-02  0.47906312822E-02  0.10199104836E+01  0.10196276072E+01 0.  0.
     999903    2    3    3    0    0 -0.32557313303E-01  0.11294350220E+00  0.52709549415E-01  0.13041470136E+00  0.20334315645E-01 0.  0.
         14    1    1    2    0    0  0.22448552902E-01  0.70745666448E-02 -0.47906312822E-02  0.24019516412E-01  0.00000000000E+00 0. -1.
     999901    1    3    3    0    0  0.10108760401E-01 -0.12001806884E+00 -0.47918918133E-01  0.88949578223E+00  0.88000000000E+00 0.  1.
        -11    1    4    4    0    0 -0.10730528525E-01  0.15318426051E-01  0.39271399281E-02  0.19117582696E-01  0.51100000000E-03 0. -1.
         11    1    4    4    0    0 -0.21826784778E-01  0.97625076148E-01  0.48782409487E-01  0.11129711866E+00  0.51100000000E-03 0.  1.
</event>
<event>
 8    1  0.1119901E+005  0.1043930E+01  0.7957747E-01            NaN
         13   -1    0    0    0    0  0.00000000000E+00  0.00000000000E+00  0.74505805969E-08  0.10566000000E+00  0.10566000000E+00 0. -1.
     999900   -1    0    0    0    0 -0.00000000000E+00 -0.00000000000E+00 -0.74505805969E-08  0.93827000000E+00  0.93827000000E+00 0.  1.
     999902    2    1    2    0    0  0.19918295580E-01  0.11282394142E-01 -0.59623486045E-02  0.10202745457E+01  0.10200002785E+01 0.  0.
     999903    2    3    3    0    0  0.34406069977E-01  0.85118311341E-01  0.92378845064E-01  0.13160552485E+00  0.18901285126E-01 0.  0.
         14    1    1    2    0    0 -0.19918295580E-01 -0.11282394142E-01  0.59623486045E-02  0.23655454282E-01  0.00000000000E+00 0.  1.
     999901    1    3    3    0    0 -0.14487774396E-01 -0.73835917199E-01 -0.98341193668E-01  0.88866902087E+00  0.88000000000E+00 0.  1.
        -11    1    4    4    0    0  0.15319023293E-01  0.42926387689E-01  0.32854256639E-01  0.56187280901E-01  0.51100000000E-03 0. -1.
         11    1    4    4    0    0  0.19087046683E-01  0.42191923652E-01  0.59524588425E-01  0.75418243951E-01  0.51100000000E-03 0.  1.
</event>
<event>
 8    1  0.1119901E+005  0.1043930E+01  0.7957747E-01            NaN
         13   -1    0    0    0    0  0.00000000000E+00  0.00000000000E+00  0.74505805969E-08  0.10566000000E+00  0.10566000000E+00 0.  1.
     999900   -1    0    0    0    0 -0.00000000000E+00 -0.00000000000E+00 -0.74505805969E-08  0.93827000000E+00  0.93827000000E+00 0.  1.
     999902    2    1    2    0    0 -0.25953086286E-02  0.18551142457E-01  0.17146050180E-01  0.10185357575E+01  0.10182191423E+01 0.  0.
     999903    2    3    3    0    0  0.73591641192E-01 -0.75419363891E-01  0.71186515139E-01  0.12861706505E+00  0.19261863411E-01 0.  0.
         14    1    1    2    0    0  0.25953086286E-02 -0.18551142457E-01 -0.17146050180E-01  0.25394242459E-01  0.00000000000E+00 0. -1.
     999901    1    3    3    0    0 -0.76186949820E-01  0.93970506348E-01 -0.54040464959E-01  0.88991869249E+00  0.88000000000E+00 0.  1.
        -11    1    4    4    0    0  0.41847834253E-01 -0.47093179473E-01  0.53060870962E-01  0.82369447811E-01  0.51100000000E-03 0. -1.
         11    1    4    4    0    0  0.31743806938E-01 -0.28326184419E-01  0.18125644177E-01  0.46247617241E-01  0.51100000000E-03 0.  1.
</event>
<event>
 8    1  0.1119901E+005  0.1043930E+01  0.7957747E-01            NaN
         13   -1    0    0    0    0  0.00000000000E+00  0.00000000000E+00  0.74505805969E-08  0.10566000000E+00  0.10566000000E+00 0. -1.
     999900   -1    0    0    0    0 -0.00000000000E+00 -0.00000000000E+00 -0.74505805969E-08  0.93827000000E+00  0.93827000000E+00 0. -1.
     999902    2    1    2    0    0  0.19742869871E-01  0.56490073394E-02 -0.13056534070E-01  0.10195955537E+01  0.10193051201E+01 0.  0.
     999903    2    3    3    0    0 -0.83260580171E-03  0.12231535332E+00  0.39104812612E-01  0.13012650277E+00  0.21023355178E-01 0.  0.
         14    1    1    2    0    0 -0.19742869871E-01 -0.56490073394E-02  0.13056534070E-01  0.24334446297E-01  0.00000000000E+00 0. -1.
     999901    1    3    3    0    0  0.20575475673E-01 -0.11666634598E+00 -0.52161346682E-01  0.88946905094E+00  0.88000000000E+00 0.  1.
        -11    1    4    4    0    0 -0.46097842799E-02  0.73869609009E-02  0.17552554679E-03  0.87240605612E-02  0.51100000000E-03 0. -1.
         11    1    4    4    0    0  0.37771784782E-02  0.11492839242E+00  0.38929287066E-01  0.12140244221E+00  0.51100000000E-03 0.  1.
</event>
<event>
 8    1  0.1119901E+005  0.1043930E+01  0.7957747E-01            NaN
         13   -1    0    0    0    0  0.00000000000E+00  0.00000000000E+00  0.74505805969E-08  0.10566000000E+00  0.10566000000E+00 0.  1.
     999900   -1    0    0    0    0 -0.00000000000E+00 -0.00000000000E+00 -0.74505805969E-08  0.93827000000E+00  0.93827000000E+00 0. -1.
     999902    2    1    2    0    0  0.11774194421E-01  0.18368256579E-01 -0.15221437026E-02  0.10220589821E+01  0.10218249466E+01 0.  0.
     999903    2    3    3    0    0  0.94884058790E-01  0.60903783305E-01 -0.70257953381E-01  0.13445482924E+00  0.20728378090E-01 0.  0.
         14    1    1    2    0    0 -0.11774194421E-01 -0.18368256579E-01  0.15221437026E-02  0.21871017934E-01  0.00000000000E+00 0.  1.
     999901    1    3    3    0    0 -0.83109864368E-01 -0.42535526726E-01  0.68735809678E-01  0.88760415283E+00  0.88000000000E+00 0.  1.
        -11    1    4    4    0    0  0.74417519399E-01  0.39181753040E-01 -0.58119741187E-01  0.10223180719E+00  0.51100000000E-03 0. -1.
         11    1    4    4    0    0  0.20466539391E-01  0.21722030265E-01 -0.12138212194E-01  0.32223022045E-01  0.51100000000E-03 0.  1.
</event>
<event>
 8    1  0.1119901E+005  0.1043930E+01  0.7957747E-01            NaN
         13   -1    0    0    0    0  0.00000000000E+00  0.00000000000E+00  0.74505805969E-08  0.10566000000E+00  0.10566000000E+00 0. -1.
     999900   -1    0    0    0    0 -0.00000000000E+00 -0.00000000000E+00 -0.74505805969E-08  0.93827000000E+00  0.93827000000E+00 0.  1.
     999902    2    1    2    0    0 -0.20563124144E-01 -0.10404778738E-01 -0.41374390188E-02  0.10205159039E+01  0.10202472691E+01 0.  0.
     999903    2    3    3    0    0  0.72023656436E-01 -0.32582759413E-01 -0.10112661009E+00  0.13008282158E+00  0.21116484185E-01 0.  0.
         14    1    1    2    0    0  0.20563124144E-01  0.10404778738E-01  0.41374390188E-02  0.23414096112E-01  0.00000000000E+00 0. -1.
     999901    1    3    3    0    0 -0.92586780580E-01  0.22177980675E-01  0.96989171071E-01  0.89043308231E+00  0.88000000000E+00 0. -1.
        -11    1    4    4    0    0  0.19206011971E-01 -0.19566534894E-01 -0.34007773436E-01  0.43686496297E-01  0.51100000000E-03 0.  1.
         11    1    4    4    0    0  0.52817644465E-01 -0.13016224519E-01 -0.67118836653E-01  0.86396325282E-01  0.51100000000E-03 0. -1.
</event>
<event>
 8    1  0.1119901E+005  0.1043930E+01  0.7957747E-01            NaN
         13   -1    0    0    0    0  0.00000000000E+00  0.00000000000E+00  0.74505805969E-08  0.10566000000E+00  0.10566000000E+00 0.  1.
     999900   -1    0    0    0    0 -0.00000000000E+00 -0.00000000000E+00 -0.74505805969E-08  0.93827000000E+00  0.93827000000E+00 0. -1.
     999902    2    1    2    0    0 -0.84302882161E-02 -0.16745785750E-01 -0.17223142963E-01  0.10184716467E+01  0.10181534105E+01 0.  0.
     999903    2    3    3    0    0  0.39304493186E-01 -0.10653717171E-01  0.11848832384E+00  0.12676915994E+00  0.19302646214E-01 0.  0.
         14    1    1    2    0    0  0.84302882161E-02  0.16745785750E-01  0.17223142963E-01  0.25458353311E-01  0.00000000000E+00 0.  1.
     999901    1    3    3    0    0 -0.47734781402E-01 -0.60920685788E-02 -0.13571146680E+00  0.89170248675E+00  0.88000000000E+00 0. -1.
        -11    1    4    4    0    0  0.16238274680E-01 -0.47136962732E-02  0.24258678258E-01  0.29574399215E-01  0.51100000000E-03 0.  1.
         11    1    4    4    0    0  0.23066218506E-01 -0.59400208975E-02  0.94229645583E-01  0.97194760724E-01  0.51100000000E-03 0. -1.
</event>
<event>
 8    1  0.1119901E+005  0.1043930E+01  0.7957747E-01            NaN
         13   -1    0    0    0    0  0.00000000000E+00  0.00000000000E+00  0.74505805969E-08  0.10566000000E+00  0.10566000000E+00 0.  1.
     999900   -1    0    0    0    0 -0.00000000000E+00 -0.00000000000E+00 -0.74505805969E-08  0.93827000000E+00  0.93827000000E+00 0.  1.
     999902    2    1    2    0    0 -0.12505346930E-02 -0.22248829292E-02 -0.21575223636E-01  0.10222043420E+01  0.10219734402E+01 0.  0.
     999903    2    3    3    0    0 -0.10570865239E+00 -0.54731795275E-01 -0.57692064821E-01  0.13373774137E+00  0.19685540865E-01 0.  0.
         14    1    1    2    0    0  0.12505346930E-02  0.22248829292E-02  0.21575223636E-01  0.21725658011E-01  0.00000000000E+00 0.  1.
     999901    1    3    3    0    0  0.10445811770E+00  0.52506912345E-01  0.36116841185E-01  0.88846660062E+00  0.88000000000E+00 0. -1.
        -11    1    4    4    0    0 -0.61081500778E-01 -0.37695770099E-01 -0.25687052835E-01  0.76236517660E-01  0.51100000000E-03 0. -1.
         11    1    4    4    0    0 -0.44627151614E-01 -0.17036025175E-01 -0.32005011986E-01  0.57501223710E-01  0.51100000000E-03 0.  1.
</event>
<event>
 8    1  0.1119901E+005  0.1043930E+01  0.7957747E-01            NaN
         13   -1    0    0    0    0  0.00000000000E+00  0.00000000000E+00  0.74505805969E-08  0.10566000000E+00  0.10566000000E+00 0.  1.
     999900   -1    0    0    0    0 -0.00000000000E+00 -0.00000000000E+00 -0.74505805969E-08  0.93827000000E+00  0.93827000000E+00 0. -1.
     999902    2    1    2    0    0 -0.70908328576E-02  0.56668308551E-02 -0.21492855535E-01  0.10205989966E+01  0.10203322871E+01 0.  0.
     999903    2    3    3    0    0 -0.10790444035E+00  0.19508475180E-01 -0.72625563799E-01  0.13326054454E+00  0.21446476739E-01 0.  0.
         14    1    1    2    0    0  0.70908328576E-02 -0.56668308551E-02  0.21492855535E-01  0.23331003442E-01  0.00000000000E+00 0.  1.
     999901    1    3    3    0    0  0.10081360749E+00 -0.13841644325E-01  0.51132708264E-01  0.88733845202E+00  0.88000000000E+00 0.  1.
        -11    1    4    4    0    0 -0.63745984054E-01  0.22135135445E-01 -0.42983231689E-01  0.80008337263E-01  0.51100000000E-03 0.  1.
         11    1    4    4    0    0 -0.44158456291E-01 -0.26266602655E-02 -0.29642332110E-01  0.53252207279E-01  0.51100000000E-03 0. -1.
</event>
<event>
 8    1  0.1119901E+005  0.1043930E+01  0.7957747E-01            NaN
         13   -1    0    0    0    0  0.00000000000E+00  0.00000000000E+00  0.74505805969E-08  0.10566000000E+00  0.10566000000E+00 0.  1.
     999900   -1    0    0    0    0 -0.00000000000E+00 -0.00000000000E+00 -0.74505805969E-08  0.93827000000E+00  0.93827000000E+00 0. -1.
     999902    2    1    2    0    0  0.16831621672E-01  0.10630118440E-01 -0.12438990612E-01  0.10204559421E+01  0.10201859136E+01 0.  0.
     999903    2    3    3    0    0 -0.26392119789E-01 -0.12123995798E+00 -0.29291615212E-01  0.12942170044E+00  0.22277935854E-01 0.  0.
         14    1    1    2    0    0 -0.16831621672E-01 -0.10630118440E-01  0.12438990612E-01  0.23474057885E-01  0.00000000000E+00 0. -1.
     999901    1    3    3    0    0  0.43223741461E-01  0.13187007642E+00  0.16852624599E-01  0.89103424167E+00  0.88000000000E+00 0. -1.
        -11    1    4    4    0    0 -0.12718119720E-01 -0.86271114298E-01 -0.11809993766E-01  0.88001095477E-01  0.51100000000E-03 0.  1.
         11    1    4    4    0    0 -0.13674000070E-01 -0.34968843680E-01 -0.17481621446E-01  0.41420604964E-01  0.51100000000E-03 0. -1.
</event>
<event>
 8    1  0.1119901E+005  0.1043930E+01  0.7957747E-01            NaN
         13   -1    0    0    0    0  0.00000000000E+00  0.00000000000E+00  0.74505805969E-08  0.10566000000E+00  0.10566000000E+00 0. -1.
     999900   -1    0    0    0    0 -0.00000000000E+00 -0.00000000000E+00 -0.74505805969E-08  0.93827000000E+00  0.93827000000E+00 0. -1.
     999902    2    1    2    0    0 -0.19863379573E-01  0.85237671020E-02 -0.76082730015E-02  0.10210150644E+01  0.10207578888E+01 0.  0.
     999903    2    3    3    0    0  0.89899646839E-02 -0.11880200295E+00 -0.48623160383E-01  0.13043851625E+00  0.21336809207E-01 0.  0.
         14    1    1    2    0    0  0.19863379573E-01 -0.85237671020E-02  0.76082730015E-02  0.22914935561E-01  0.00000000000E+00 0. -1.
     999901    1    3    3    0    0 -0.28853344257E-01  0.12732577005E+00  0.41014887382E-01  0.89057654819E+00  0.88000000000E+00 0.  1.
        -11    1    4    4    0    0  0.68374808243E-02 -0.56544809171E-01 -0.12116973561E-01  0.58233570709E-01  0.51100000000E-03 0. -1.
         11    1    4    4    0    0  0.21524838595E-02 -0.62257193777E-01 -0.36506186822E-01  0.72204945544E-01  0.51100000000E-03 0.  1.
</event>
<event>
 8    1  0.1119901E+005  0.1043930E+01  0.7957747E-01            NaN
         13   -1    0    0    0    0  0.00000000000E+00  0.00000000000E+00  0.74505805969E-08  0.10566000000E+00  0.10566000000E+00 0. -1.
     999900   -1    0    0    0    0 -0.00000000000E+00 -0.00000000000E+00 -0.74505805969E-08  0.93827000000E+00  0.93827000000E+00 0. -1.
     999902    2    1    2    0    0  0.49415462251E-02 -0.22784779525E-01  0.50389633918E-02  0.10200771970E+01  0.10197982799E+01 0.  0.
     999903    2    3    3    0    0  0.15676089618E-01  0.12434807884E+00 -0.14557437051E-01  0.12758219574E+00  0.18897438947E-01 0.  0.
         14    1    1    2    0    0 -0.49415462251E-02  0.22784779525E-01 -0.50389633918E-02  0.23852802962E-01  0.00000000000E+00 0. -1.
     999901    1    3    3    0    0 -0.10734543393E-01 -0.14713285837E+00  0.19596400443E-01  0.89249500130E+00  0.88000000000E+00 0.  1.
        -11    1    4    4    0    0  0.15814368410E-01  0.65945376699E-01 -0.20228394159E-02  0.67847180902E-01  0.51100000000E-03 0.  1.
         11    1    4    4    0    0 -0.13827879117E-03  0.58402702143E-01 -0.12534597635E-01  0.59735014836E-01  0.51100000000E-03 0. -1.
</event>
<event>
 8    1  0.1119901E+005  0.1043930E+01  0.7957747E-01            NaN
         13   -1    0    0    0    0  0.00000000000E+00  0.00000000000E+00  0.74505805969E-08  0.10566000000E+00  0.10566000000E+00 0.  1.
     999900   -1    0    0    0    0 -0.00000000000E+00 -0.00000000000E+00 -0.74505805969E-08  0.93827000000E+00  0.93827000000E+00 0.  1.
     999902    2    1    2    0    0  0.39597332485E-02 -0.22720173903E-01  0.56239140223E-02  0.10201915460E+01  0.10199153280E+01 0.  0.
     999903    2    3    3    0    0  0.10819622103E+00  0.31793897751E-01  0.64537534043E-01  0.13041188562E+00  0.11175528211E-01 0.  0.
         14    1    1    2    0    0 -0.39597332485E-02  0.22720173903E-01 -0.56239140223E-02  0.23738454004E-01  0.00000000000E+00 0.  1.
     999901    1    3    3    0    0 -0.10423648778E+00 -0.54514071654E-01 -0.58913620021E-01  0.88977966038E+00  0.88000000000E+00 0. -1.
        -11    1    4    4    0    0  0.49143993232E-01  0.12636031980E-01  0.35105233088E-01  0.61704455967E-01  0.51100000000E-03 0.  1.
         11    1    4    4    0    0  0.59052227801E-01  0.19157865771E-01  0.29432300955E-01  0.68707429654E-01  0.51100000000E-03 0. -1.
</event>
<event>
 8    1  0.1119901E+005  0.1043930E+01  0.7957747E-01            NaN
         13   -1    0    0    0    0  0.00000000000E+00  0.00000000000E+00  0.74505805969E-08  0.10566000000E+00  0.10566000000E+00 0. -1.
     999900   -1    0    0    0    0 -0.00000000000E+00 -0.00000000000E+00 -0.74505805969E-08  0.93827000000E+00  0.93827000000E+00 0.  1.
     999902    2    1    2    0    0  0.14636711842E-02 -0.23474681400E-01  0.44795838700E-02  0.10199869494E+01  0.10197058925E+01 0.  0.
     999903    2    3    3    0    0 -0.23091354369E-01  0.18200620791E-01 -0.12435127684E+00  0.12929218083E+00  0.19716864049E-01 0.  0.
         14    1    1    2    0    0 -0.14636711842E-02  0.23474681400E-01 -0.44795838700E-02  0.23943050595E-01  0.00000000000E+00 0.  1.
     999901    1    3    3    0    0  0.24555025554E-01 -0.41675302191E-01  0.12883086071E+00  0.89069476857E+00  0.88000000000E+00 0. -1.
        -11    1    4    4    0    0  0.13725496842E-03  0.11090046240E-01 -0.39272349480E-01  0.40811597852E-01  0.51100000000E-03 0.  1.
         11    1    4    4    0    0 -0.23228609338E-01  0.71105745505E-02 -0.85078927362E-01  0.88480582979E-01  0.51100000000E-03 0. -1.
</event>
<event>
 8    1  0.1119901E+005  0.1043930E+01  0.7957747E-01            NaN
         13   -1    0    0    0    0  0.00000000000E+00  0.00000000000E+00  0.74505805969E-08  0.10566000000E+00  0.10566000000E+00 0. -1.
     999900   -1    0    0    0    0 -0.00000000000E+00 -0.00000000000E+00 -0.74505805969E-08  0.93827000000E+00  0.93827000000E+00 0. -1.
     999902    2    1    2    0    0 -0.79425363537E-02 -0.16615275272E-01 -0.89777108110E-02  0.10234421854E+01  0.10232370968E+01 0.  0.
     999903    2    3    3    0    0  0.11226962690E+00  0.57240217060E-01  0.31255568740E-01  0.13129628100E+00  0.19516435463E-01 0.  0.
         14    1    1    2    0    0  0.79425363537E-02  0.16615275272E-01  0.89777108110E-02  0.20487814610E-01  0.00000000000E+00 0. -1.
     999901    1    3    3    0    0 -0.12021216325E+00 -0.73855492332E-01 -0.40233279551E-01  0.89214590439E+00  0.88000000000E+00 0. -1.
        -11    1    4    4    0    0  0.97374235027E-01  0.53388853745E-01  0.32881439270E-01  0.11581693106E+00  0.51100000000E-03 0.  1.
         11    1    4    4    0    0  0.14895391872E-01  0.38513633151E-02 -0.16258705299E-02  0.15479349934E-01  0.51100000000E-03 0. -1.
</event>
<event>
 8    1  0.1119901E+005  0.1043930E+01  0.7957747E-01            NaN
         13   -1    0    0    0    0  0.00000000000E+00  0.00000000000E+00  0.74505805969E-08  0.10566000000E+00  0.10566000000E+00 0.  1.
     999900   -1    0    0    0    0 -0.00000000000E+00 -0.00000000000E+00 -0.74505805969E-08  0.93827000000E+00  0.93827000000E+00 0.  1.
     999902    2    1    2    0    0  0.16867358677E-01 -0.62892120069E-02 -0.15576936795E-01  0.10201244768E+01  0.10198466773E+01 0.  0.
     999903    2    3    3    0    0 -0.11689979732E+00  0.69128582824E-02  0.47017340143E-01  0.12771986551E+00  0.19707449116E-01 0.  0.
         14    1    1    2    0    0 -0.16867358677E-01  0.62892120069E-02  0.15576936795E-01  0.23805523232E-01  0.00000000000E+00 0.  1.
     999901    1    3    3    0    0  0.13376715599E+00 -0.13202070289E-01 -0.62594276938E-01  0.89240461125E+00  0.88000000000E+00 0. -1.
        -11    1    4    4    0    0 -0.22481242005E-01 -0.43583964350E-02  0.15017792804E-01  0.27389725871E-01  0.51100000000E-03 0. -1.
         11    1    4    4    0    0 -0.94418555311E-01  0.11271254717E-01  0.31999547338E-01  0.10033013964E+00  0.51100000000E-03 0.  1.
</event>
<event>
 8    1  0.1119901E+005  0.1043930E+01  0.7957747E-01            NaN
         13   -1    0    0    0    0  0.00000000000E+00  0.00000000000E+00  0.74505805969E-08  0.10566000000E+00  0.10566000000E+00 0.  1.
     999900   -1    0    0    0    0 -0.00000000000E+00 -0.00000000000E+00 -0.74505805969E-08  0.93827000000E+00  0.93827000000E+00 0.  1.
     999902    2    1    2    0    0  0.15017303455E-01  0.82838443919E-02  0.15481750043E-01  0.10208253237E+01  0.10205638224E+01 0.  0.
     999903    2    3    3    0    0 -0.11298158026E+00  0.25183013655E-01  0.56749315091E-01  0.13044770268E+00  0.19927285684E-01 0.  0.
         14    1    1    2    0    0 -0.15017303455E-01 -0.82838443919E-02 -0.15481750043E-01  0.23104676267E-01  0.00000000000E+00 0. -1.
     999901    1    3    3    0    0  0.12799888372E+00 -0.16899169264E-01 -0.41267565048E-01  0.89037762106E+00  0.88000000000E+00 0. -1.
        -11    1    4    4    0    0 -0.31059670937E-01  0.23895737319E-04  0.89899368330E-02  0.32338580906E-01  0.51100000000E-03 0. -1.
         11    1    4    4    0    0 -0.81921909325E-01  0.25159117918E-01  0.47759378258E-01  0.98109121770E-01  0.51100000000E-03 0.  1.
</event>
<event>
 8    1  0.1119901E+005  0.1043930E+01  0.7957747E-01            NaN
         13   -1    0    0    0    0  0.00000000000E+00  0.00000000000E+00  0.74505805969E-08  0.10566000000E+00  0.10566000000E+00 0. -1.
     999900   -1    0    0    0    0 -0.00000000000E+00 -0.00000000000E+00 -0.74505805969E-08  0.93827000000E+00  0.93827000000E+00 0. -1.
     999902    2    1    2    0    0 -0.44500934462E-02  0.60907493557E-02 -0.22877122619E-01  0.10198413450E+01  0.10195568183E+01 0.  0.
     999903    2    3    3    0    0  0.96980059187E-02  0.67216452077E-01  0.10710563484E+00  0.12808350935E+00  0.17935038444E-01 0.  0.
         14    1    1    2    0    0  0.44500934462E-02 -0.60907493557E-02  0.22877122619E-01  0.24088654979E-01  0.00000000000E+00 0. -1.
     999901    1    3    3    0    0 -0.14148099365E-01 -0.61125702721E-01 -0.12998275746E+00  0.89175783567E+00  0.88000000000E+00 0. -1.
        -11    1    4    4    0    0  0.59021308951E-02  0.47130950362E-01  0.58533725286E-01  0.75383152946E-01  0.51100000000E-03 0.  1.
         11    1    4    4    0    0  0.37958750236E-02  0.20085501715E-01  0.48571909552E-01  0.52700356401E-01  0.51100000000E-03 0. -1.
</event>
<event>
 8    1  0.1119901E+005  0.1043930E+01  0.7957747E-01            NaN
         13   -1    0    0    0    0  0.00000000000E+00  0.00000000000E+00  0.74505805969E-08  0.10566000000E+00  0.10566000000E+00 0.  1.
     999900   -1    0    0    0    0 -0.00000000000E+00 -0.00000000000E+00 -0.74505805969E-08  0.93827000000E+00  0.93827000000E+00 0.  1.
     999902    2    1    2    0    0 -0.14936922632E-01  0.91873836856E-03 -0.18144212569E-01  0.10204104722E+01  0.10201393844E+01 0.  0.
     999903    2    3    3    0    0  0.11302050672E+00 -0.41440488975E-01 -0.44300231571E-01  0.12976377166E+00  0.19625922972E-01 0.  0.
         14    1    1    2    0    0  0.14936922632E-01 -0.91873836856E-03  0.18144212569E-01  0.23519527794E-01  0.00000000000E+00 0.  1.
     999901    1    3    3    0    0 -0.12795742935E+00  0.42359227344E-01  0.26156019001E-01  0.89064670055E+00  0.88000000000E+00 0.  1.
        -11    1    4    4    0    0  0.62158856493E-01 -0.19963231179E-01 -0.33956644199E-01  0.73590548618E-01  0.51100000000E-03 0. -1.
         11    1    4    4    0    0  0.50861650224E-01 -0.21477257796E-01 -0.10343587372E-01  0.56173223040E-01  0.51100000000E-03 0.  1.
</event>
<event>
 8    1  0.1119901E+005  0.1043930E+01  0.7957747E-01            NaN
         13   -1    0    0    0    0  0.00000000000E+00  0.00000000000E+00  0.74505805969E-08  0.10566000000E+00  0.10566000000E+00 0. -1.
     999900   -1    0    0    0    0 -0.00000000000E+00 -0.00000000000E+00 -0.74505805969E-08  0.93827000000E+00  0.93827000000E+00 0.  1.
     999902    2    1    2    0    0  0.30446616338E-02  0.11605015455E-01 -0.23212243932E-01  0.10178004264E+01  0.10174649642E+01 0.  0.
     999903    2    3    3    0    0 -0.91671133675E-01 -0.32213980596E-01 -0.83412873519E-01  0.12959138451E+00  0.19871642482E-01 0.  0.
         14    1    1    2    0    0 -0.30446616338E-02 -0.11605015455E-01  0.23212243932E-01  0.26129573600E-01  0.00000000000E+00 0. -1.
     999901    1    3    3    0    0  0.94715795309E-01  0.43818996051E-01  0.60200629588E-01  0.88820904189E+00  0.88000000000E+00 0. -1.
        -11    1    4    4    0    0 -0.62397498353E-01 -0.22141426722E-01 -0.68343633742E-01  0.95156733719E-01  0.51100000000E-03 0. -1.
         11    1    4    4    0    0 -0.29273635322E-01 -0.10072553874E-01 -0.15069239777E-01  0.34434650789E-01  0.51100000000E-03 0.  1.
</event>
<event>
 8    1  0.1119901E+005  0.1043930E+01  0.7957747E-01            NaN
         13   -1    0    0    0    0  0.00000000000E+00  0.00000000000E+00  0.74505805969E-08  0.10566000000E+00  0.10566000000E+00 0.  1.
     999900   -1    0    0    0    0 -0.00000000000E+00 -0.00000000000E+00 -0.74505805969E-08  0.93827000000E+00  0.93827000000E+00 0.  1.
     999902    2    1    2    0    0 -0.14596190846E-01 -0.16713208649E-01  0.65715690266E-02  0.10207877086E+01  0.10205253453E+01 0.  0.
     999903    2    3    3    0    0  0.55637253976E-01 -0.56859187696E-01 -0.10154020080E+00  0.13048855038E+00  0.19707311978E-01 0.  0.
         14    1    1    2    0    0  0.14596190846E-01  0.16713208649E-01 -0.65715690266E-02  0.23142291373E-01  0.00000000000E+00 0. -1.
     999901    1    3    3    0    0 -0.70233444821E-01  0.40145979048E-01  0.10811176983E+00  0.89029915825E+00  0.88000000000E+00 0. -1.
        -11    1    4    4    0    0  0.16982728023E-02 -0.85019905751E-02 -0.58606178834E-02  0.10477401263E-01  0.51100000000E-03 0.  1.
         11    1    4    4    0    0  0.53938981173E-01 -0.48357197121E-01 -0.95679582917E-01  0.12001114911E+00  0.51100000000E-03 0. -1.
</event>
<event>
 8    1  0.1119901E+005  0.1043930E+01  0.7957747E-01            NaN
         13   -1    0    0    0    0  0.00000000000E+00  0.00000000000E+00  0.74505805969E-08  0.10566000000E+00  0.10566000000E+00 0. -1.
     999900   -1    0    0    0    0 -0.00000000000E+00 -0.00000000000E+00 -0.74505805969E-08  0.93827000000E+00  0.93827000000E+00 0. -1.
     999902    2    1    2    0    0 -0.79037614840E-03  0.46483365360E-02  0.22853190918E-01  0.10205954749E+01  0.10203286840E+01 0.  0.
     999903    2    3    3    0    0  0.28404699173E-01 -0.11423292875E+00 -0.49428908221E-01  0.12918658470E+00  0.19747601162E-01 0.  0.
         14    1    1    2    0    0  0.79037614840E-03 -0.46483365360E-02 -0.22853190918E-01  0.23334525111E-01  0.00000000000E+00 0.  1.
     999901    1    3    3    0    0 -0.29195075321E-01  0.11888126529E+00  0.72282099139E-01  0.89140889019E+00  0.88000000000E+00 0.  1.
        -11    1    4    4    0    0  0.12160961818E-01 -0.80556516059E-01 -0.28354821476E-01  0.86264119389E-01  0.51100000000E-03 0.  1.
         11    1    4    4    0    0  0.16243737354E-01 -0.33676412691E-01 -0.21074086745E-01  0.42922465308E-01  0.51100000000E-03 0. -1.
</event>
<event>
 8    1  0.1119901E+005  0.1043930E+01  0.7957747E-01            NaN
         13   -1    0    0    0    0  0.00000000000E+00  0.00000000000E+00  0.74505805969E-08  0.10566000000E+00  0.10566000000E+00 0. -1.
     999900   -1    0    0    0    0 -0.00000000000E+00 -0.00000000000E+00 -0.74505805969E-08  0.93827000000E+00  0.93827000000E+00 0. -1.
     999902    2    1    2    0    0  0.21866533982E-02  0.27601610741E-02 -0.25050262893E-01  0.10186334466E+01  0.10183192932E+01 0.  0.
     999903    2    3    3    0    0  0.44537929901E-01 -0.35374860919E-01  0.11092742338E+00  0.12636787982E+00  0.20710862063E-01 0.  0.
         14    1    1    2    0    0 -0.21866533982E-02 -0.27601610741E-02  0.25050262893E-01  0.25296553387E-01  0.00000000000E+00 0. -1.
     999901    1    3    3    0    0 -0.42351276503E-01  0.38135021993E-01 -0.13597768627E+00  0.89226556679E+00  0.88000000000E+00 0. -1.
        -11    1    4    4    0    0  0.24457839606E-01 -0.17069214853E-01  0.78977752573E-01  0.84423281957E-01  0.51100000000E-03 0.  1.
         11    1    4    4    0    0  0.20080090295E-01 -0.18305646066E-01  0.31949670806E-01  0.41944597861E-01  0.51100000000E-03 0. -1.
</event>
<event>
 8    1  0.1119901E+005  0.1043930E+01  0.7957747E-01            NaN
         13   -1    0    0    0    0  0.00000000000E+00  0.00000000000E+00  0.74505805969E-08  0.10566000000E+00  0.10566000000E+00 0.  1.
     999900   -1    0    0    0    0 -0.00000000000E+00 -0.00000000000E+00 -0.74505805969E-08  0.93827000000E+00  0.93827000000E+00 0.  1.
     999902    2    1    2    0    0 -0.22634869554E-01  0.15399313401E-02  0.43930531622E-02  0.10208213950E+01  0.10205598037E+01 0.  0.
     999903    2    3    3    0    0  0.11580970731E+00 -0.34766017789E-01 -0.38022092804E-01  0.12824979149E+00  0.19538812097E-01 0.  0.
         14    1    1    2    0    0  0.22634869554E-01 -0.15399313401E-02 -0.43930531622E-02  0.23108604985E-01  0.00000000000E+00 0. -1.
     999901    1    3    3    0    0 -0.13844457686E+00  0.36305949129E-01  0.42415145966E-01  0.89257160352E+00  0.88000000000E+00 0. -1.
        -11    1    4    4    0    0  0.27114371038E-01 -0.10175740560E-01 -0.83047859043E-03  0.28977329560E-01  0.51100000000E-03 0.  1.
         11    1    4    4    0    0  0.88695336267E-01 -0.24590277229E-01 -0.37191614213E-01  0.99272461934E-01  0.51100000000E-03 0. -1.
</event>
<event>
 8    1  0.1119901E+005  0.1043930E+01  0.7957747E-01            NaN
         13   -1    0    0    0    0  0.00000000000E+00  0.00000000000E+00  0.74505805969E-08  0.10566000000E+00  0.10566000000E+00 0.  1.
     999900   -1    0    0    0    0 -0.00000000000E+00 -0.00000000000E+00 -0.74505805969E-08  0.93827000000E+00  0.93827000000E+00 0. -1.
     999902    2    1    2    0    0  0.22485813400E-01 -0.38075022664E-03  0.65832250711E-02  0.10204972104E+01  0.10202281416E+01 0.  0.
     999903    2    3    3    0    0 -0.26089917491E-01  0.39805606303E-01  0.12031040120E+00  0.13094203199E+00  0.20150757254E-01 0.  0.
         14    1    1    2    0    0 -0.22485813400E-01  0.38075022664E-03 -0.65832250711E-02  0.23432789576E-01  0.00000000000E+00 0. -1.
     999901    1    3    3    0    0  0.48575730891E-01 -0.40186356530E-01 -0.11372717613E+00  0.88955517843E+00  0.88000000000E+00 0.  1.
        -11    1    4    4    0    0 -0.44451387438E-02  0.24882594713E-01  0.63181150564E-01  0.68051610456E-01  0.51100000000E-03 0.  1.
         11    1    4    4    0    0 -0.21644778748E-01  0.14923011590E-01  0.57129250635E-01  0.62890421537E-01  0.51100000000E-03 0. -1.
</event>
<event>
 8    1  0.1119901E+005  0.1043930E+01  0.7957747E-01            NaN
         13   -1    0    0    0    0  0.00000000000E+00  0.00000000000E+00  0.74505805969E-08  0.10566000000E+00  0.10566000000E+00 0.  1.
     999900   -1    0    0    0    0 -0.00000000000E+00 -0.00000000000E+00 -0.74505805969E-08  0.93827000000E+00  0.93827000000E+00 0.  1.
     999902    2    1    2    0    0  0.37547420628E-03 -0.18687060831E-01 -0.16296029329E-01  0.10191326656E+01  0.10188309390E+01 0.  0.
     999903    2    3    3    0    0  0.98654857379E-01  0.20690976760E-01 -0.80863104631E-01  0.13043790682E+00  0.17728746189E-01 0.  0.
         14    1    1    2    0    0 -0.37547420628E-03  0.18687060831E-01  0.16296029329E-01  0.24797334438E-01  0.00000000000E+00 0.  1.
     999901    1    3    3    0    0 -0.98279383172E-01 -0.39378037591E-01  0.64567075302E-01  0.88869475874E+00  0.88000000000E+00 0. -1.
        -11    1    4    4    0    0  0.75586483864E-01  0.11428447531E-01 -0.68602470565E-01  0.10271555892E+00  0.51100000000E-03 0.  1.
         11    1    4    4    0    0  0.23068373515E-01  0.92625292291E-02 -0.12260634065E-01  0.27722347899E-01  0.51100000000E-03 0. -1.
</event>
<event>
 8    1  0.1119901E+005  0.1043930E+01  0.7957747E-01            NaN
         13   -1    0    0    0    0  0.00000000000E+00  0.00000000000E+00  0.74505805969E-08  0.10566000000E+00  0.10566000000E+00 0. -1.
     999900   -1    0    0    0    0 -0.00000000000E+00 -0.00000000000E+00 -0.74505805969E-08  0.93827000000E+00  0.93827000000E+00 0. -1.
     999902    2    1    2    0    0  0.11489369814E-01 -0.56252754576E-02 -0.20141265309E-01  0.10200695744E+01  0.10197904768E+01 0.  0.
     999903    2    3    3    0    0  0.19694016384E-02  0.11234566948E+00 -0.64474734502E-01  0.13104019908E+00  0.19725982715E-01 0.  0.
         14    1    1    2    0    0 -0.11489369814E-01  0.56252754576E-02  0.20141265309E-01  0.23860425623E-01  0.00000000000E+00 0. -1.
     999901    1    3    3    0    0  0.95199681752E-02 -0.11797094493E+00  0.44333469193E-01  0.88902937529E+00  0.88000000000E+00 0.  1.
        -11    1    4    4    0    0 -0.82314000164E-02  0.62028631982E-01 -0.31915756881E-01  0.70243745559E-01  0.51100000000E-03 0. -1.
         11    1    4    4    0    0  0.10200801655E-01  0.50317037493E-01 -0.32558977621E-01  0.60796453525E-01  0.51100000000E-03 0.  1.
</event>
<event>
 8    1  0.1119901E+005  0.1043930E+01  0.7957747E-01            NaN
         13   -1    0    0    0    0  0.00000000000E+00  0.00000000000E+00  0.74505805969E-08  0.10566000000E+00  0.10566000000E+00 0. -1.
     999900   -1    0    0    0    0 -0.00000000000E+00 -0.00000000000E+00 -0.74505805969E-08  0.93827000000E+00  0.93827000000E+00 0. -1.
     999902    2    1    2    0    0  0.25321087074E-01 -0.28250358330E-02  0.48022147158E-02  0.10180031887E+01  0.10176729792E+01 0.  0.
     999903    2    3    3    0    0  0.81468306091E-01 -0.94332886980E-01  0.34917373783E-01  0.13096704522E+00  0.19934028186E-01 0.  0.
         14    1    1    2    0    0 -0.25321087074E-01  0.28250358330E-02 -0.48022147158E-02  0.25926811301E-01  0.00000000000E+00 0.  1.
     999901    1    3    3    0    0 -0.56147219017E-01  0.91507851147E-01 -0.30115159067E-01  0.88703614347E+00  0.88000000000E+00 0. -1.
        -11    1    4    4    0    0  0.23310118191E-01 -0.15471719680E-01  0.43262517869E-02  0.28314542120E-01  0.51100000000E-03 0.  1.
         11    1    4    4    0    0  0.58158187899E-01 -0.78861167300E-01  0.30591121996E-01  0.10265250310E+00  0.51100000000E-03 0. -1.
</event>
<event>
 8    1  0.1119901E+005  0.1043930E+01  0.7957747E-01            NaN
         13   -1    0    0    0    0  0.00000000000E+00  0.00000000000E+00  0.74505805969E-08  0.10566000000E+00  0.10566000000E+00 0.  1.
     999900   -1    0    0    0    0 -0.00000000000E+00 -0.00000000000E+00 -0.74505805969E-08  0.93827000000E+00  0.93827000000E+00 0.  1.
     999902    2    1    2    0    0 -0.48389707282E-03  0.21449840142E-01 -0.80018159473E-02  0.10210311167E+01  0.10207743053E+01 0.  0.
     999903    2    3    3    0    0  0.72181631229E-01  0.76660990818E-01  0.77343106684E-01  0.13220475233E+00  0.20224860604E-01 0.  0.
         14    1    1    2    0    0  0.48389707282E-03 -0.21449840142E-01  0.80018159473E-02  0.22898883312E-01  0.00000000000E+00 0. -1.
     999901    1    3    3    0    0 -0.72665528302E-01 -0.55211150676E-01 -0.85344922631E-01  0.88882636436E+00  0.88000000000E+00 0.  1.
        -11    1    4    4    0    0  0.38969952689E-01  0.42186863846E-01  0.54443453616E-01  0.79137471885E-01  0.51100000000E-03 0. -1.
         11    1    4    4    0    0  0.33211678541E-01  0.34474126972E-01  0.22899653067E-01  0.53067280442E-01  0.51100000000E-03 0.  1.
</event>
<event>
 8    1  0.1119901E+005  0.1043930E+01  0.7957747E-01            NaN
         13   -1    0    0    0    0  0.00000000000E+00  0.00000000000E+00  0.74505805969E-08  0.10566000000E+00  0.10566000000E+00 0.  1.
     999900   -1    0    0    0    0 -0.00000000000E+00 -0.00000000000E+00 -0.74505805969E-08  0.93827000000E+00  0.93827000000E+00 0.  1.
     999902    2    1    2    0    0  0.11265523480E-01  0.17269067551E-01  0.11523036753E-01  0.10203098161E+01  0.10200363757E+01 0.  0.
     999903    2    3    3    0    0  0.10773042807E+00 -0.57738347796E-01  0.45444806026E-01  0.13121911393E+00  0.14617234001E-01 0.  0.
         14    1    1    2    0    0 -0.11265523480E-01 -0.17269067551E-01 -0.11523036753E-01  0.23620183941E-01  0.00000000000E+00 0. -1.
     999901    1    3    3    0    0 -0.96464904585E-01  0.75007415347E-01 -0.33921769272E-01  0.88909070212E+00  0.88000000000E+00 0.  1.
        -11    1    4    4    0    0  0.22576266832E-01 -0.19140927597E-01  0.10703048451E-01  0.31478235345E-01  0.51100000000E-03 0.  1.
         11    1    4    4    0    0  0.85154161234E-01 -0.38597420199E-01  0.34741757575E-01  0.99740878590E-01  0.51100000000E-03 0. -1.
</event>
<event>
 8    1  0.1119901E+005  0.1043930E+01  0.7957747E-01            NaN
         13   -1    0    0    0    0  0.00000000000E+00  0.00000000000E+00  0.74505805969E-08  0.10566000000E+00  0.10566000000E+00 0.  1.
     999900   -1    0    0    0    0 -0.00000000000E+00 -0.00000000000E+00 -0.74505805969E-08  0.93827000000E+00  0.93827000000E+00 0. -1.
     999902    2    1    2    0    0 -0.21089171816E-01  0.82972326176E-03 -0.18293139262E-01  0.10160000778E+01  0.10156161074E+01 0.  0.
     999903    2    3    3    0    0 -0.62294798188E-01  0.35593285597E-01 -0.10648679700E+00  0.12995011864E+00  0.20001788388E-01 0.  0.
         14    1    1    2    0    0  0.21089171816E-01 -0.82972326176E-03  0.18293139262E-01  0.27929922174E-01  0.00000000000E+00 0.  1.
     999901    1    3    3    0    0  0.41205626372E-01 -0.34763562335E-01  0.88193657735E-01  0.88604995919E+00  0.88000000000E+00 0.  1.
        -11    1    4    4    0    0 -0.18487892064E-01  0.45237202950E-02 -0.16703182894E-01  0.25328316921E-01  0.51100000000E-03 0.  1.
         11    1    4    4    0    0 -0.43806906124E-01  0.31069565302E-01 -0.89783614104E-01  0.10462180172E+00  0.51100000000E-03 0. -1.
</event>
<event>
 8    1  0.1119901E+005  0.1043930E+01  0.7957747E-01            NaN
         13   -1    0    0    0    0  0.00000000000E+00  0.00000000000E+00  0.74505805969E-08  0.10566000000E+00  0.10566000000E+00 0.  1.
     999900   -1    0    0    0    0 -0.00000000000E+00 -0.00000000000E+00 -0.74505805969E-08  0.93827000000E+00  0.93827000000E+00 0. -1.
     999902    2    1    2    0    0 -0.64161386831E-02 -0.31135663536E-02 -0.22362753941E-01  0.10204575929E+01  0.10201876029E+01 0.  0.
     999903    2    3    3    0    0 -0.12316467560E+00  0.11354197732E-01  0.36903504011E-01  0.13065310517E+00  0.20246238166E-01 0.  0.
         14    1    1    2    0    0  0.64161386831E-02  0.31135663536E-02  0.22362753941E-01  0.23472407096E-01  0.00000000000E+00 0.  1.
     999901    1    3    3    0    0  0.11674853691E+00 -0.14467764086E-01 -0.59266257952E-01  0.88980448774E+00  0.88000000000E+00 0.  1.
        -11    1    4    4    0    0 -0.64452916905E-01  0.77454921282E-02  0.29696528155E-01  0.71388486827E-01  0.51100000000E-03 0.  1.
         11    1    4    4    0    0 -0.58711758692E-01  0.36087056039E-02  0.72069758559E-02  0.59264618339E-01  0.51100000000E-03 0. -1.
</event>
<event>
 8    1  0.1119901E+005  0.1043930E+01  0.7957747E-01            NaN
         13   -1    0    0    0    0  0.00000000000E+00  0.00000000000E+00  0.74505805969E-08  0.10566000000E+00  0.10566000000E+00 0.  1.
     999900   -1    0    0    0    0 -0.00000000000E+00 -0.00000000000E+00 -0.74505805969E-08  0.93827000000E+00  0.93827000000E+00 0. -1.
     999902    2    1    2    0    0 -0.56147196146E-02  0.14965089869E-01  0.16885592906E-01  0.10206791454E+01  0.10204142863E+01 0.  0.
     999903    2    3    3    0    0  0.43518341688E-01 -0.78156385664E-01  0.93824822172E-01  0.13106950523E+00  0.19335233672E-01 0.  0.
         14    1    1    2    0    0  0.56147196146E-02 -0.14965089869E-01 -0.16885592906E-01  0.23250854585E-01  0.00000000000E+00 0. -1.
     999901    1    3    3    0    0 -0.49133061302E-01  0.93121475533E-01 -0.76939229266E-01  0.88960964019E+00  0.88000000000E+00 0. -1.
        -11    1    4    4    0    0  0.17895871546E-01 -0.15010933747E-01  0.23119018519E-01  0.32868533412E-01  0.51100000000E-03 0.  1.
         11    1    4    4    0    0  0.25622470142E-01 -0.63145451917E-01  0.70705803653E-01  0.98200971814E-01  0.51100000000E-03 0. -1.
</event>
<event>
 8    1  0.1119901E+005  0.1043930E+01  0.7957747E-01            NaN
         13   -1    0    0    0    0  0.00000000000E+00  0.00000000000E+00  0.74505805969E-08  0.10566000000E+00  0.10566000000E+00 0. -1.
     999900   -1    0    0    0    0 -0.00000000000E+00 -0.00000000000E+00 -0.74505805969E-08  0.93827000000E+00  0.93827000000E+00 0.  1.
     999902    2    1    2    0    0 -0.20862204106E-02  0.20111957048E-01  0.12060531145E-01  0.10203864331E+01  0.10201147844E+01 0.  0.
     999903    2    3    3    0    0  0.10031915380E+00 -0.50406404075E-01  0.62432889934E-01  0.13021955296E+00  0.21319663148E-01 0.  0.
         14    1    1    2    0    0  0.20862204106E-02 -0.20111957048E-01 -0.12060531145E-01  0.23543566922E-01  0.00000000000E+00 0.  1.
     999901    1    3    3    0    0 -0.10240537421E+00  0.70518361123E-01 -0.50372358788E-01  0.89016688011E+00  0.88000000000E+00 0.  1.
        -11    1    4    4    0    0  0.20600724446E-01 -0.16721125439E-01  0.22987705305E-01  0.35109565646E-01  0.51100000000E-03 0. -1.
         11    1    4    4    0    0  0.79718429359E-01 -0.33685278635E-01  0.39445184629E-01  0.95109987318E-01  0.51100000000E-03 0.  1.
</event>
<event>
 8    1  0.1119901E+005  0.1043930E+01  0.7957747E-01            NaN
         13   -1    0    0    0    0  0.00000000000E+00  0.00000000000E+00  0.74505805969E-08  0.10566000000E+00  0.10566000000E+00 0. -1.
     999900   -1    0    0    0    0 -0.00000000000E+00 -0.00000000000E+00 -0.74505805969E-08  0.93827000000E+00  0.93827000000E+00 0.  1.
     999902    2    1    2    0    0  0.13815275392E-01  0.15449718856E-01  0.39831129682E-02  0.10228250045E+01  0.10226072408E+01 0.  0.
     999903    2    3    3    0    0 -0.98578352156E-01  0.42679025293E-01 -0.73986921583E-01  0.13184066740E+00  0.19201726503E-01 0.  0.
         14    1    1    2    0    0 -0.13815275392E-01 -0.15449718856E-01 -0.39831129682E-02  0.21104995518E-01  0.00000000000E+00 0. -1.
     999901    1    3    3    0    0  0.11239362755E+00 -0.27229306437E-01  0.77970034551E-01  0.89098433708E+00  0.88000000000E+00 0. -1.
        -11    1    4    4    0    0 -0.72570914911E-01  0.30000908430E-01 -0.43357841447E-01  0.89703710813E-01  0.51100000000E-03 0. -1.
         11    1    4    4    0    0 -0.26007437245E-01  0.12678116863E-01 -0.30629080136E-01  0.42136956585E-01  0.51100000000E-03 0.  1.
</event>
<event>
 8    1  0.1119901E+005  0.1043930E+01  0.7957747E-01            NaN
         13   -1    0    0    0    0  0.00000000000E+00  0.00000000000E+00  0.74505805969E-08  0.10566000000E+00  0.10566000000E+00 0. -1.
     999900   -1    0    0    0    0 -0.00000000000E+00 -0.00000000000E+00 -0.74505805969E-08  0.93827000000E+00  0.93827000000E+00 0.  1.
     999902    2    1    2    0    0 -0.32757092610E-02 -0.22854357101E-01 -0.41663435399E-02  0.10204691746E+01  0.10201994540E+01 0.  0.
     999903    2    3    3    0    0 -0.48439702884E-01  0.10237733293E+00 -0.59074397435E-01  0.12876425879E+00  0.16215017622E-01 0.  0.
         14    1    1    2    0    0  0.32757092610E-02  0.22854357101E-01  0.41663435399E-02  0.23460825394E-01  0.00000000000E+00 0.  1.
     999901    1    3    3    0    0  0.45163993623E-01 -0.12523169003E+00  0.54908053895E-01  0.89170491582E+00  0.88000000000E+00 0. -1.
        -11    1    4    4    0    0 -0.23610284855E-01  0.68027368809E-01 -0.38233256995E-01  0.81530433088E-01  0.51100000000E-03 0. -1.
         11    1    4    4    0    0 -0.24829418029E-01  0.34349964119E-01 -0.20841140441E-01  0.47233825702E-01  0.51100000000E-03 0.  1.
</event>
<event>
 8    1  0.1119901E+005  0.1043930E+01  0.7957747E-01            NaN
         13   -1    0    0    0    0  0.00000000000E+00  0.00000000000E+00  0.74505805969E-08  0.10566000000E+00  0.10566000000E+00 0.  1.
     999900   -1    0    0    0    0 -0.00000000000E+00 -0.00000000000E+00 -0.74505805969E-08  0.93827000000E+00  0.93827000000E+00 0. -1.
     999902    2    1    2    0    0  0.83646542672E-02 -0.12475660361E-01  0.18924724484E-01  0.10197689831E+01  0.10194827238E+01 0.  0.
     999903    2    3    3    0    0  0.67585698424E-01 -0.44529500442E-01 -0.98889218104E-01  0.12936755348E+00  0.20153992069E-01 0.  0.
         14    1    1    2    0    0 -0.83646542672E-02  0.12475660361E-01 -0.18924724484E-01  0.24161016933E-01  0.00000000000E+00 0. -1.
     999901    1    3    3    0    0 -0.59221044157E-01  0.32053840082E-01  0.11781394259E+00  0.89040142958E+00  0.88000000000E+00 0.  1.
        -11    1    4    4    0    0  0.54921880869E-01 -0.34040530224E-01 -0.89614983237E-01  0.11048202133E+00  0.51100000000E-03 0. -1.
         11    1    4    4    0    0  0.12663817555E-01 -0.10488970218E-01 -0.92742348664E-02  0.18885532152E-01  0.51100000000E-03 0.  1.
</event>
<event>
 8    1  0.1119901E+005  0.1043930E+01  0.7957747E-01            NaN
         13   -1    0    0    0    0  0.00000000000E+00  0.00000000000E+00  0.74505805969E-08  0.10566000000E+00  0.10566000000E+00 0.  1.
     999900   -1    0    0    0    0 -0.00000000000E+00 -0.00000000000E+00 -0.74505805969E-08  0.93827000000E+00  0.93827000000E+00 0.  1.
     999902    2    1    2    0    0  0.15218860552E-01  0.10845680066E-01  0.14263378349E-01  0.10204207156E+01  0.10201498666E+01 0.  0.
     999903    2    3    3    0    0  0.74348276704E-01  0.73160145579E-02 -0.10490335969E+00  0.13041540219E+00  0.20549256327E-01 0.  0.
         14    1    1    2    0    0 -0.15218860552E-01 -0.10845680066E-01 -0.14263378349E-01  0.23509284432E-01  0.00000000000E+00 0. -1.
     999901    1    3    3    0    0 -0.59129416152E-01  0.35296655079E-02  0.11916673804E+00  0.89000531338E+00  0.88000000000E+00 0. -1.
        -11    1    4    4    0    0  0.37500283872E-01 -0.64862409470E-02 -0.48807410433E-01  0.61893190629E-01  0.51100000000E-03 0. -1.
         11    1    4    4    0    0  0.36847992832E-01  0.13802255505E-01 -0.56095949256E-01  0.68522211557E-01  0.51100000000E-03 0.  1.
</event>
<event>
 8    1  0.1119901E+005  0.1043930E+01  0.7957747E-01            NaN
         13   -1    0    0    0    0  0.00000000000E+00  0.00000000000E+00  0.74505805969E-08  0.10566000000E+00  0.10566000000E+00 0. -1.
     999900   -1    0    0    0    0 -0.00000000000E+00 -0.00000000000E+00 -0.74505805969E-08  0.93827000000E+00  0.93827000000E+00 0. -1.
     999902    2    1    2    0    0  0.20523280507E-02 -0.23553492936E-01  0.30674419213E-02  0.10200891049E+01  0.10198104695E+01 0.  0.
     999903    2    3    3    0    0 -0.31149926137E-01 -0.99854813263E-01  0.79498404390E-01  0.13286536017E+00  0.19796615924E-01 0.  0.
         14    1    1    2    0    0 -0.20523280507E-02  0.23553492936E-01 -0.30674419213E-02  0.23840895114E-01  0.00000000000E+00 0. -1.
     999901    1    3    3    0    0  0.33202254188E-01  0.76301320327E-01 -0.76430962469E-01  0.88722374472E+00  0.88000000000E+00 0. -1.
        -11    1    4    4    0    0 -0.19593838674E-02  0.26453682297E-03  0.25179549843E-02  0.32419721118E-02  0.51100000000E-03 0. -1.
         11    1    4    4    0    0 -0.29190542269E-01 -0.10011935009E+00  0.76980449406E-01  0.12962338806E+00  0.51100000000E-03 0.  1.
</event>
<event>
 7    1  0.1119901E+005  0.1043930E+01  0.7957747E-01            NaN
         13   -1    0    0    0    0  0.00000000000E+00  0.00000000000E+00  0.74505805969E-08  0.10566000000E+00  0.10566000000E+00 0. -1.
     999900   -1    0    0    0    0 -0.00000000000E+00 -0.00000000000E+00 -0.74505805969E-08  0.93827000000E+00  0.93827000000E+00 0. -1.
     999903    2    1    2    0    0  0.91668171725E-01  0.54236130302E-01  0.33433638971E-01  0.11297310547E+00  0.17335016815E-01 0.  0.
         14    1    1    2    0    0 -0.53075473685E-02  0.32518783967E-01  0.23794447963E-01  0.40642553114E-01  0.00000000000E+00 0.  1.
     999901    1    1    2    0    0 -0.86360624357E-01 -0.86754914269E-01 -0.57228086934E-01  0.89031434141E+00  0.88000000000E+00 0. -1.
        -11    1    3    3    0    0  0.34759707993E-01  0.20200653217E-01  0.21507082807E-01  0.45597362007E-01  0.51100000000E-03 0. -1.
         11    1    3    3    0    0  0.56908463732E-01  0.34035477085E-01  0.11926556165E-01  0.67375743467E-01  0.51100000000E-03 0.  1.
</event>
<event>
 8    1  0.1119901E+005  0.1043930E+01  0.7957747E-01            NaN
         13   -1    0    0    0    0  0.00000000000E+00  0.00000000000E+00  0.74505805969E-08  0.10566000000E+00  0.10566000000E+00 0. -1.
     999900   -1    0    0    0    0 -0.00000000000E+00 -0.00000000000E+00 -0.74505805969E-08  0.93827000000E+00  0.93827000000E+00 0. -1.
     999902    2    1    2    0    0 -0.23209245221E-01 -0.37755612423E-02 -0.16481656786E-02  0.10203579747E+01  0.10200856612E+01 0.  0.
     999903    2    3    3    0    0  0.10118849414E+00  0.75149406137E-01 -0.12489518112E-01  0.12804553898E+00  0.18791684328E-01 0.  0.
         14    1    1    2    0    0  0.23209245221E-01  0.37755612423E-02  0.16481656786E-02  0.23572025296E-01  0.00000000000E+00 0. -1.
     999901    1    3    3    0    0 -0.12439773936E+00 -0.78924967380E-01  0.10841352434E-01  0.89231243573E+00  0.88000000000E+00 0. -1.
        -11    1    4    4    0    0  0.46293520591E-01  0.23204833897E-01 -0.29769090585E-02  0.51871740606E-01  0.51100000000E-03 0. -1.
         11    1    4    4    0    0  0.54894973548E-01  0.51944572240E-01 -0.95126090540E-02  0.76173798370E-01  0.51100000000E-03 0.  1.
</event>
<event>
 8    1  0.1119901E+005  0.1043930E+01  0.7957747E-01            NaN
         13   -1    0    0    0    0  0.00000000000E+00  0.00000000000E+00  0.74505805969E-08  0.10566000000E+00  0.10566000000E+00 0.  1.
     999900   -1    0    0    0    0 -0.00000000000E+00 -0.00000000000E+00 -0.74505805969E-08  0.93827000000E+00  0.93827000000E+00 0.  1.
     999902    2    1    2    0    0 -0.12455425546E-01 -0.37757786886E-02  0.19696901034E-01  0.10203214837E+01  0.10200483166E+01 0.  0.
     999903    2    3    3    0    0 -0.10874843289E+00  0.70284090104E-02  0.74129329273E-01  0.13333108751E+00  0.20159396046E-01 0.  0.
         14    1    1    2    0    0  0.12455425546E-01  0.37757786886E-02 -0.19696901034E-01  0.23608516273E-01  0.00000000000E+00 0. -1.
     999901    1    3    3    0    0  0.96293007345E-01 -0.10804187699E-01 -0.54432428239E-01  0.88699039622E+00  0.88000000000E+00 0.  1.
        -11    1    4    4    0    0 -0.43232235231E-01  0.37856173855E-02  0.41568111256E-01  0.60095973713E-01  0.51100000000E-03 0.  1.
         11    1    4    4    0    0 -0.65516197660E-01  0.32427916250E-02  0.32561218017E-01  0.73235113799E-01  0.51100000000E-03 0. -1.
</event>
<event>
 8    1  0.1119901E+005  0.1043930E+01  0.7957747E-01            NaN
         13   -1    0    0    0    0  0.00000000000E+00  0.00000000000E+00  0.74505805969E-08  0.10566000000E+00  0.10566000000E+00 0. -1.
     999900   -1    0    0    0    0 -0.00000000000E+00 -0.00000000000E+00 -0.74505805969E-08  0.93827000000E+00  0.93827000000E+00 0. -1.
     999902    2    1    2    0    0 -0.17053830625E-01  0.86911163246E-02  0.14012546811E-01  0.10202082777E+01  0.10199324535E+01 0.  0.
     999903    2    3    3    0    0 -0.12895865669E+00  0.14105085971E-01 -0.18217916608E-01  0.13251981659E+00  0.20008016386E-01 0.  0.
         14    1    1    2    0    0  0.17053830625E-01 -0.86911163246E-02 -0.14012546811E-01  0.23721722326E-01  0.00000000000E+00 0.  1.
     999901    1    3    3    0    0  0.11190482606E+00 -0.54139696462E-02  0.32230463419E-01  0.88768846108E+00  0.88000000000E+00 0. -1.
        -11    1    4    4    0    0 -0.86795883542E-01  0.10386779124E-02 -0.77304027607E-02  0.87147142807E-01  0.51100000000E-03 0.  1.
         11    1    4    4    0    0 -0.42162773146E-01  0.13066408058E-01 -0.10487513847E-01  0.45372673787E-01  0.51100000000E-03 0. -1.
</event>
<event>
 7    1  0.1119901E+005  0.1043930E+01  0.7957747E-01            NaN
         13   -1    0    0    0    0  0.00000000000E+00  0.00000000000E+00  0.74505805969E-08  0.10566000000E+00  0.10566000000E+00 0. -1.
     999900   -1    0    0    0    0 -0.00000000000E+00 -0.00000000000E+00 -0.74505805969E-08  0.93827000000E+00  0.93827000000E+00 0.  1.
     999902    2    1    2    0    0  0.89994931745E-02  0.17464834543E-01 -0.12437534094E-01  0.10206769663E+01  0.10204120569E+01 0.  0.
         14    1    1    2    0    0 -0.89994931745E-02 -0.17464834543E-01  0.12437534094E-01  0.23253033724E-01  0.00000000000E+00 0.  1.
     999901    1    3    3    0    0 -0.53915920069E-01  0.10482594458E+00  0.44272105954E-01  0.88896311760E+00  0.88000000000E+00 0.  1.
        -11    1    3    3    0    0  0.31662020876E-01 -0.60586893205E-01 -0.93982714602E-02  0.69006114379E-01  0.51100000000E-03 0. -1.
         11    1    3    3    0    0  0.31253392367E-01 -0.26774216834E-01 -0.47311368588E-01  0.62707734293E-01  0.51100000000E-03 0.  1.
</event>
<event>
 8    1  0.1119901E+005  0.1043930E+01  0.7957747E-01            NaN
         13   -1    0    0    0    0  0.00000000000E+00  0.00000000000E+00  0.74505805969E-08  0.10566000000E+00  0.10566000000E+00 0. -1.
     999900   -1    0    0    0    0 -0.00000000000E+00 -0.00000000000E+00 -0.74505805969E-08  0.93827000000E+00  0.93827000000E+00 0. -1.
     999902    2    1    2    0    0 -0.18592025989E-01 -0.51940360013E-02 -0.12832454449E-01  0.10207499800E+01  0.10204867507E+01 0.  0.
     999903    2    3    3    0    0 -0.11247245401E+00  0.59690230600E-01 -0.33977796248E-01  0.13312921170E+00  0.18865837665E-01 0.  0.
         14    1    1    2    0    0  0.18592025989E-01  0.51940360013E-02  0.12832454449E-01  0.23180020008E-01  0.00000000000E+00 0. -1.
     999901    1    3    3    0    0  0.93880428021E-01 -0.64884266602E-01  0.21145341799E-01  0.88762076829E+00  0.88000000000E+00 0.  1.
        -11    1    4    4    0    0 -0.84826529396E-01  0.44193511716E-01 -0.16923321102E-01  0.97135299893E-01  0.51100000000E-03 0. -1.
         11    1    4    4    0    0 -0.27645924614E-01  0.15496718885E-01 -0.17054475146E-01  0.35993911811E-01  0.51100000000E-03 0.  1.
</event>
<event>
 8    1  0.1119901E+005  0.1043930E+01  0.7957747E-01            NaN
         13   -1    0    0    0    0  0.00000000000E+00  0.00000000000E+00  0.74505805969E-08  0.10566000000E+00  0.10566000000E+00 0. -1.
     999900   -1    0    0    0    0 -0.00000000000E+00 -0.00000000000E+00 -0.74505805969E-08  0.93827000000E+00  0.93827000000E+00 0.  1.
     999902    2    1    2    0    0 -0.11098891128E-01 -0.71739944803E-02  0.63325600372E-02  0.10292755502E+01  0.10291712226E+01 0.  0.
     999903    2    3    3    0    0  0.28529999086E-01 -0.11183909990E+00 -0.73822886511E-01  0.13857350756E+00  0.20757006270E-01 0.  0.
         14    1    1    2    0    0  0.11098891128E-01  0.71739944803E-02 -0.63325600372E-02  0.14654449758E-01  0.00000000000E+00 0. -1.
     999901    1    3    3    0    0 -0.39628890214E-01  0.10466510542E+00  0.80155446548E-01  0.89070204269E+00  0.88000000000E+00 0. -1.
        -11    1    4    4    0    0  0.41889026026E-02 -0.51922693632E-01 -0.26586433500E-01  0.58486003336E-01  0.51100000000E-03 0.  1.
         11    1    4    4    0    0  0.24341096484E-01 -0.59916406270E-01 -0.47236453011E-01  0.80087504221E-01  0.51100000000E-03 0. -1.
</event>
<event>
 8    1  0.1162043E+005  0.1043930E+01  0.7957747E-01            NaN
         13   -1    0    0    0    0  0.00000000000E+00  0.00000000000E+00  0.74505805969E-08  0.10566000000E+00  0.10566000000E+00 0. -1.
     999900   -1    0    0    0    0 -0.00000000000E+00 -0.00000000000E+00 -0.74505805969E-08  0.93827000000E+00  0.93827000000E+00 0.  1.
     999902    2    1    2    0    0  0.18016401183E-01  0.72947346812E-02  0.14665462781E-01  0.10195808796E+01  0.10192900914E+01 0.  0.
     999903    2    3    3    0    0 -0.94652249602E-02 -0.93506586587E-01 -0.84608340013E-01  0.12785702433E+00  0.18862005484E-01 0.  0.
         14    1    1    2    0    0 -0.18016401183E-01 -0.72947346812E-02 -0.14665462781E-01  0.24349120400E-01  0.00000000000E+00 0.  1.
     999901    1    3    3    0    0  0.27481626143E-01  0.10080132127E+00  0.99273802794E-01  0.89172385527E+00  0.88000000000E+00 0. -1.
        -11    1    4    4    0    0 -0.14255366553E-01 -0.57646638073E-01 -0.47682598959E-01  0.76159318019E-01  0.51100000000E-03 0.  1.
         11    1    4    4    0    0  0.47901415929E-02 -0.35859948514E-01 -0.36925741055E-01  0.51697706307E-01  0.51100000000E-03 0. -1.
</event>
<event>
 8    1  0.1119901E+005  0.1043930E+01  0.7957747E-01            NaN
         13   -1    0    0    0    0  0.00000000000E+00  0.00000000000E+00  0.74505805969E-08  0.10566000000E+00  0.10566000000E+00 0.  1.
     999900   -1    0    0    0    0 -0.00000000000E+00 -0.00000000000E+00 -0.74505805969E-08  0.93827000000E+00  0.93827000000E+00 0. -1.
     999902    2    1    2    0    0  0.86705970889E-02  0.25179279495E-01 -0.90878039814E-02  0.10157917067E+01  0.10154019046E+01 0.  0.
     999903    2    3    3    0    0 -0.74340495748E-01  0.97202449926E-01  0.33319727284E-01  0.12794229528E+00  0.16858265502E-01 0.  0.
         14    1    1    2    0    0 -0.86705970889E-02 -0.25179279495E-01  0.90878039814E-02  0.28138293320E-01  0.00000000000E+00 0.  1.
     999901    1    3    3    0    0  0.83011092837E-01 -0.72023170431E-01 -0.42407531265E-01  0.88784941140E+00  0.88000000000E+00 0. -1.
        -11    1    4    4    0    0 -0.14248041426E-01  0.21211528465E-01  0.20709614706E-03  0.25558553052E-01  0.51100000000E-03 0.  1.
         11    1    4    4    0    0 -0.60092454322E-01  0.75990921461E-01  0.33112631136E-01  0.10238374223E+00  0.51100000000E-03 0. -1.
</event>
<event>
 8    1  0.1119901E+005  0.1043930E+01  0.7957747E-01            NaN
         13   -1    0    0    0    0  0.00000000000E+00  0.00000000000E+00  0.74505805969E-08  0.10566000000E+00  0.10566000000E+00 0.  1.
     999900   -1    0    0    0    0 -0.00000000000E+00 -0.00000000000E+00 -0.74505805969E-08  0.93827000000E+00  0.93827000000E+00 0. -1.
     999902    2    1    2    0    0  0.17257495056E-01  0.13067114649E-01 -0.97179786813E-02  0.10202021739E+01  0.10199262061E+01 0.  0.
     999903    2    3    3    0    0 -0.17110638368E-01  0.12171500363E+00 -0.44724768302E-01  0.13216444516E+00  0.18968911693E-01 0.  0.
         14    1    1    2    0    0 -0.17257495056E-01 -0.13067114649E-01  0.97179786813E-02  0.23727826081E-01  0.00000000000E+00 0. -1.
     999901    1    3    3    0    0  0.34368133424E-01 -0.10864788898E+00  0.35006789620E-01  0.88803772876E+00  0.88000000000E+00 0. -1.
        -11    1    4    4    0    0  0.16337175456E-02  0.32934075286E-01 -0.18000880824E-01  0.37571467624E-01  0.51100000000E-03 0.  1.
         11    1    4    4    0    0 -0.18744355914E-01  0.88780928346E-01 -0.26723887477E-01  0.94592977538E-01  0.51100000000E-03 0. -1.
</event>
<event>
 8    1  0.1119901E+005  0.1043930E+01  0.7957747E-01            NaN
         13   -1    0    0    0    0  0.00000000000E+00  0.00000000000E+00  0.74505805969E-08  0.10566000000E+00  0.10566000000E+00 0. -1.
     999900   -1    0    0    0    0 -0.00000000000E+00 -0.00000000000E+00 -0.74505805969E-08  0.93827000000E+00  0.93827000000E+00 0.  1.
     999902    2    1    2    0    0  0.18115675130E-01 -0.20722933406E-02 -0.15046070338E-01  0.10202898579E+01  0.10200159498E+01 0.  0.
     999903    2    3    3    0    0 -0.20196618676E-01  0.13697912519E-01 -0.12849921365E+00  0.13203981036E+00  0.18081133764E-01 0.  0.
         14    1    1    2    0    0 -0.18115675130E-01  0.20722933406E-02  0.15046070338E-01  0.23640142083E-01  0.00000000000E+00 0.  1.
     999901    1    3    3    0    0  0.38312293806E-01 -0.15770205860E-01  0.11345314332E+00  0.88825004755E+00  0.88000000000E+00 0. -1.
        -11    1    4    4    0    0 -0.12063443368E-01  0.13602853689E-01 -0.51636918696E-01  0.54746660061E-01  0.51100000000E-03 0.  1.
         11    1    4    4    0    0 -0.81331753071E-02  0.95058830520E-04 -0.76862294957E-01  0.77293150303E-01  0.51100000000E-03 0. -1.
</event>
<event>
 8    1  0.1119901E+005  0.1043930E+01  0.7957747E-01            NaN
         13   -1    0    0    0    0  0.00000000000E+00  0.00000000000E+00  0.74505805969E-08  0.10566000000E+00  0.10566000000E+00 0. -1.
     999900   -1    0    0    0    0 -0.00000000000E+00 -0.00000000000E+00 -0.74505805969E-08  0.93827000000E+00  0.93827000000E+00 0.  1.
     999902    2    1    2    0    0  0.75478276022E-02  0.17269046161E-01  0.15135366876E-01  0.10197583433E+01  0.10194718288E+01 0.  0.
     999903    2    3    3    0    0  0.12621770547E+00  0.26146714473E-01  0.17939584432E-01  0.13174414492E+00  0.20497101729E-01 0.  0.
         14    1    1    2    0    0 -0.75478276022E-02 -0.17269046161E-01 -0.15135366876E-01  0.24171656693E-01  0.00000000000E+00 0. -1.
     999901    1    3    3    0    0 -0.11866987786E+00 -0.88776683116E-02 -0.28042175566E-02  0.88801419839E+00  0.88000000000E+00 0. -1.
        -11    1    4    4    0    0  0.28849659583E-01 -0.26261087940E-02  0.32431777503E-02  0.29154392951E-01  0.51100000000E-03 0. -1.
         11    1    4    4    0    0  0.97368045883E-01  0.28772823267E-01  0.14696406682E-01  0.10258975197E+00  0.51100000000E-03 0.  1.
</event>
<event>
 8    1  0.1119901E+005  0.1043930E+01  0.7957747E-01            NaN
         13   -1    0    0    0    0  0.00000000000E+00  0.00000000000E+00  0.74505805969E-08  0.10566000000E+00  0.10566000000E+00 0.  1.
     999900   -1    0    0    0    0 -0.00000000000E+00 -0.00000000000E+00 -0.74505805969E-08  0.93827000000E+00  0.93827000000E+00 0.  1.
     999902    2    1    2    0    0 -0.19956142943E-01 -0.85336416252E-02 -0.11348150211E-01  0.10194381403E+01  0.10191438910E+01 0.  0.
     999903    2    3    3    0    0 -0.12854047150E+00 -0.22687998881E-01 -0.10983006895E-01  0.13265122359E+00  0.20936154717E-01 0.  0.
         14    1    1    2    0    0  0.19956142943E-01  0.85336416252E-02  0.11348150211E-01  0.24491859745E-01  0.00000000000E+00 0.  1.
     999901    1    3    3    0    0  0.10858432855E+00  0.14154357256E-01 -0.36514331629E-03  0.88678691666E+00  0.88000000000E+00 0.  1.
        -11    1    4    4    0    0 -0.25563976022E-01 -0.20863365389E-02  0.57967499416E-02  0.26300819400E-01  0.51100000000E-03 0. -1.
         11    1    4    4    0    0 -0.10297649547E+00 -0.20601662343E-01 -0.16779756836E-01  0.10635040419E+00  0.51100000000E-03 0.  1.
</event>
<event>
 8    1  0.1119901E+005  0.1043930E+01  0.7957747E-01            NaN
         13   -1    0    0    0    0  0.00000000000E+00  0.00000000000E+00  0.74505805969E-08  0.10566000000E+00  0.10566000000E+00 0.  1.
     999900   -1    0    0    0    0 -0.00000000000E+00 -0.00000000000E+00 -0.74505805969E-08  0.93827000000E+00  0.93827000000E+00 0. -1.
     999902    2    1    2    0    0 -0.49432420627E-02 -0.21866058437E-01 -0.71662100929E-02  0.10203946071E+01  0.10201231491E+01 0.  0.
     999903    2    3    3    0    0  0.14631784029E-01  0.71624394632E-01 -0.10547415024E+00  0.12978352609E+00  0.19360378707E-01 0.  0.
         14    1    1    2    0    0  0.49432420627E-02  0.21866058437E-01  0.71662100929E-02  0.23535392938E-01  0.00000000000E+00 0.  1.
     999901    1    3    3    0    0 -0.19575026092E-01 -0.93490453069E-01  0.98307940149E-01  0.89061108098E+00  0.88000000000E+00 0. -1.
        -11    1    4    4    0    0  0.97443652869E-02  0.12623815926E-01 -0.28646715558E-01  0.32790376891E-01  0.51100000000E-03 0. -1.
         11    1    4    4    0    0  0.48874187424E-02  0.59000578706E-01 -0.76827434684E-01  0.96993149195E-01  0.51100000000E-03 0.  1.
</event>
<event>
 8    1  0.1119901E+005  0.1043930E+01  0.7957747E-01            NaN
         13   -1    0    0    0    0  0.00000000000E+00  0.00000000000E+00  0.74505805969E-08  0.10566000000E+00  0.10566000000E+00 0.  1.
     999900   -1    0    0    0    0 -0.00000000000E+00 -0.00000000000E+00 -0.74505805969E-08  0.93827000000E+00  0.93827000000E+00 0.  1.
     999902    2    1    2    0    0  0.13462281676E-01  0.18528393850E-01 -0.87877460824E-02  0.10193992257E+01  0.10191040293E+01 0.  0.
     999903    2    3    3    0    0  0.90108572947E-01 -0.90557413520E-01 -0.49964196545E-02  0.12934937233E+00  0.19649321862E-01 0.  0.
         14    1    1    2    0    0 -0.13462281676E-01 -0.18528393850E-01  0.87877460824E-02  0.24530774301E-01  0.00000000000E+00 0.  1.
     999901    1    3    3    0    0 -0.76646291271E-01  0.10908580737E+00 -0.37913264279E-02  0.89004985337E+00  0.88000000000E+00 0. -1.
        -11    1    4    4    0    0  0.11249063548E-01 -0.22161306606E-01 -0.49115496028E-03  0.24862970365E-01  0.51100000000E-03 0. -1.
         11    1    4    4    0    0  0.78859509399E-01 -0.68396106914E-01 -0.45052646942E-02  0.10448640196E+00  0.51100000000E-03 0.  1.
</event>
<event>
 8    1  0.1119901E+005  0.1043930E+01  0.7957747E-01            NaN
         13   -1    0    0    0    0  0.00000000000E+00  0.00000000000E+00  0.74505805969E-08  0.10566000000E+00  0.10566000000E+00 0.  1.
     999900   -1    0    0    0    0 -0.00000000000E+00 -0.00000000000E+00 -0.74505805969E-08  0.93827000000E+00  0.93827000000E+00 0. -1.
     999902    2    1    2    0    0  0.12308532617E-01 -0.17641453959E-01 -0.89829522840E-02  0.10206187515E+01  0.10203524987E+01 0.  0.
     999903    2    3    3    0    0  0.11678310909E-01  0.10669085830E+00  0.67623799867E-01  0.12858314938E+00  0.21007755833E-01 0.  0.
         14    1    1    2    0    0 -0.12308532617E-01  0.17641453959E-01  0.89829522840E-02  0.23311248459E-01  0.00000000000E+00 0.  1.
     999901    1    3    3    0    0  0.63022170850E-03 -0.12433231226E+00 -0.76606752151E-01  0.89203560216E+00  0.88000000000E+00 0. -1.
        -11    1    4    4    0    0  0.79373779483E-02  0.12689321123E-01  0.12773845069E-01  0.19683827832E-01  0.51100000000E-03 0.  1.
         11    1    4    4    0    0  0.37409329605E-02  0.94001537176E-01  0.54849954798E-01  0.10889932155E+00  0.51100000000E-03 0. -1.
</event>
<event>
 8    1  0.1119901E+005  0.1043930E+01  0.7957747E-01            NaN
         13   -1    0    0    0    0  0.00000000000E+00  0.00000000000E+00  0.74505805969E-08  0.10566000000E+00  0.10566000000E+00 0.  1.
     999900   -1    0    0    0    0 -0.00000000000E+00 -0.00000000000E+00 -0.74505805969E-08  0.93827000000E+00  0.93827000000E+00 0.  1.
     999902    2    1    2    0    0 -0.18431589461E-02 -0.18090065289E-01  0.14471237797E-01  0.10206907139E+01  0.10204261213E+01 0.  0.
     999903    2    3    3    0    0 -0.98230415123E-01 -0.80567349471E-01  0.33791536618E-01  0.13301555473E+00  0.20272089084E-01 0.  0.
         14    1    1    2    0    0  0.18431589461E-02  0.18090065289E-01 -0.14471237797E-01  0.23239286143E-01  0.00000000000E+00 0.  1.
     999901    1    3    3    0    0  0.96387256177E-01  0.62477284182E-01 -0.19320298821E-01  0.88767515913E+00  0.88000000000E+00 0.  1.
        -11    1    4    4    0    0 -0.20299386662E-01 -0.27153024806E-01  0.51919605364E-02  0.34301157855E-01  0.51100000000E-03 0.  1.
         11    1    4    4    0    0 -0.77931028462E-01 -0.53414324665E-01  0.28599576082E-01  0.98714396871E-01  0.51100000000E-03 0. -1.
</event>
<event>
 8    1  0.1119901E+005  0.1043930E+01  0.7957747E-01            NaN
         13   -1    0    0    0    0  0.00000000000E+00  0.00000000000E+00  0.74505805969E-08  0.10566000000E+00  0.10566000000E+00 0.  1.
     999900   -1    0    0    0    0 -0.00000000000E+00 -0.00000000000E+00 -0.74505805969E-08  0.93827000000E+00  0.93827000000E+00 0. -1.
     999902    2    1    2    0    0  0.14509911122E-01  0.18258554265E-01  0.67404543138E-03  0.10205983335E+01  0.10203316087E+01 0.  0.
     999903    2    3    3    0    0  0.99471803024E-01  0.87035662591E-01  0.48435180647E-02  0.13382542107E+00  0.20394545805E-01 0.  0.
         14    1    1    2    0    0 -0.14509911122E-01 -0.18258554265E-01 -0.67404543138E-03  0.23331666504E-01  0.00000000000E+00 0.  1.
     999901    1    3    3    0    0 -0.84961891902E-01 -0.68777108326E-01 -0.41694726333E-02  0.88677291242E+00  0.88000000000E+00 0. -1.
        -11    1    4    4    0    0  0.72450680670E-01  0.67284834401E-01 -0.47907144426E-02  0.98992737793E-01  0.51100000000E-03 0.  1.
         11    1    4    4    0    0  0.27021122354E-01  0.19750828190E-01  0.96342325073E-02  0.34832683279E-01  0.51100000000E-03 0. -1.
</event>
<event>
 8    1  0.1119901E+005  0.1043930E+01  0.7957747E-01            NaN
         13   -1    0    0    0    0  0.00000000000E+00  0.00000000000E+00  0.74505805969E-08  0.10566000000E+00  0.10566000000E+00 0. -1.
     999900   -1    0    0    0    0 -0.00000000000E+00 -0.00000000000E+00 -0.74505805969E-08  0.93827000000E+00  0.93827000000E+00 0. -1.
     999902    2    1    2    0    0 -0.17181998230E-01  0.15786099637E-01 -0.16936066287E-03  0.10205965329E+01  0.10203297664E+01 0.  0.
     999903    2    3    3    0    0 -0.63450456205E-03  0.90991268882E-01 -0.93856363954E-01  0.13227964594E+00  0.20225579531E-01 0.  0.
         14    1    1    2    0    0  0.17181998230E-01 -0.15786099637E-01  0.16936066287E-03  0.23333467122E-01  0.00000000000E+00 0.  1.
     999901    1    3    3    0    0 -0.16547493668E-01 -0.75205169245E-01  0.93687003291E-01  0.88831688693E+00  0.88000000000E+00 0.  1.
        -11    1    4    4    0    0  0.56003725028E-02  0.27429449530E-01 -0.39464860650E-01  0.48388792306E-01  0.51100000000E-03 0. -1.
         11    1    4    4    0    0 -0.62348770649E-02  0.63561819351E-01 -0.54391503305E-01  0.83890853637E-01  0.51100000000E-03 0.  1.
</event>
<event>
 8    1  0.1119901E+005  0.1043930E+01  0.7957747E-01            NaN
         13   -1    0    0    0    0  0.00000000000E+00  0.00000000000E+00  0.74505805969E-08  0.10566000000E+00  0.10566000000E+00 0.  1.
     999900   -1    0    0    0    0 -0.00000000000E+00 -0.00000000000E+00 -0.74505805969E-08  0.93827000000E+00  0.93827000000E+00 0.  1.
     999902    2    1    2    0    0  0.98188023817E-02  0.10119629489E-01  0.18052277080E-01  0.10210236583E+01  0.10207666777E+01 0.  0.
     999903    2    3    3    0    0  0.33896422688E-01 -0.11147780209E+00  0.57375411313E-01  0.13146647857E+00  0.20377176779E-01 0.  0.
         14    1    1    2    0    0 -0.98188023817E-02 -0.10119629489E-01 -0.18052277080E-01  0.22906341676E-01  0.00000000000E+00 0. -1.
     999901    1    3    3    0    0 -0.24077620306E-01  0.12159743158E+00 -0.39323134233E-01  0.88955717975E+00  0.88000000000E+00 0.  1.
        -11    1    4    4    0    0  0.12667569365E-01 -0.71720462619E-01  0.30278532948E-01  0.78875488907E-01  0.51100000000E-03 0. -1.
         11    1    4    4    0    0  0.21228853323E-01 -0.39757339474E-01  0.27096878366E-01  0.52590989662E-01  0.51100000000E-03 0.  1.
</event>
<event>
 8    1  0.1119901E+005  0.1043930E+01  0.7957747E-01            NaN
         13   -1    0    0    0    0  0.00000000000E+00  0.00000000000E+00  0.74505805969E-08  0.10566000000E+00  0.10566000000E+00 0. -1.
     999900   -1    0    0    0    0 -0.00000000000E+00 -0.00000000000E+00 -0.74505805969E-08  0.93827000000E+00  0.93827000000E+00 0.  1.
     999902    2    1    2    0    0  0.10918181730E-01 -0.15615474542E-01 -0.13449917923E-01  0.10206072637E+01  0.10203407454E+01 0.  0.
     999903    2    3    3    0    0  0.54490109455E-01  0.17501021680E-01  0.11381882568E+00  0.12976914802E+00  0.24695119188E-01 0.  0.
         14    1    1    2    0    0 -0.10918181730E-01  0.15615474542E-01  0.13449917923E-01  0.23322736323E-01  0.00000000000E+00 0. -1.
     999901    1    3    3    0    0 -0.43571927726E-01 -0.33116496222E-01 -0.12726874360E+00  0.89083811566E+00  0.88000000000E+00 0.  1.
        -11    1    4    4    0    0  0.15286370389E-01  0.83203958574E-02  0.14714415958E-01  0.22796430968E-01  0.51100000000E-03 0. -1.
         11    1    4    4    0    0  0.39203739066E-01  0.91806258227E-02  0.99104409718E-01  0.10697271705E+00  0.51100000000E-03 0.  1.
</event>
<event>
 8    1  0.1119901E+005  0.1043930E+01  0.7957747E-01            NaN
         13   -1    0    0    0    0  0.00000000000E+00  0.00000000000E+00  0.74505805969E-08  0.10566000000E+00  0.10566000000E+00 0.  1.
     999900   -1    0    0    0    0 -0.00000000000E+00 -0.00000000000E+00 -0.74505805969E-08  0.93827000000E+00  0.93827000000E+00 0.  1.
     999902    2    1    2    0    0  0.97126750936E-02  0.14373395080E-01 -0.16764621987E-01  0.10198056742E+01  0.10195202941E+01 0.  0.
     999903    2    3    3    0    0  0.12798385798E+00  0.10350102834E-01  0.16755625181E-01  0.13125186801E+00  0.21431503648E-01 0.  0.
         14    1    1    2    0    0 -0.97126750936E-02 -0.14373395080E-01  0.16764621987E-01  0.24124325773E-01  0.00000000000E+00 0.  1.
     999901    1    3    3    0    0 -0.11827118288E+00  0.40232922464E-02 -0.33520247168E-01  0.88855380622E+00  0.88000000000E+00 0.  1.
        -11    1    4    4    0    0  0.10951960555E+00  0.15262916306E-01  0.10214015035E-01  0.11104993398E+00  0.51100000000E-03 0.  1.
         11    1    4    4    0    0  0.18464252429E-01 -0.49128134720E-02  0.65416101458E-02  0.20201934023E-01  0.51100000000E-03 0. -1.
</event>
<event>
 8    1  0.1119901E+005  0.1043930E+01  0.7957747E-01            NaN
         13   -1    0    0    0    0  0.00000000000E+00  0.00000000000E+00  0.74505805969E-08  0.10566000000E+00  0.10566000000E+00 0.  1.
     999900   -1    0    0    0    0 -0.00000000000E+00 -0.00000000000E+00 -0.74505805969E-08  0.93827000000E+00  0.93827000000E+00 0. -1.
     999902    2    1    2    0    0 -0.58369503604E-02  0.97048489039E-02  0.20329570877E-01  0.10206588691E+01  0.10203935425E+01 0.  0.
     999903    2    3    3    0    0 -0.78126366034E-01  0.90460621327E-01  0.56273047747E-01  0.13328116601E+00  0.17617043715E-01 0.  0.
         14    1    1    2    0    0  0.58369503604E-02 -0.97048489039E-02 -0.20329570877E-01  0.23271130909E-01  0.00000000000E+00 0. -1.
     999901    1    3    3    0    0  0.72289415674E-01 -0.80755772423E-01 -0.35943476870E-01  0.88737770308E+00  0.88000000000E+00 0.  1.
        -11    1    4    4    0    0 -0.31813522301E-01  0.37626986420E-01  0.32837292018E-01  0.59215193796E-01  0.51100000000E-03 0. -1.
         11    1    4    4    0    0 -0.46312843734E-01  0.52833634907E-01  0.23435755729E-01  0.74065972213E-01  0.51100000000E-03 0.  1.
</event>
<event>
 8    1  0.1119901E+005  0.1043930E+01  0.7957747E-01            NaN
         13   -1    0    0    0    0  0.00000000000E+00  0.00000000000E+00  0.74505805969E-08  0.10566000000E+00  0.10566000000E+00 0.  1.
     999900   -1    0    0    0    0 -0.00000000000E+00 -0.00000000000E+00 -0.74505805969E-08  0.93827000000E+00  0.93827000000E+00 0. -1.
     999902    2    1    2    0    0  0.91334939828E-03 -0.21796461231E-01  0.85588929788E-02  0.10204955259E+01  0.10202264179E+01 0.  0.
     999903    2    3    3    0    0  0.54978202957E-02  0.22922944606E-02  0.12991478542E+00  0.13182880647E+00  0.21575497687E-01 0.  0.
         14    1    1    2    0    0 -0.91334939828E-03  0.21796461231E-01 -0.85588929788E-02  0.23434474143E-01  0.00000000000E+00 0. -1.
     999901    1    3    3    0    0 -0.45844708974E-02 -0.24088755692E-01 -0.12135589244E+00  0.88866671939E+00  0.88000000000E+00 0. -1.
        -11    1    4    4    0    0 -0.82714821410E-02 -0.53509324903E-03  0.50353874795E-01  0.51034082430E-01  0.51100000000E-03 0.  1.
         11    1    4    4    0    0  0.13769302437E-01  0.28273877096E-02  0.79560910628E-01  0.80794724035E-01  0.51100000000E-03 0. -1.
</event>
<event>
 8    1  0.1119901E+005  0.1043930E+01  0.7957747E-01            NaN
         13   -1    0    0    0    0  0.00000000000E+00  0.00000000000E+00  0.74505805969E-08  0.10566000000E+00  0.10566000000E+00 0.  1.
     999900   -1    0    0    0    0 -0.00000000000E+00 -0.00000000000E+00 -0.74505805969E-08  0.93827000000E+00  0.93827000000E+00 0.  1.
     999902    2    1    2    0    0  0.13103592812E-01  0.16600474198E-01  0.15319158926E-01  0.10178157028E+01  0.10174806378E+01 0.  0.
     999903    2    3    3    0    0 -0.75531983431E-01 -0.14448423534E-01  0.10121049339E+00  0.12866013668E+00  0.19900485784E-01 0.  0.
         14    1    1    2    0    0 -0.13103592812E-01 -0.16600474198E-01 -0.15319158926E-01  0.26114297202E-01  0.00000000000E+00 0. -1.
     999901    1    3    3    0    0  0.88635576243E-01  0.31048897732E-01 -0.85891334462E-01  0.88915556612E+00  0.88000000000E+00 0.  1.
        -11    1    4    4    0    0 -0.48122217683E-01 -0.18121002037E-01  0.59907601198E-01  0.78951253010E-01  0.51100000000E-03 0.  1.
         11    1    4    4    0    0 -0.27409765748E-01  0.36725785033E-02  0.41302892190E-01  0.49708883668E-01  0.51100000000E-03 0. -1.
</event>
<event>
 8    1  0.1119901E+005  0.1043930E+01  0.7957747E-01            NaN
         13   -1    0    0    0    0  0.00000000000E+00  0.00000000000E+00  0.74505805969E-08  0.10566000000E+00  0.10566000000E+00 0. -1.
     999900   -1    0    0    0    0 -0.00000000000E+00 -0.00000000000E+00 -0.74505805969E-08  0.93827000000E+00  0.93827000000E+00 0. -1.
     999902    2    1    2    0    0  0.94118758775E-02 -0.20728053073E-01  0.81642997667E-03  0.10211505762E+01  0.10208964674E+01 0.  0.
     999903    2    3    3    0    0  0.23550502725E-02  0.35384448945E-01 -0.12405321139E+00  0.13053795612E+00  0.19833134951E-01 0.  0.
         14    1    1    2    0    0 -0.94118758775E-02  0.20728053073E-01 -0.81642997667E-03  0.22779423821E-01  0.00000000000E+00 0. -1.
     999901    1    3    3    0    0  0.70568256049E-02 -0.56112502018E-01  0.12486964137E+00  0.89061262006E+00  0.88000000000E+00 0.  1.
        -11    1    4    4    0    0 -0.59110448029E-02  0.29792396616E-01 -0.99339851876E-01  0.10388067500E+00  0.51100000000E-03 0. -1.
         11    1    4    4    0    0  0.82660950754E-02  0.55920523293E-02 -0.24713359518E-01  0.26657281120E-01  0.51100000000E-03 0.  1.
</event>
<event>
 8    1  0.1119901E+005  0.1043930E+01  0.7957747E-01            NaN
         13   -1    0    0    0    0  0.00000000000E+00  0.00000000000E+00  0.74505805969E-08  0.10566000000E+00  0.10566000000E+00 0.  1.
     999900   -1    0    0    0    0 -0.00000000000E+00 -0.00000000000E+00 -0.74505805969E-08  0.93827000000E+00  0.93827000000E+00 0.  1.
     999902    2    1    2    0    0 -0.81955788101E-02  0.21521095331E-01 -0.41475882899E-05  0.10209012121E+01  0.10206414452E+01 0.  0.
     999903    2    3    3    0    0  0.89253505165E-01 -0.79922040227E-01 -0.42424678431E-01  0.12872043714E+00  0.20380797312E-01 0.  0.
         14    1    1    2    0    0  0.81955788101E-02 -0.21521095331E-01  0.41475882899E-05  0.23028787929E-01  0.00000000000E+00 0.  1.
     999901    1    3    3    0    0 -0.97449083976E-01  0.10144313556E+00  0.42420530843E-01  0.89218077493E+00  0.88000000000E+00 0. -1.
        -11    1    4    4    0    0  0.24162594092E-01 -0.25842352450E-01 -0.34507704192E-02  0.35550345580E-01  0.51100000000E-03 0.  1.
         11    1    4    4    0    0  0.65090911073E-01 -0.54079687777E-01 -0.38973908012E-01  0.93170091559E-01  0.51100000000E-03 0. -1.
</event>
<event>
 8    1  0.1119901E+005  0.1043930E+01  0.7957747E-01            NaN
         13   -1    0    0    0    0  0.00000000000E+00  0.00000000000E+00  0.74505805969E-08  0.10566000000E+00  0.10566000000E+00 0.  1.
     999900   -1    0    0    0    0 -0.00000000000E+00 -0.00000000000E+00 -0.74505805969E-08  0.93827000000E+00  0.93827000000E+00 0.  1.
     999902    2    1    2    0    0 -0.74957935383E-02 -0.23524392775E-01  0.14948484561E-01  0.10150675475E+01  0.10146571267E+01 0.  0.
     999903    2    3    3    0    0 -0.12484103493E+00 -0.10128506803E-01  0.29072503189E-02  0.12709550580E+00  0.21376268104E-01 0.  0.
         14    1    1    2    0    0  0.74957935383E-02  0.23524392775E-01 -0.14948484561E-01  0.28862452544E-01  0.00000000000E+00 0. -1.
     999901    1    3    3    0    0  0.11734524139E+00 -0.13395885971E-01  0.12041234242E-01  0.88797204165E+00  0.88000000000E+00 0. -1.
        -11    1    4    4    0    0 -0.44981168725E-01 -0.20197646956E-02 -0.90728950662E-02  0.45934339390E-01  0.51100000000E-03 0. -1.
         11    1    4    4    0    0 -0.79859866205E-01 -0.81087421077E-02  0.11980145385E-01  0.81161166412E-01  0.51100000000E-03 0.  1.
</event>
<event>
 8    1  0.1119901E+005  0.1043930E+01  0.7957747E-01            NaN
         13   -1    0    0    0    0  0.00000000000E+00  0.00000000000E+00  0.74505805969E-08  0.10566000000E+00  0.10566000000E+00 0. -1.
     999900   -1    0    0    0    0 -0.00000000000E+00 -0.00000000000E+00 -0.74505805969E-08  0.93827000000E+00  0.93827000000E+00 0. -1.
     999902    2    1    2    0    0 -0.20013616858E-02  0.83776569877E-02 -0.22562110039E-01  0.10197796502E+01  0.10194936467E+01 0.  0.
     999903    2    3    3    0    0 -0.90393093666E-01  0.78573045223E-01  0.46367394146E-01  0.12989664254E+00  0.19456815886E-01 0.  0.
         14    1    1    2    0    0  0.20013616858E-02 -0.83776569877E-02  0.22562110039E-01  0.24150349782E-01  0.00000000000E+00 0. -1.
     999901    1    3    3    0    0  0.88391731981E-01 -0.70195388235E-01 -0.68929504184E-01  0.88988300768E+00  0.88000000000E+00 0.  1.
        -11    1    4    4    0    0 -0.68246897092E-01  0.48589416078E-01  0.36132253311E-01  0.91237991910E-01  0.51100000000E-03 0. -1.
         11    1    4    4    0    0 -0.22146196575E-01  0.29983629144E-01  0.10235140835E-01  0.38658650627E-01  0.51100000000E-03 0.  1.
</event>
<event>
 7    1  0.1119901E+005  0.1043930E+01  0.7957747E-01            NaN
         13   -1    0    0    0    0  0.00000000000E+00  0.00000000000E+00  0.74505805969E-08  0.10566000000E+00  0.10566000000E+00 0.  1.
     999900   -1    0    0    0    0 -0.00000000000E+00 -0.00000000000E+00 -0.74505805969E-08  0.93827000000E+00  0.93827000000E+00 0. -1.
     999903    2    1    2    0    0  0.27585628908E-01  0.60341025150E-01  0.80798149884E-01  0.10665112009E+00  0.21074016078E-01 0.  0.
         14    1    1    2    0    0  0.39186291183E-01  0.13014833420E-01 -0.28482778581E-01  0.50161937576E-01  0.00000000000E+00 0. -1.
     999901    1    1    2    0    0 -0.66771920091E-01 -0.73355858570E-01 -0.52315371303E-01  0.88711694233E+00  0.88000000000E+00 0.  1.
        -11    1    3    3    0    0  0.24650118390E-01  0.30412336488E-01  0.51199117691E-01  0.64452690562E-01  0.51100000000E-03 0.  1.
         11    1    3    3    0    0  0.29355105185E-02  0.29928688662E-01  0.29599032193E-01  0.42198429530E-01  0.51100000000E-03 0. -1.
</event>
<event>
 8    1  0.1119901E+005  0.1043930E+01  0.7957747E-01            NaN
         13   -1    0    0    0    0  0.00000000000E+00  0.00000000000E+00  0.74505805969E-08  0.10566000000E+00  0.10566000000E+00 0.  1.
     999900   -1    0    0    0    0 -0.00000000000E+00 -0.00000000000E+00 -0.74505805969E-08  0.93827000000E+00  0.93827000000E+00 0.  1.
     999902    2    1    2    0    0 -0.15006352858E-01  0.17023915974E-01 -0.14310207678E-01  0.10171011650E+01  0.10167472614E+01 0.  0.
     999903    2    3    3    0    0  0.45320841626E-01  0.48395007342E-01 -0.10928684271E+00  0.12938269787E+00  0.20005326710E-01 0.  0.
         14    1    1    2    0    0  0.15006352858E-01 -0.17023915974E-01  0.14310207678E-01  0.26828834954E-01  0.00000000000E+00 0.  1.
     999901    1    3    3    0    0 -0.60327194485E-01 -0.31371091368E-01  0.94976635031E-01  0.88771846718E+00  0.88000000000E+00 0. -1.
        -11    1    4    4    0    0  0.25332879543E-01  0.40025892546E-01 -0.70205979754E-01  0.84693373851E-01  0.51100000000E-03 0. -1.
         11    1    4    4    0    0  0.19987962083E-01  0.83691147954E-02 -0.39080862955E-01  0.44689324016E-01  0.51100000000E-03 0.  1.
</event>
<event>
 8    1  0.1119901E+005  0.1043930E+01  0.7957747E-01            NaN
         13   -1    0    0    0    0  0.00000000000E+00  0.00000000000E+00  0.74505805969E-08  0.10566000000E+00  0.10566000000E+00 0. -1.
     999900   -1    0    0    0    0 -0.00000000000E+00 -0.00000000000E+00 -0.74505805969E-08  0.93827000000E+00  0.93827000000E+00 0.  1.
     999902    2    1    2    0    0 -0.99989879698E-02 -0.15716148626E-01  0.13664360593E-01  0.10208282287E+01  0.10205667938E+01 0.  0.
     999903    2    3    3    0    0  0.99880555136E-01 -0.75194344386E-01 -0.32740463597E-01  0.13079194993E+00  0.20106752319E-01 0.  0.
         14    1    1    2    0    0  0.99989879698E-02  0.15716148626E-01 -0.13664360593E-01  0.23101771328E-01  0.00000000000E+00 0.  1.
     999901    1    3    3    0    0 -0.10987954311E+00  0.59478195760E-01  0.46404824190E-01  0.89003627874E+00  0.88000000000E+00 0. -1.
        -11    1    4    4    0    0  0.75225509040E-01 -0.51334811908E-01 -0.15472695191E-01  0.92378598936E-01  0.51100000000E-03 0. -1.
         11    1    4    4    0    0  0.24655046096E-01 -0.23859532479E-01 -0.17267768406E-01  0.38413350997E-01  0.51100000000E-03 0.  1.
</event>
<event>
 8    1  0.1119901E+005  0.1043930E+01  0.7957747E-01            NaN
         13   -1    0    0    0    0  0.00000000000E+00  0.00000000000E+00  0.74505805969E-08  0.10566000000E+00  0.10566000000E+00 0. -1.
     999900   -1    0    0    0    0 -0.00000000000E+00 -0.00000000000E+00 -0.74505805969E-08  0.93827000000E+00  0.93827000000E+00 0. -1.
     999902    2    1    2    0    0 -0.36124962355E-02  0.92709591010E-02  0.21539171063E-01  0.10202037129E+01  0.10199277813E+01 0.  0.
     999903    2    3    3    0    0  0.54740548615E-01 -0.11539413955E+00  0.17971867084E-02  0.12928496762E+00  0.19975932215E-01 0.  0.
         14    1    1    2    0    0  0.36124962355E-02 -0.92709591010E-02 -0.21539171063E-01  0.23726287147E-01  0.00000000000E+00 0.  1.
     999901    1    3    3    0    0 -0.58353044851E-01  0.12466509865E+00  0.19741984355E-01  0.89091874523E+00  0.88000000000E+00 0.  1.
        -11    1    4    4    0    0  0.16824249864E-01 -0.23262825422E-01 -0.60588952960E-02  0.29345966730E-01  0.51100000000E-03 0. -1.
         11    1    4    4    0    0  0.37916298751E-01 -0.92131314124E-01  0.78560820044E-02  0.99939000889E-01  0.51100000000E-03 0.  1.
</event>
<event>
 8    1  0.1119901E+005  0.1043930E+01  0.7957747E-01            NaN
         13   -1    0    0    0    0  0.00000000000E+00  0.00000000000E+00  0.74505805969E-08  0.10566000000E+00  0.10566000000E+00 0.  1.
     999900   -1    0    0    0    0 -0.00000000000E+00 -0.00000000000E+00 -0.74505805969E-08  0.93827000000E+00  0.93827000000E+00 0.  1.
     999902    2    1    2    0    0 -0.21563254001E-01 -0.85325887312E-02 -0.99533123765E-03  0.10207185873E+01  0.10204546364E+01 0.  0.
     999903    2    3    3    0    0  0.45698276379E-01  0.39768375776E-02  0.11977644606E+00  0.12983900995E+00  0.20189694736E-01 0.  0.
         14    1    1    2    0    0  0.21563254001E-01  0.85325887312E-02  0.99533123765E-03  0.23211412664E-01  0.00000000000E+00 0.  1.
     999901    1    3    3    0    0 -0.67261530380E-01 -0.12509426309E-01 -0.12077177729E+00  0.89087957739E+00  0.88000000000E+00 0.  1.
        -11    1    4    4    0    0  0.19167415475E-01 -0.77163503271E-02  0.41455624000E-01  0.46322367822E-01  0.51100000000E-03 0. -1.
         11    1    4    4    0    0  0.26530860903E-01  0.11693187905E-01  0.78320822056E-01  0.83516642127E-01  0.51100000000E-03 0.  1.
</event>
<event>
 8    1  0.1119901E+005  0.1043930E+01  0.7957747E-01            NaN
         13   -1    0    0    0    0  0.00000000000E+00  0.00000000000E+00  0.74505805969E-08  0.10566000000E+00  0.10566000000E+00 0. -1.
     999900   -1    0    0    0    0 -0.00000000000E+00 -0.00000000000E+00 -0.74505805969E-08  0.93827000000E+00  0.93827000000E+00 0.  1.
     999902    2    1    2    0    0 -0.20946982207E-02 -0.17887400573E-01 -0.17893143488E-01  0.10185427701E+01  0.10182263319E+01 0.  0.
     999903    2    3    3    0    0 -0.81331508852E-01 -0.10035068365E+00  0.52686248653E-02  0.13084060564E+00  0.20160149652E-01 0.  0.
         14    1    1    2    0    0  0.20946982207E-02  0.17887400573E-01  0.17893143488E-01  0.25387229935E-01  0.00000000000E+00 0. -1.
     999901    1    3    3    0    0  0.79236810631E-01  0.82463283080E-01 -0.23161768353E-01  0.88770216443E+00  0.88000000000E+00 0. -1.
        -11    1    4    4    0    0 -0.45743046262E-01 -0.70699489258E-01 -0.73518457539E-04  0.84208732259E-01  0.51100000000E-03 0.  1.
         11    1    4    4    0    0 -0.35588462590E-01 -0.29651194395E-01  0.53421433228E-02  0.46631873379E-01  0.51100000000E-03 0. -1.
</event>
<event>
 8    1  0.1119901E+005  0.1043930E+01  0.7957747E-01            NaN
         13   -1    0    0    0    0  0.00000000000E+00  0.00000000000E+00  0.74505805969E-08  0.10566000000E+00  0.10566000000E+00 0. -1.
     999900   -1    0    0    0    0 -0.00000000000E+00 -0.00000000000E+00 -0.74505805969E-08  0.93827000000E+00  0.93827000000E+00 0. -1.
     999902    2    1    2    0    0 -0.20304449614E-01  0.10133078175E-01  0.61360708419E-02  0.10204225264E+01  0.10201517197E+01 0.  0.
     999903    2    3    3    0    0 -0.21879225391E-01 -0.49385318172E-01 -0.11643210526E+00  0.12993508846E+00  0.20225773742E-01 0.  0.
         14    1    1    2    0    0  0.20304449614E-01 -0.10133078175E-01 -0.61360708419E-02  0.23507473552E-01  0.00000000000E+00 0. -1.
     999901    1    3    3    0    0  0.15747757761E-02  0.59518396347E-01  0.12256817610E+00  0.89048743799E+00  0.88000000000E+00 0.  1.
        -11    1    4    4    0    0 -0.46334067036E-02 -0.23280086615E-02 -0.26239882402E-01  0.26752207973E-01  0.51100000000E-03 0. -1.
         11    1    4    4    0    0 -0.17245818687E-01 -0.47057309511E-01 -0.90192222857E-01  0.10318288049E+00  0.51100000000E-03 0.  1.
</event>
<event>
 8    1  0.1119901E+005  0.1043930E+01  0.7957747E-01            NaN
         13   -1    0    0    0    0  0.00000000000E+00  0.00000000000E+00  0.74505805969E-08  0.10566000000E+00  0.10566000000E+00 0.  1.
     999900   -1    0    0    0    0 -0.00000000000E+00 -0.00000000000E+00 -0.74505805969E-08  0.93827000000E+00  0.93827000000E+00 0.  1.
     999902    2    1    2    0    0 -0.18053297120E-01 -0.13154132182E-01 -0.86893797144E-02  0.10199621455E+01  0.10196804991E+01 0.  0.
     999903    2    3    3    0    0 -0.34222247616E-01  0.11327081047E+00 -0.49330890044E-01  0.12985179645E+00  0.20652205526E-01 0.  0.
         14    1    1    2    0    0  0.18053297120E-01  0.13154132182E-01  0.86893797144E-02  0.23967854518E-01  0.00000000000E+00 0. -1.
     999901    1    3    3    0    0  0.16168950496E-01 -0.12642494265E+00  0.40641510330E-01  0.89011034903E+00  0.88000000000E+00 0. -1.
        -11    1    4    4    0    0 -0.65039858587E-02  0.51830922060E-01 -0.27265214930E-01  0.58927068312E-01  0.51100000000E-03 0.  1.
         11    1    4    4    0    0 -0.27718261757E-01  0.61439888411E-01 -0.22065675115E-01  0.70924728142E-01  0.51100000000E-03 0. -1.
</event>
<event>
 8    1  0.1119901E+005  0.1043930E+01  0.7957747E-01            NaN
         13   -1    0    0    0    0  0.00000000000E+00  0.00000000000E+00  0.74505805969E-08  0.10566000000E+00  0.10566000000E+00 0.  1.
     999900   -1    0    0    0    0 -0.00000000000E+00 -0.00000000000E+00 -0.74505805969E-08  0.93827000000E+00  0.93827000000E+00 0.  1.
     999902    2    1    2    0    0 -0.19442689554E-01  0.12844035005E-01  0.47149138071E-02  0.10201556898E+01  0.10198786269E+01 0.  0.
     999903    2    3    3    0    0 -0.81281094686E-01  0.10340745506E+00  0.12107552028E-01  0.13331840345E+00  0.18096567807E-01 0.  0.
         14    1    1    2    0    0  0.19442689554E-01 -0.12844035005E-01 -0.47149138071E-02  0.23774310179E-01  0.00000000000E+00 0. -1.
     999901    1    3    3    0    0  0.61838405132E-01 -0.90563420055E-01 -0.73926382207E-02  0.88683728637E+00  0.88000000000E+00 0. -1.
        -11    1    4    4    0    0 -0.72979103629E-01  0.81859077829E-01  0.10222598308E-01  0.11014363725E+00  0.51100000000E-03 0.  1.
         11    1    4    4    0    0 -0.83019910576E-02  0.21548377231E-01  0.18849537199E-02  0.23174766198E-01  0.51100000000E-03 0. -1.
</event>
<event>
 8    1  0.1119901E+005  0.1043930E+01  0.7957747E-01            NaN
         13   -1    0    0    0    0  0.00000000000E+00  0.00000000000E+00  0.74505805969E-08  0.10566000000E+00  0.10566000000E+00 0.  1.
     999900   -1    0    0    0    0 -0.00000000000E+00 -0.00000000000E+00 -0.74505805969E-08  0.93827000000E+00  0.93827000000E+00 0.  1.
     999902    2    1    2    0    0 -0.15518859080E-01  0.16103285462E-01 -0.83038693434E-02  0.10200740776E+01  0.10197950866E+01 0.  0.
     999903    2    3    3    0    0  0.20400651348E-01 -0.10276282675E+00 -0.72614485022E-01  0.12903242917E+00  0.20002979912E-01 0.  0.
         14    1    1    2    0    0  0.15518859080E-01 -0.16103285462E-01  0.83038693434E-02  0.23855922449E-01  0.00000000000E+00 0.  1.
     999901    1    3    3    0    0 -0.35919510427E-01  0.11886611221E+00  0.64310615679E-01  0.89104164838E+00  0.88000000000E+00 0. -1.
        -11    1    4    4    0    0  0.77582495140E-02 -0.79722309343E-01 -0.50587846997E-01  0.94737682193E-01  0.51100000000E-03 0. -1.
         11    1    4    4    0    0  0.12642401834E-01 -0.23040517407E-01 -0.22026638025E-01  0.34294746977E-01  0.51100000000E-03 0.  1.
</event>
<event>
 8    1  0.1119901E+005  0.1043930E+01  0.7957747E-01            NaN
         13   -1    0    0    0    0  0.00000000000E+00  0.00000000000E+00  0.74505805969E-08  0.10566000000E+00  0.10566000000E+00 0.  1.
     999900   -1    0    0    0    0 -0.00000000000E+00 -0.00000000000E+00 -0.74505805969E-08  0.93827000000E+00  0.93827000000E+00 0. -1.
     999902    2    1    2    0    0 -0.77956741741E-02  0.11729688089E-02  0.31208271177E-01  0.10117414216E+01  0.10112292517E+01 0.  0.
     999903    2    3    3    0    0 -0.85273805892E-02  0.90506696223E-01  0.84593346715E-01  0.12560880365E+00  0.18903940460E-01 0.  0.
         14    1    1    2    0    0  0.77956741741E-02 -0.11729688089E-02 -0.31208271177E-01  0.32188578432E-01  0.00000000000E+00 0. -1.
     999901    1    3    3    0    0  0.73170641514E-03 -0.89333727414E-01 -0.53385075538E-01  0.88613261792E+00  0.88000000000E+00 0. -1.
        -11    1    4    4    0    0 -0.10299196545E-01  0.77593072293E-01  0.79607107139E-01  0.11164367848E+00  0.51100000000E-03 0. -1.
         11    1    4    4    0    0  0.17718159562E-02  0.12913623930E-01  0.49862395764E-02  0.13965125166E-01  0.51100000000E-03 0.  1.
</event>
<event>
 8    1  0.1119901E+005  0.1043930E+01  0.7957747E-01            NaN
         13   -1    0    0    0    0  0.00000000000E+00  0.00000000000E+00  0.74505805969E-08  0.10566000000E+00  0.10566000000E+00 0.  1.
     999900   -1    0    0    0    0 -0.00000000000E+00 -0.00000000000E+00 -0.74505805969E-08  0.93827000000E+00  0.93827000000E+00 0. -1.
     999902    2    1    2    0    0 -0.13378828976E-01  0.22604979722E-01 -0.38806586074E-02  0.10173774543E+01  0.10170308977E+01 0.  0.
     999903    2    3    3    0    0 -0.12047817981E+00  0.33557054095E-01  0.30031203761E-01  0.13016821555E+00  0.20020575682E-01 0.  0.
         14    1    1    2    0    0  0.13378828976E-01 -0.22604979722E-01  0.38806586074E-02  0.26552545720E-01  0.00000000000E+00 0. -1.
     999901    1    3    3    0    0  0.10709935083E+00 -0.10952074373E-01 -0.33911862368E-01  0.88720923873E+00  0.88000000000E+00 0. -1.
        -11    1    4    4    0    0 -0.27268052755E-01  0.15674026661E-01  0.11313114378E-01  0.33428572969E-01  0.51100000000E-03 0. -1.
         11    1    4    4    0    0 -0.93210127052E-01  0.17883027433E-01  0.18718089383E-01  0.96739642579E-01  0.51100000000E-03 0.  1.
</event>
<event>
 8    1  0.1119901E+005  0.1043930E+01  0.7957747E-01            NaN
         13   -1    0    0    0    0  0.00000000000E+00  0.00000000000E+00  0.74505805969E-08  0.10566000000E+00  0.10566000000E+00 0. -1.
     999900   -1    0    0    0    0 -0.00000000000E+00 -0.00000000000E+00 -0.74505805969E-08  0.93827000000E+00  0.93827000000E+00 0.  1.
     999902    2    1    2    0    0 -0.18687480565E-01 -0.15337212505E-01  0.41706352804E-03  0.10197509603E+01  0.10194642687E+01 0.  0.
     999903    2    3    3    0    0  0.17024488016E-01 -0.29884705741E-01 -0.12402388461E+00  0.13015974869E+00  0.19408951441E-01 0.  0.
         14    1    1    2    0    0  0.18687480565E-01  0.15337212505E-01 -0.41706352804E-03  0.24179039668E-01  0.00000000000E+00 0. -1.
     999901    1    3    3    0    0 -0.35711968581E-01  0.14547493236E-01  0.12444094814E+00  0.88959121164E+00  0.88000000000E+00 0. -1.
        -11    1    4    4    0    0  0.57960027172E-02 -0.15207050691E-01 -0.28149934739E-01  0.32519655364E-01  0.51100000000E-03 0.  1.
         11    1    4    4    0    0  0.11228485299E-01 -0.14677655050E-01 -0.95873949869E-01  0.97640093325E-01  0.51100000000E-03 0. -1.
</event>
<event>
 8    1  0.1119901E+005  0.1043930E+01  0.7957747E-01            NaN
         13   -1    0    0    0    0  0.00000000000E+00  0.00000000000E+00  0.74505805969E-08  0.10566000000E+00  0.10566000000E+00 0. -1.
     999900   -1    0    0    0    0 -0.00000000000E+00 -0.00000000000E+00 -0.74505805969E-08  0.93827000000E+00  0.93827000000E+00 0.  1.
     999902    2    1    2    0    0 -0.22349162607E-01  0.89718767689E-02 -0.47797279503E-02  0.10193774962E+01  0.10190817702E+01 0.  0.
     999903    2    3    3    0    0 -0.10833157471E+00 -0.70958498612E-01 -0.10697688432E-01  0.13156171446E+00  0.20571960794E-01 0.  0.
         14    1    1    2    0    0  0.22349162607E-01 -0.89718767689E-02  0.47797279503E-02  0.24552503768E-01  0.00000000000E+00 0.  1.
     999901    1    3    3    0    0  0.85982412101E-01  0.79930375381E-01  0.59179604821E-02  0.88781578177E+00  0.88000000000E+00 0.  1.
        -11    1    4    4    0    0 -0.57911938522E-01 -0.45806748336E-01  0.17309050981E-02  0.73860056661E-01  0.51100000000E-03 0. -1.
         11    1    4    4    0    0 -0.50419636186E-01 -0.25151750276E-01 -0.12428593531E-01  0.57701657803E-01  0.51100000000E-03 0.  1.
</event>
<event>
 8    1  0.1119901E+005  0.1043930E+01  0.7957747E-01            NaN
         13   -1    0    0    0    0  0.00000000000E+00  0.00000000000E+00  0.74505805969E-08  0.10566000000E+00  0.10566000000E+00 0. -1.
     999900   -1    0    0    0    0 -0.00000000000E+00 -0.00000000000E+00 -0.74505805969E-08  0.93827000000E+00  0.93827000000E+00 0.  1.
     999902    2    1    2    0    0 -0.12634828748E-01  0.19495288620E-01 -0.19887977402E-02  0.10206134717E+01  0.10203470969E+01 0.  0.
     999903    2    3    3    0    0  0.36797351615E-01 -0.98013872536E-01 -0.72077340224E-01  0.12866933263E+00  0.19997247101E-01 0.  0.
         14    1    1    2    0    0  0.12634828748E-01 -0.19495288620E-01  0.19887977402E-02  0.23316528308E-01  0.00000000000E+00 0.  1.
     999901    1    3    3    0    0 -0.49432180363E-01  0.11750916116E+00  0.70088542483E-01  0.89194413906E+00  0.88000000000E+00 0. -1.
        -11    1    4    4    0    0  0.27112850117E-01 -0.61778255912E-01 -0.56697382366E-01  0.88127826668E-01  0.51100000000E-03 0. -1.
         11    1    4    4    0    0  0.96845014979E-02 -0.36235616624E-01 -0.15379957857E-01  0.40541505967E-01  0.51100000000E-03 0.  1.
</event>
<event>
 8    1  0.1119901E+005  0.1043930E+01  0.7957747E-01            NaN
         13   -1    0    0    0    0  0.00000000000E+00  0.00000000000E+00  0.74505805969E-08  0.10566000000E+00  0.10566000000E+00 0. -1.
     999900   -1    0    0    0    0 -0.00000000000E+00 -0.00000000000E+00 -0.74505805969E-08  0.93827000000E+00  0.93827000000E+00 0. -1.
     999902    2    1    2    0    0  0.15988408676E-01  0.16785042860E-01 -0.32557008066E-02  0.10205213165E+01  0.10202528074E+01 0.  0.
     999903    2    3    3    0    0 -0.46869804591E-02  0.78279488957E-01 -0.10471351117E+00  0.13231935416E+00  0.19845550790E-01 0.  0.
         14    1    1    2    0    0 -0.15988408676E-01 -0.16785042860E-01  0.32557008066E-02  0.23408683507E-01  0.00000000000E+00 0. -1.
     999901    1    3    3    0    0  0.20675389135E-01 -0.61494446097E-01  0.10145781036E+00  0.88820196234E+00  0.88000000000E+00 0.  1.
        -11    1    4    4    0    0 -0.31253165225E-02  0.31333798931E-01 -0.26859415295E-01  0.41391591777E-01  0.51100000000E-03 0. -1.
         11    1    4    4    0    0 -0.15616639365E-02  0.46945690025E-01 -0.77854095871E-01  0.90927762378E-01  0.51100000000E-03 0.  1.
</event>
