<event>
 8    1  0.1111182E+005  0.1043930E+01  0.7957747E-01            NaN
         13   -1    0    0    0    0  0.00000000000E+00  0.00000000000E+00  0.74505805969E-08  0.10566000000E+00  0.10566000000E+00 0.  1.
     999900   -1    0    0    0    0 -0.00000000000E+00 -0.00000000000E+00 -0.74505805969E-08  0.93827000000E+00  0.93827000000E+00 0. -1.
     999902    2    1    2    0    0 -0.54467549876E-02  0.13317428610E-01  0.19161078852E-01  0.10199681973E+01  0.10196866948E+01 0.  0.
     999903    2    3    3    0    0 -0.77084427575E-01  0.83434348250E-01 -0.61411721811E-01  0.13061994452E+00  0.19669033757E-01 0.  0.
         14    1    1    2    0    0  0.54467549876E-02 -0.13317428610E-01 -0.19161078852E-01  0.23961802676E-01  0.00000000000E+00 0. -1.
     999901    1    3    3    0    0  0.71637672588E-01 -0.70116919641E-01  0.80572800663E-01  0.88934825280E+00  0.88000000000E+00 0.  1.
        -11    1    4    4    0    0 -0.40024000263E-02  0.90020095426E-02 -0.10960396142E-01  0.14746076982E-01  0.51100000000E-03 0.  1.
         11    1    4    4    0    0 -0.73082027549E-01  0.74432338708E-01 -0.50451325668E-01  0.11587386754E+00  0.51100000000E-03 0. -1.
</event>
<event>
 8    1  0.1111182E+005  0.1043930E+01  0.7957747E-01            NaN
         13   -1    0    0    0    0  0.00000000000E+00  0.00000000000E+00  0.74505805969E-08  0.10566000000E+00  0.10566000000E+00 0.  1.
     999900   -1    0    0    0    0 -0.00000000000E+00 -0.00000000000E+00 -0.74505805969E-08  0.93827000000E+00  0.93827000000E+00 0. -1.
     999902    2    1    2    0    0 -0.13964438923E-01 -0.19014981739E-01  0.37839565733E-03  0.10203351220E+01  0.10200622740E+01 0.  0.
     999903    2    3    3    0    0  0.52416793475E-01 -0.84395677983E-01 -0.83640416546E-01  0.13143677895E+00  0.20242452440E-01 0.  0.
         14    1    1    2    0    0  0.13964438923E-01  0.19014981739E-01 -0.37839565733E-03  0.23594878008E-01  0.00000000000E+00 0.  1.
     999901    1    3    3    0    0 -0.66381232397E-01  0.65380696244E-01  0.84018812204E-01  0.88889834304E+00  0.88000000000E+00 0.  1.
        -11    1    4    4    0    0  0.24070081349E-01 -0.21056782438E-01 -0.27274952589E-01  0.42034998067E-01  0.51100000000E-03 0. -1.
         11    1    4    4    0    0  0.28346712126E-01 -0.63338895544E-01 -0.56365463957E-01  0.89401780884E-01  0.51100000000E-03 0.  1.
</event>
<event>
 8    1  0.1111182E+005  0.1043930E+01  0.7957747E-01            NaN
         13   -1    0    0    0    0  0.00000000000E+00  0.00000000000E+00  0.74505805969E-08  0.10566000000E+00  0.10566000000E+00 0.  1.
     999900   -1    0    0    0    0 -0.00000000000E+00 -0.00000000000E+00 -0.74505805969E-08  0.93827000000E+00  0.93827000000E+00 0. -1.
     999902    2    1    2    0    0  0.21678357453E-02  0.23867642592E-01  0.41275087020E-02  0.10196112788E+01  0.10193212249E+01 0.  0.
     999903    2    3    3    0    0  0.21051695830E-01  0.64250607518E-01  0.11152352773E+00  0.13196197361E+00  0.20128357583E-01 0.  0.
         14    1    1    2    0    0 -0.21678357453E-02 -0.23867642592E-01 -0.41275087020E-02  0.24318721241E-01  0.00000000000E+00 0. -1.
     999901    1    3    3    0    0 -0.18883860085E-01 -0.40382964926E-01 -0.10739601902E+00  0.88764930515E+00  0.88000000000E+00 0.  1.
        -11    1    4    4    0    0  0.16072750898E-01  0.20457273207E-01  0.48727959437E-01  0.55240460718E-01  0.51100000000E-03 0.  1.
         11    1    4    4    0    0  0.49789449318E-02  0.43793334311E-01  0.62795568289E-01  0.76721512892E-01  0.51100000000E-03 0. -1.
</event>
<event>
 8    1  0.1111182E+005  0.1043930E+01  0.7957747E-01            NaN
         13   -1    0    0    0    0  0.00000000000E+00  0.00000000000E+00  0.74505805969E-08  0.10566000000E+00  0.10566000000E+00 0. -1.
     999900   -1    0    0    0    0 -0.00000000000E+00 -0.00000000000E+00 -0.74505805969E-08  0.93827000000E+00  0.93827000000E+00 0. -1.
     999902    2    1    2    0    0 -0.56036611363E-02  0.15232871227E-01  0.16407110437E-01  0.10208511210E+01  0.10205902099E+01 0.  0.
     999903    2    3    3    0    0 -0.11120046388E+00 -0.56476948912E-02  0.69218272553E-01  0.13272066793E+00  0.20643808169E-01 0.  0.
         14    1    1    2    0    0  0.56036611363E-02 -0.15232871227E-01 -0.16407110437E-01  0.23078879020E-01  0.00000000000E+00 0.  1.
     999901    1    3    3    0    0  0.10559680274E+00  0.20880566118E-01 -0.52811162116E-01  0.88813045305E+00  0.88000000000E+00 0. -1.
        -11    1    4    4    0    0 -0.16453348363E-01  0.57255561943E-02  0.68922966542E-02  0.18741919332E-01  0.51100000000E-03 0.  1.
         11    1    4    4    0    0 -0.94747115517E-01 -0.11373251085E-01  0.62325975899E-01  0.11397874860E+00  0.51100000000E-03 0. -1.
</event>
<event>
 8    1  0.1111182E+005  0.1043930E+01  0.7957747E-01            NaN
         13   -1    0    0    0    0  0.00000000000E+00  0.00000000000E+00  0.74505805969E-08  0.10566000000E+00  0.10566000000E+00 0. -1.
     999900   -1    0    0    0    0 -0.00000000000E+00 -0.00000000000E+00 -0.74505805969E-08  0.93827000000E+00  0.93827000000E+00 0.  1.
     999902    2    1    2    0    0  0.37675138795E-02 -0.13037888624E-01  0.19278401025E-01  0.10203537949E+01  0.10200813837E+01 0.  0.
     999903    2    3    3    0    0 -0.62968500685E-01 -0.69616202017E-01 -0.87542139976E-01  0.12958703016E+00  0.17824826882E-01 0.  0.
         14    1    1    2    0    0 -0.37675138795E-02  0.13037888624E-01 -0.19278401025E-01  0.23576205095E-01  0.00000000000E+00 0.  1.
     999901    1    3    3    0    0  0.66736014565E-01  0.56578313393E-01  0.10682054100E+00  0.89076676474E+00  0.88000000000E+00 0. -1.
        -11    1    4    4    0    0 -0.39581475433E-01 -0.45951067078E-01 -0.44712693656E-01  0.75350380610E-01  0.51100000000E-03 0. -1.
         11    1    4    4    0    0 -0.23387025252E-01 -0.23665134939E-01 -0.42829446320E-01  0.54236649554E-01  0.51100000000E-03 0.  1.
</event>
<event>
 8    1  0.1111182E+005  0.1043930E+01  0.7957747E-01            NaN
         13   -1    0    0    0    0  0.00000000000E+00  0.00000000000E+00  0.74505805969E-08  0.10566000000E+00  0.10566000000E+00 0.  1.
     999900   -1    0    0    0    0 -0.00000000000E+00 -0.00000000000E+00 -0.74505805969E-08  0.93827000000E+00  0.93827000000E+00 0. -1.
     999902    2    1    2    0    0  0.80693547128E-02  0.12668238553E-01  0.12875282302E-01  0.10241468848E+01  0.10239557949E+01 0.  0.
     999903    2    3    3    0    0 -0.48044091023E-01 -0.82942959567E-01 -0.87368196717E-01  0.13154452365E+00  0.21977048987E-01 0.  0.
         14    1    1    2    0    0 -0.80693547128E-02 -0.12668238553E-01 -0.12875282302E-01  0.19783115221E-01  0.00000000000E+00 0.  1.
     999901    1    3    3    0    0  0.56113445735E-01  0.95611198119E-01  0.10024347902E+00  0.89260236112E+00  0.88000000000E+00 0.  1.
        -11    1    4    4    0    0 -0.34120294601E-01 -0.37123461122E-01 -0.43337630616E-01  0.66488775126E-01  0.51100000000E-03 0. -1.
         11    1    4    4    0    0 -0.13923796421E-01 -0.45819498444E-01 -0.44030566101E-01  0.65055748529E-01  0.51100000000E-03 0.  1.
</event>
<event>
 8    1  0.1111182E+005  0.1043930E+01  0.7957747E-01            NaN
         13   -1    0    0    0    0  0.00000000000E+00  0.00000000000E+00  0.74505805969E-08  0.10566000000E+00  0.10566000000E+00 0.  1.
     999900   -1    0    0    0    0 -0.00000000000E+00 -0.00000000000E+00 -0.74505805969E-08  0.93827000000E+00  0.93827000000E+00 0.  1.
     999902    2    1    2    0    0 -0.44809994109E-02 -0.20202909031E-01 -0.11761331867E-01  0.10201273569E+01  0.10198496255E+01 0.  0.
     999903    2    3    3    0    0  0.59024197290E-01  0.84269722343E-02  0.11238462613E+00  0.12868762315E+00  0.19373446659E-01 0.  0.
         14    1    1    2    0    0  0.44809994109E-02  0.20202909031E-01  0.11761331867E-01  0.23802643053E-01  0.00000000000E+00 0.  1.
     999901    1    3    3    0    0 -0.63505196701E-01 -0.28629881266E-01 -0.12414595799E+00  0.89143973380E+00  0.88000000000E+00 0.  1.
        -11    1    4    4    0    0  0.49098746395E-01  0.10451846798E-01  0.77337900392E-01  0.92202711225E-01  0.51100000000E-03 0.  1.
         11    1    4    4    0    0  0.99254508943E-02 -0.20248745636E-02  0.35046725733E-01  0.36484911923E-01  0.51100000000E-03 0. -1.
</event>
<event>
 8    1  0.1111182E+005  0.1043930E+01  0.7957747E-01            NaN
         13   -1    0    0    0    0  0.00000000000E+00  0.00000000000E+00  0.74505805969E-08  0.10566000000E+00  0.10566000000E+00 0.  1.
     999900   -1    0    0    0    0 -0.00000000000E+00 -0.00000000000E+00 -0.74505805969E-08  0.93827000000E+00  0.93827000000E+00 0.  1.
     999902    2    1    2    0    0  0.13263901830E-01 -0.11102151057E-01  0.12533738765E-01  0.10225692075E+01  0.10223460767E+01 0.  0.
     999903    2    3    3    0    0 -0.32518569636E-01  0.66574016687E-01 -0.10511347898E+00  0.13017328101E+00  0.20166371896E-01 0.  0.
         14    1    1    2    0    0 -0.13263901830E-01  0.11102151057E-01 -0.12533738765E-01  0.21360792525E-01  0.00000000000E+00 0.  1.
     999901    1    3    3    0    0  0.45782471466E-01 -0.77676167744E-01  0.11764721775E+00  0.89239592647E+00  0.88000000000E+00 0. -1.
        -11    1    4    4    0    0 -0.21849570202E-01  0.43506475047E-01 -0.51685315611E-01  0.71005986085E-01  0.51100000000E-03 0. -1.
         11    1    4    4    0    0 -0.10668999434E-01  0.23067541640E-01 -0.53428163373E-01  0.59167294924E-01  0.51100000000E-03 0.  1.
</event>
<event>
 8    1  0.1111182E+005  0.1043930E+01  0.7957747E-01            NaN
         13   -1    0    0    0    0  0.00000000000E+00  0.00000000000E+00  0.74505805969E-08  0.10566000000E+00  0.10566000000E+00 0. -1.
     999900   -1    0    0    0    0 -0.00000000000E+00 -0.00000000000E+00 -0.74505805969E-08  0.93827000000E+00  0.93827000000E+00 0. -1.
     999902    2    1    2    0    0  0.10211024049E-02  0.19285336741E-01  0.11971597301E-01  0.10212080721E+01  0.10209552589E+01 0.  0.
     999903    2    3    3    0    0  0.97368342092E-01 -0.82178890052E-01  0.16079951406E-01  0.13014429301E+00  0.21095216393E-01 0.  0.
         14    1    1    2    0    0 -0.10211024049E-02 -0.19285336741E-01 -0.11971597301E-01  0.22721927852E-01  0.00000000000E+00 0.  1.
     999901    1    3    3    0    0 -0.96347239687E-01  0.10146422679E+00 -0.41083541053E-02  0.89106377914E+00  0.88000000000E+00 0.  1.
        -11    1    4    4    0    0  0.39639904280E-01 -0.31997791992E-01 -0.38747715025E-02  0.51092618634E-01  0.51100000000E-03 0. -1.
         11    1    4    4    0    0  0.57728437812E-01 -0.50181098060E-01  0.19954722909E-01  0.79051674379E-01  0.51100000000E-03 0.  1.
</event>
<event>
 8    1  0.1111182E+005  0.1043930E+01  0.7957747E-01            NaN
         13   -1    0    0    0    0  0.00000000000E+00  0.00000000000E+00  0.74505805969E-08  0.10566000000E+00  0.10566000000E+00 0. -1.
     999900   -1    0    0    0    0 -0.00000000000E+00 -0.00000000000E+00 -0.74505805969E-08  0.93827000000E+00  0.93827000000E+00 0. -1.
     999902    2    1    2    0    0  0.84538717054E-03  0.86501810071E-02 -0.21467014262E-01  0.10207702718E+01  0.10205075084E+01 0.  0.
     999903    2    3    3    0    0  0.63843658176E-02 -0.79620256299E-01 -0.10379590646E+00  0.13251332871E+00  0.20150601643E-01 0.  0.
         14    1    1    2    0    0 -0.84538717054E-03 -0.86501810071E-02  0.21467014262E-01  0.23159728242E-01  0.00000000000E+00 0. -1.
     999901    1    3    3    0    0 -0.55389786471E-02  0.88270437306E-01  0.82328892201E-01  0.88825694305E+00  0.88000000000E+00 0.  1.
        -11    1    4    4    0    0  0.79739296634E-02 -0.52954615043E-01 -0.54297043402E-01  0.76264046915E-01  0.51100000000E-03 0.  1.
         11    1    4    4    0    0 -0.15895638458E-02 -0.26665641255E-01 -0.49498863061E-01  0.56249281792E-01  0.51100000000E-03 0. -1.
</event>
<event>
 8    1  0.1111182E+005  0.1043930E+01  0.7957747E-01            NaN
         13   -1    0    0    0    0  0.00000000000E+00  0.00000000000E+00  0.74505805969E-08  0.10566000000E+00  0.10566000000E+00 0. -1.
     999900   -1    0    0    0    0 -0.00000000000E+00 -0.00000000000E+00 -0.74505805969E-08  0.93827000000E+00  0.93827000000E+00 0.  1.
     999902    2    1    2    0    0  0.13694149023E-01 -0.12067014476E-01 -0.13154018669E-01  0.10214317609E+01  0.10211839557E+01 0.  0.
     999903    2    3    3    0    0 -0.10383795755E+00 -0.77267765764E-01  0.11564422104E-02  0.13111174914E+00  0.20888378334E-01 0.  0.
         14    1    1    2    0    0 -0.13694149023E-01  0.12067014476E-01  0.13154018669E-01  0.22498239108E-01  0.00000000000E+00 0. -1.
     999901    1    3    3    0    0  0.11753210657E+00  0.65200751288E-01 -0.14310460880E-01  0.89032001176E+00  0.88000000000E+00 0.  1.
        -11    1    4    4    0    0 -0.44670561467E-01 -0.45863721498E-01 -0.19249115319E-02  0.64053933656E-01  0.51100000000E-03 0.  1.
         11    1    4    4    0    0 -0.59167396079E-01 -0.31404044266E-01  0.30813537423E-02  0.67057815479E-01  0.51100000000E-03 0. -1.
</event>
<event>
 8    1  0.1111182E+005  0.1043930E+01  0.7957747E-01            NaN
         13   -1    0    0    0    0  0.00000000000E+00  0.00000000000E+00  0.74505805969E-08  0.10566000000E+00  0.10566000000E+00 0.  1.
     999900   -1    0    0    0    0 -0.00000000000E+00 -0.00000000000E+00 -0.74505805969E-08  0.93827000000E+00  0.93827000000E+00 0. -1.
     999902    2    1    2    0    0 -0.16757183950E-01  0.16124065816E-01  0.24317437004E-02  0.10205483386E+01  0.10202804562E+01 0.  0.
     999903    2    3    3    0    0 -0.99866664566E-01 -0.58286095881E-01  0.60055771993E-01  0.13163631451E+00  0.18729759318E-01 0.  0.
         14    1    1    2    0    0  0.16757183950E-01 -0.16124065816E-01 -0.24317437004E-02  0.23381661400E-01  0.00000000000E+00 0.  1.
     999901    1    3    3    0    0  0.83109480615E-01  0.74410161697E-01 -0.57624028293E-01  0.88891202409E+00  0.88000000000E+00 0. -1.
        -11    1    4    4    0    0 -0.52898408969E-01 -0.26224268370E-01  0.21091250946E-01  0.62698133229E-01  0.51100000000E-03 0.  1.
         11    1    4    4    0    0 -0.46968255597E-01 -0.32061827511E-01  0.38964521047E-01  0.68938181283E-01  0.51100000000E-03 0. -1.
</event>
<event>
 8    1  0.1111182E+005  0.1043930E+01  0.7957747E-01            NaN
         13   -1    0    0    0    0  0.00000000000E+00  0.00000000000E+00  0.74505805969E-08  0.10566000000E+00  0.10566000000E+00 0.  1.
     999900   -1    0    0    0    0 -0.00000000000E+00 -0.00000000000E+00 -0.74505805969E-08  0.93827000000E+00  0.93827000000E+00 0. -1.
     999902    2    1    2    0    0 -0.12949726680E-01 -0.15552653292E-01  0.10998727103E-01  0.10208962760E+01  0.10206363965E+01 0.  0.
     999903    2    3    3    0    0 -0.50333097349E-01  0.11772028554E+00  0.47813240849E-02  0.13005518534E+00  0.22360766016E-01 0.  0.
         14    1    1    2    0    0  0.12949726680E-01  0.15552653292E-01 -0.10998727103E-01  0.23033724045E-01  0.00000000000E+00 0.  1.
     999901    1    3    3    0    0  0.37383370669E-01 -0.13327293883E+00  0.62174030183E-02  0.89084109062E+00  0.88000000000E+00 0.  1.
        -11    1    4    4    0    0 -0.32052215641E-01  0.46915736325E-01  0.31484966391E-02  0.56908742690E-01  0.51100000000E-03 0. -1.
         11    1    4    4    0    0 -0.18280881708E-01  0.70804549217E-01  0.16328274457E-02  0.73146442650E-01  0.51100000000E-03 0.  1.
</event>
<event>
 8    1  0.1111182E+005  0.1043930E+01  0.7957747E-01            NaN
         13   -1    0    0    0    0  0.00000000000E+00  0.00000000000E+00  0.74505805969E-08  0.10566000000E+00  0.10566000000E+00 0. -1.
     999900   -1    0    0    0    0 -0.00000000000E+00 -0.00000000000E+00 -0.74505805969E-08  0.93827000000E+00  0.93827000000E+00 0. -1.
     999902    2    1    2    0    0  0.23944193404E-01  0.30238676974E-02 -0.34605161492E-03  0.10197931418E+01  0.10195074615E+01 0.  0.
     999903    2    3    3    0    0 -0.32759770612E-01 -0.36371157705E-02  0.12313981969E+00  0.12933906173E+00  0.21880276849E-01 0.  0.
         14    1    1    2    0    0 -0.23944193404E-01 -0.30238676974E-02  0.34605161492E-03  0.24136858232E-01  0.00000000000E+00 0.  1.
     999901    1    3    3    0    0  0.56703964016E-01  0.66609834679E-02 -0.12348587131E+00  0.89045408003E+00  0.88000000000E+00 0. -1.
        -11    1    4    4    0    0 -0.14892682667E-01 -0.35049535307E-02  0.23080153938E-01  0.27695330348E-01  0.51100000000E-03 0.  1.
         11    1    4    4    0    0 -0.17867087946E-01 -0.13216223982E-03  0.10005966575E+00  0.10164373139E+00  0.51100000000E-03 0. -1.
</event>
<event>
 8    1  0.1111182E+005  0.1043930E+01  0.7957747E-01            NaN
         13   -1    0    0    0    0  0.00000000000E+00  0.00000000000E+00  0.74505805969E-08  0.10566000000E+00  0.10566000000E+00 0. -1.
     999900   -1    0    0    0    0 -0.00000000000E+00 -0.00000000000E+00 -0.74505805969E-08  0.93827000000E+00  0.93827000000E+00 0. -1.
     999902    2    1    2    0    0  0.63534202062E-02 -0.73437778385E-02  0.21341301743E-01  0.10204832906E+01  0.10202138983E+01 0.  0.
     999903    2    3    3    0    0 -0.11423073033E+00  0.48332950596E-01  0.34333167813E-01  0.13042193090E+00  0.21127701793E-01 0.  0.
         14    1    1    2    0    0 -0.63534202062E-02  0.73437778385E-02 -0.21341301743E-01  0.23446709393E-01  0.00000000000E+00 0. -1.
     999901    1    3    3    0    0  0.12058415054E+00 -0.55676728434E-01 -0.12991866069E-01  0.89006135970E+00  0.88000000000E+00 0. -1.
        -11    1    4    4    0    0 -0.94078390577E-01  0.33076023213E-01  0.33233515336E-01  0.10511657599E+00  0.51100000000E-03 0. -1.
         11    1    4    4    0    0 -0.20152339757E-01  0.15256927383E-01  0.10996524769E-02  0.25305354916E-01  0.51100000000E-03 0.  1.
</event>
<event>
 8    1  0.1111182E+005  0.1043930E+01  0.7957747E-01            NaN
         13   -1    0    0    0    0  0.00000000000E+00  0.00000000000E+00  0.74505805969E-08  0.10566000000E+00  0.10566000000E+00 0. -1.
     999900   -1    0    0    0    0 -0.00000000000E+00 -0.00000000000E+00 -0.74505805969E-08  0.93827000000E+00  0.93827000000E+00 0.  1.
     999902    2    1    2    0    0  0.17140618538E-01  0.11380739600E-01 -0.12988706378E-01  0.10195983636E+01  0.10193079978E+01 0.  0.
     999903    2    3    3    0    0 -0.30608866088E-03 -0.58814989491E-01 -0.11507705918E+00  0.13074862388E+00  0.19828676657E-01 0.  0.
         14    1    1    2    0    0 -0.17140618538E-01 -0.11380739600E-01  0.12988706378E-01  0.24331636424E-01  0.00000000000E+00 0. -1.
     999901    1    3    3    0    0  0.17446707199E-01  0.70195729092E-01  0.10208835280E+00  0.88884973969E+00  0.88000000000E+00 0. -1.
        -11    1    4    4    0    0  0.12965317774E-02 -0.33308505187E-01 -0.43919931306E-01  0.55139450481E-01  0.51100000000E-03 0. -1.
         11    1    4    4    0    0 -0.16026204383E-02 -0.25506484305E-01 -0.71157127876E-01  0.75609173401E-01  0.51100000000E-03 0.  1.
</event>
<event>
 8    1  0.1111182E+005  0.1043930E+01  0.7957747E-01            NaN
         13   -1    0    0    0    0  0.00000000000E+00  0.00000000000E+00  0.74505805969E-08  0.10566000000E+00  0.10566000000E+00 0. -1.
     999900   -1    0    0    0    0 -0.00000000000E+00 -0.00000000000E+00 -0.74505805969E-08  0.93827000000E+00  0.93827000000E+00 0.  1.
     999902    2    1    2    0    0 -0.14165260915E-01 -0.21351889437E-02 -0.18621654845E-01  0.10204357522E+01  0.10201652537E+01 0.  0.
     999903    2    3    3    0    0  0.64073622095E-01 -0.10273196980E+00  0.40819204455E-01  0.12927120465E+00  0.19635433054E-01 0.  0.
         14    1    1    2    0    0  0.14165260915E-01  0.21351889437E-02  0.18621654845E-01  0.23494247759E-01  0.00000000000E+00 0. -1.
     999901    1    3    3    0    0 -0.78238883010E-01  0.10059678086E+00 -0.59440859300E-01  0.89116454759E+00  0.88000000000E+00 0. -1.
        -11    1    4    4    0    0  0.57199573397E-01 -0.78491341659E-01  0.36196810343E-01  0.10364917806E+00  0.51100000000E-03 0. -1.
         11    1    4    4    0    0  0.68740486979E-02 -0.24240628141E-01  0.46223941119E-02  0.25622026588E-01  0.51100000000E-03 0.  1.
</event>
<event>
 8    1  0.1111182E+005  0.1043930E+01  0.7957747E-01            NaN
         13   -1    0    0    0    0  0.00000000000E+00  0.00000000000E+00  0.74505805969E-08  0.10566000000E+00  0.10566000000E+00 0. -1.
     999900   -1    0    0    0    0 -0.00000000000E+00 -0.00000000000E+00 -0.74505805969E-08  0.93827000000E+00  0.93827000000E+00 0. -1.
     999902    2    1    2    0    0  0.74609325078E-03  0.16454161449E-01 -0.15534189558E-01  0.10212891712E+01  0.10210381795E+01 0.  0.
     999903    2    3    3    0    0 -0.14810463625E-01  0.24395571513E-02 -0.13108053838E+00  0.13348887026E+00  0.20294572393E-01 0.  0.
         14    1    1    2    0    0 -0.74609325078E-03 -0.16454161449E-01  0.15534189558E-01  0.22640828813E-01  0.00000000000E+00 0. -1.
     999901    1    3    3    0    0  0.15556556876E-01  0.14014604298E-01  0.11554634883E+00  0.88780030093E+00  0.88000000000E+00 0.  1.
        -11    1    4    4    0    0 -0.11470673538E-01 -0.80129403224E-02 -0.82700822442E-01  0.83877712878E-01  0.51100000000E-03 0. -1.
         11    1    4    4    0    0 -0.33397900868E-02  0.10452497474E-01 -0.48379715943E-01  0.49611157384E-01  0.51100000000E-03 0.  1.
</event>
<event>
 8    1  0.1111182E+005  0.1043930E+01  0.7957747E-01            NaN
         13   -1    0    0    0    0  0.00000000000E+00  0.00000000000E+00  0.74505805969E-08  0.10566000000E+00  0.10566000000E+00 0. -1.
     999900   -1    0    0    0    0 -0.00000000000E+00 -0.00000000000E+00 -0.74505805969E-08  0.93827000000E+00  0.93827000000E+00 0.  1.
     999902    2    1    2    0    0 -0.67719653360E-02 -0.15029720773E-01 -0.16874427225E-01  0.10203397835E+01  0.10200670446E+01 0.  0.
     999903    2    3    3    0    0  0.96793787636E-02 -0.71106314532E-01 -0.11047259004E+00  0.13344867000E+00  0.21320319768E-01 0.  0.
         14    1    1    2    0    0  0.67719653360E-02  0.15029720773E-01  0.16874427225E-01  0.23590216514E-01  0.00000000000E+00 0. -1.
     999901    1    3    3    0    0 -0.16451344100E-01  0.56076593759E-01  0.93598162820E-01  0.88689111348E+00  0.88000000000E+00 0. -1.
        -11    1    4    4    0    0 -0.48264541764E-02 -0.48783965500E-02 -0.13091724792E-01  0.14790124808E-01  0.51100000000E-03 0. -1.
         11    1    4    4    0    0  0.14505832940E-01 -0.66227917982E-01 -0.97380865253E-01  0.11865854520E+00  0.51100000000E-03 0.  1.
</event>
<event>
 8    1  0.1111182E+005  0.1043930E+01  0.7957747E-01            NaN
         13   -1    0    0    0    0  0.00000000000E+00  0.00000000000E+00  0.74505805969E-08  0.10566000000E+00  0.10566000000E+00 0. -1.
     999900   -1    0    0    0    0 -0.00000000000E+00 -0.00000000000E+00 -0.74505805969E-08  0.93827000000E+00  0.93827000000E+00 0.  1.
     999902    2    1    2    0    0  0.81104353567E-02  0.14289477693E-01 -0.16662790461E-01  0.10205287838E+01  0.10202604479E+01 0.  0.
     999903    2    3    3    0    0 -0.17012987407E-01  0.24634048268E-01 -0.12817950817E+00  0.13307502452E+00  0.19562662405E-01 0.  0.
         14    1    1    2    0    0 -0.81104353567E-02 -0.14289477693E-01  0.16662790461E-01  0.23401216215E-01  0.00000000000E+00 0. -1.
     999901    1    3    3    0    0  0.25123422764E-01 -0.10344570575E-01  0.11151671771E+00  0.88745375927E+00  0.88000000000E+00 0. -1.
        -11    1    4    4    0    0 -0.87248342248E-02  0.91520267500E-02 -0.21414107580E-01  0.24873830632E-01  0.51100000000E-03 0.  1.
         11    1    4    4    0    0 -0.82881531823E-02  0.15482021518E-01 -0.10676540059E+00  0.10820119388E+00  0.51100000000E-03 0. -1.
</event>
<event>
 8    1  0.1111182E+005  0.1043930E+01  0.7957747E-01            NaN
         13   -1    0    0    0    0  0.00000000000E+00  0.00000000000E+00  0.74505805969E-08  0.10566000000E+00  0.10566000000E+00 0. -1.
     999900   -1    0    0    0    0 -0.00000000000E+00 -0.00000000000E+00 -0.74505805969E-08  0.93827000000E+00  0.93827000000E+00 0. -1.
     999902    2    1    2    0    0 -0.13160475510E-01 -0.13656345156E-01 -0.58792504697E-02  0.10240740320E+01  0.10238815183E+01 0.  0.
     999903    2    3    3    0    0 -0.13233514122E-01 -0.12585802590E+00 -0.45290846432E-01  0.13607487864E+00  0.21207150806E-01 0.  0.
         14    1    1    2    0    0  0.13160475510E-01  0.13656345156E-01  0.58792504697E-02  0.19855967989E-01  0.00000000000E+00 0. -1.
     999901    1    3    3    0    0  0.73038611493E-04  0.11220168075E+00  0.39411595962E-01  0.88799915337E+00  0.88000000000E+00 0.  1.
        -11    1    4    4    0    0 -0.94873055598E-02 -0.12203593694E+00 -0.40667304585E-01  0.12898398992E+00  0.51100000000E-03 0. -1.
         11    1    4    4    0    0 -0.37462085620E-02 -0.38220889632E-02 -0.46235418475E-02  0.70908887206E-02  0.51100000000E-03 0.  1.
</event>
<event>
 8    1  0.1111182E+005  0.1043930E+01  0.7957747E-01            NaN
         13   -1    0    0    0    0  0.00000000000E+00  0.00000000000E+00  0.74505805969E-08  0.10566000000E+00  0.10566000000E+00 0.  1.
     999900   -1    0    0    0    0 -0.00000000000E+00 -0.00000000000E+00 -0.74505805969E-08  0.93827000000E+00  0.93827000000E+00 0. -1.
     999902    2    1    2    0    0  0.14062577800E-01  0.86039177206E-02 -0.16759713329E-01  0.10204210339E+01  0.10201501924E+01 0.  0.
     999903    2    3    3    0    0 -0.94150058138E-01  0.97356523418E-03 -0.88334147817E-01  0.13087559017E+00  0.21455003027E-01 0.  0.
         14    1    1    2    0    0 -0.14062577800E-01 -0.86039177206E-02  0.16759713329E-01  0.23508966064E-01  0.00000000000E+00 0.  1.
     999901    1    3    3    0    0  0.10821263594E+00  0.76303524864E-02  0.71574434488E-01  0.88954544377E+00  0.88000000000E+00 0. -1.
        -11    1    4    4    0    0 -0.47934864855E-01  0.92887715059E-02 -0.53310234309E-01  0.72292978552E-01  0.51100000000E-03 0.  1.
         11    1    4    4    0    0 -0.46215193282E-01 -0.83152062717E-02 -0.35023913508E-01  0.58582611617E-01  0.51100000000E-03 0. -1.
</event>
<event>
 8    1  0.1111182E+005  0.1043930E+01  0.7957747E-01            NaN
         13   -1    0    0    0    0  0.00000000000E+00  0.00000000000E+00  0.74505805969E-08  0.10566000000E+00  0.10566000000E+00 0.  1.
     999900   -1    0    0    0    0 -0.00000000000E+00 -0.00000000000E+00 -0.74505805969E-08  0.93827000000E+00  0.93827000000E+00 0.  1.
     999902    2    1    2    0    0  0.12899144497E-01  0.71751203070E-03  0.19924324765E-01  0.10201838115E+01  0.10199074113E+01 0.  0.
     999903    2    3    3    0    0  0.11603144079E+00  0.58667181304E-01 -0.85236276218E-02  0.13181242478E+00  0.19918074314E-01 0.  0.
         14    1    1    2    0    0 -0.12899144497E-01 -0.71751203070E-03 -0.19924324765E-01  0.23746188528E-01  0.00000000000E+00 0. -1.
     999901    1    3    3    0    0 -0.10313229629E+00 -0.57949669273E-01  0.28447952386E-01  0.88837138670E+00  0.88000000000E+00 0. -1.
        -11    1    4    4    0    0  0.96441686595E-01  0.52391972427E-01 -0.58258429056E-03  0.10975663175E+00  0.51100000000E-03 0. -1.
         11    1    4    4    0    0  0.19589754191E-01  0.62752088767E-02 -0.79410433312E-02  0.22055793024E-01  0.51100000000E-03 0.  1.
</event>
<event>
 8    1  0.1111182E+005  0.1043930E+01  0.7957747E-01            NaN
         13   -1    0    0    0    0  0.00000000000E+00  0.00000000000E+00  0.74505805969E-08  0.10566000000E+00  0.10566000000E+00 0.  1.
     999900   -1    0    0    0    0 -0.00000000000E+00 -0.00000000000E+00 -0.74505805969E-08  0.93827000000E+00  0.93827000000E+00 0. -1.
     999902    2    1    2    0    0  0.72993174681E-02  0.20380871055E-02  0.23860685978E-01  0.10188947015E+01  0.10185870835E+01 0.  0.
     999903    2    3    3    0    0 -0.24848455518E-01  0.63130120504E-01  0.11108030946E+00  0.13189245881E+00  0.21305578747E-01 0.  0.
         14    1    1    2    0    0 -0.72993174681E-02 -0.20380871055E-02 -0.23860685978E-01  0.25035298479E-01  0.00000000000E+00 0. -1.
     999901    1    3    3    0    0  0.32147772986E-01 -0.61092033399E-01 -0.87219623479E-01  0.88700224271E+00  0.88000000000E+00 0. -1.
        -11    1    4    4    0    0 -0.14423503888E-01  0.41287142253E-01  0.51404999552E-01  0.67493708446E-01  0.51100000000E-03 0.  1.
         11    1    4    4    0    0 -0.10424951630E-01  0.21842978251E-01  0.59675309905E-01  0.64398750365E-01  0.51100000000E-03 0. -1.
</event>
<event>
 8    1  0.1111182E+005  0.1043930E+01  0.7957747E-01            NaN
         13   -1    0    0    0    0  0.00000000000E+00  0.00000000000E+00  0.74505805969E-08  0.10566000000E+00  0.10566000000E+00 0.  1.
     999900   -1    0    0    0    0 -0.00000000000E+00 -0.00000000000E+00 -0.74505805969E-08  0.93827000000E+00  0.93827000000E+00 0. -1.
     999902    2    1    2    0    0 -0.17837776004E-01 -0.15992410833E-01 -0.12573352949E-02  0.10199399114E+01  0.10196577360E+01 0.  0.
     999903    2    3    3    0    0  0.28722113246E-01  0.12272123333E+00  0.66435833662E-02  0.12782348245E+00  0.20229794019E-01 0.  0.
         14    1    1    2    0    0  0.17837776004E-01  0.15992410833E-01  0.12573352949E-02  0.23990088559E-01  0.00000000000E+00 0.  1.
     999901    1    3    3    0    0 -0.46559889250E-01 -0.13871364416E+00 -0.79009186611E-02  0.89211642899E+00  0.88000000000E+00 0. -1.
        -11    1    4    4    0    0  0.26671092925E-01  0.11275855503E+00  0.38880098301E-03  0.11587170154E+00  0.51100000000E-03 0. -1.
         11    1    4    4    0    0  0.20510203213E-02  0.99626783011E-02  0.62547823832E-02  0.11951780911E-01  0.51100000000E-03 0.  1.
</event>
<event>
 7    1  0.1111182E+005  0.1043930E+01  0.7957747E-01            NaN
         13   -1    0    0    0    0  0.00000000000E+00  0.00000000000E+00  0.74505805969E-08  0.10566000000E+00  0.10566000000E+00 0. -1.
     999900   -1    0    0    0    0 -0.00000000000E+00 -0.00000000000E+00 -0.74505805969E-08  0.93827000000E+00  0.93827000000E+00 0. -1.
     999902    2    1    2    0    0  0.14160050750E-01 -0.14585831368E-01  0.98590906285E-02  0.10213367448E+01  0.10210868186E+01 0.  0.
         14    1    1    2    0    0 -0.14160050750E-01  0.14585831368E-01 -0.98590906285E-02  0.22593255232E-01  0.00000000000E+00 0.  1.
     999901    1    3    3    0    0 -0.15965845271E-01 -0.11753872630E+00  0.71764927354E-01  0.89085378441E+00  0.88000000000E+00 0.  1.
        -11    1    3    3    0    0  0.95584729699E-03  0.63050835098E-01 -0.21451216401E-01  0.66608837677E-01  0.51100000000E-03 0. -1.
         11    1    3    3    0    0  0.29170048725E-01  0.39902059837E-01 -0.40454620325E-01  0.63874122682E-01  0.51100000000E-03 0.  1.
</event>
<event>
 8    1  0.1111182E+005  0.1043930E+01  0.7957747E-01            NaN
         13   -1    0    0    0    0  0.00000000000E+00  0.00000000000E+00  0.74505805969E-08  0.10566000000E+00  0.10566000000E+00 0.  1.
     999900   -1    0    0    0    0 -0.00000000000E+00 -0.00000000000E+00 -0.74505805969E-08  0.93827000000E+00  0.93827000000E+00 0. -1.
     999902    2    1    2    0    0  0.14540072890E-01 -0.30914355815E-02 -0.18615329210E-01  0.10201077168E+01  0.10198295214E+01 0.  0.
     999903    2    3    3    0    0  0.74902251031E-01 -0.82175926941E-01  0.65193896098E-01  0.13054493908E+00  0.20700407060E-01 0.  0.
         14    1    1    2    0    0 -0.14540072890E-01  0.30914355815E-02  0.18615329210E-01  0.23822283165E-01  0.00000000000E+00 0.  1.
     999901    1    3    3    0    0 -0.60362178141E-01  0.79084491360E-01 -0.83809225307E-01  0.88956277776E+00  0.88000000000E+00 0. -1.
        -11    1    4    4    0    0  0.71863602525E-01 -0.79678154112E-01  0.57136400600E-01  0.12156403664E+00  0.51100000000E-03 0. -1.
         11    1    4    4    0    0  0.30386485061E-02 -0.24977728291E-02  0.80574954977E-02  0.89809024349E-02  0.51100000000E-03 0.  1.
</event>
<event>
 8    1  0.1111182E+005  0.1043930E+01  0.7957747E-01            NaN
         13   -1    0    0    0    0  0.00000000000E+00  0.00000000000E+00  0.74505805969E-08  0.10566000000E+00  0.10566000000E+00 0. -1.
     999900   -1    0    0    0    0 -0.00000000000E+00 -0.00000000000E+00 -0.74505805969E-08  0.93827000000E+00  0.93827000000E+00 0. -1.
     999902    2    1    2    0    0  0.20470312101E-01  0.11447738160E-01 -0.14549793117E-02  0.10204310351E+01  0.10201604266E+01 0.  0.
     999903    2    3    3    0    0 -0.47530196016E-02  0.55248601694E-01 -0.11736588677E+00  0.13139218861E+00  0.20350839421E-01 0.  0.
         14    1    1    2    0    0 -0.20470312101E-01 -0.11447738160E-01  0.14549793117E-02  0.23498964899E-01  0.00000000000E+00 0.  1.
     999901    1    3    3    0    0  0.25223331703E-01 -0.43800863534E-01  0.11591090746E+00  0.88903884649E+00  0.88000000000E+00 0.  1.
        -11    1    4    4    0    0  0.60542501658E-03  0.22463464059E-01 -0.70115478694E-01  0.73630260290E-01  0.51100000000E-03 0.  1.
         11    1    4    4    0    0 -0.53584446182E-02  0.32785137635E-01 -0.47250408076E-01  0.57761928316E-01  0.51100000000E-03 0. -1.
</event>
<event>
 8    1  0.1111182E+005  0.1043930E+01  0.7957747E-01            NaN
         13   -1    0    0    0    0  0.00000000000E+00  0.00000000000E+00  0.74505805969E-08  0.10566000000E+00  0.10566000000E+00 0.  1.
     999900   -1    0    0    0    0 -0.00000000000E+00 -0.00000000000E+00 -0.74505805969E-08  0.93827000000E+00  0.93827000000E+00 0.  1.
     999902    2    1    2    0    0  0.16758191591E-01  0.16096732208E-01  0.55577370972E-02  0.10200379466E+01  0.10197580999E+01 0.  0.
     999903    2    3    3    0    0  0.39450599736E-01  0.10082527464E+00  0.74915084193E-01  0.13296167431E+00  0.18559395725E-01 0.  0.
         14    1    1    2    0    0 -0.16758191591E-01 -0.16096732208E-01 -0.55577370972E-02  0.23892053383E-01  0.00000000000E+00 0. -1.
     999901    1    3    3    0    0 -0.22692408144E-01 -0.84728542435E-01 -0.69357347096E-01  0.88707627231E+00  0.88000000000E+00 0.  1.
        -11    1    4    4    0    0  0.24358246091E-01  0.68332328875E-01  0.39588437289E-01  0.82644641751E-01  0.51100000000E-03 0.  1.
         11    1    4    4    0    0  0.15092353645E-01  0.32492945768E-01  0.35326646905E-01  0.50317032561E-01  0.51100000000E-03 0. -1.
</event>
<event>
 8    1  0.1111182E+005  0.1043930E+01  0.7957747E-01            NaN
         13   -1    0    0    0    0  0.00000000000E+00  0.00000000000E+00  0.74505805969E-08  0.10566000000E+00  0.10566000000E+00 0.  1.
     999900   -1    0    0    0    0 -0.00000000000E+00 -0.00000000000E+00 -0.74505805969E-08  0.93827000000E+00  0.93827000000E+00 0.  1.
     999902    2    1    2    0    0 -0.21953064306E-02 -0.20768664238E-01 -0.11192318585E-01  0.10202355960E+01  0.10199604142E+01 0.  0.
     999903    2    3    3    0    0 -0.15250581842E-01  0.12350669969E+00 -0.24272611617E-01  0.12829562331E+00  0.19599034948E-01 0.  0.
         14    1    1    2    0    0  0.21953064306E-02  0.20768664238E-01  0.11192318585E-01  0.23694403978E-01  0.00000000000E+00 0.  1.
     999901    1    3    3    0    0  0.13055275412E-01 -0.14427536393E+00  0.13080293032E-01  0.89193997271E+00  0.88000000000E+00 0. -1.
        -11    1    4    4    0    0 -0.71643406404E-02  0.74430640751E-01 -0.49707378212E-02  0.74941426560E-01  0.51100000000E-03 0. -1.
         11    1    4    4    0    0 -0.80862412018E-02  0.49076058941E-01 -0.19301873796E-01  0.53354196751E-01  0.51100000000E-03 0.  1.
</event>
<event>
 8    1  0.1111182E+005  0.1043930E+01  0.7957747E-01            NaN
         13   -1    0    0    0    0  0.00000000000E+00  0.00000000000E+00  0.74505805969E-08  0.10566000000E+00  0.10566000000E+00 0.  1.
     999900   -1    0    0    0    0 -0.00000000000E+00 -0.00000000000E+00 -0.74505805969E-08  0.93827000000E+00  0.93827000000E+00 0. -1.
     999902    2    1    2    0    0 -0.72273902714E-02  0.56612355621E-02 -0.22051267897E-01  0.10200439544E+01  0.10197642501E+01 0.  0.
     999903    2    3    3    0    0 -0.30152987561E-01 -0.21761573818E-02  0.12309589930E+00  0.12782497462E+00  0.16513188488E-01 0.  0.
         14    1    1    2    0    0  0.72273902714E-02 -0.56612355621E-02  0.22051267897E-01  0.23886045594E-01  0.00000000000E+00 0.  1.
     999901    1    3    3    0    0  0.22925597289E-01  0.78373929439E-02 -0.14514716719E+00  0.89221897978E+00  0.88000000000E+00 0. -1.
        -11    1    4    4    0    0 -0.16050716513E-01  0.45666898636E-02  0.85343798170E-01  0.86961515419E-01  0.51100000000E-03 0. -1.
         11    1    4    4    0    0 -0.14102271047E-01 -0.67428472454E-02  0.37752101128E-01  0.40863459205E-01  0.51100000000E-03 0.  1.
</event>
<event>
 8    1  0.1111182E+005  0.1043930E+01  0.7957747E-01            NaN
         13   -1    0    0    0    0  0.00000000000E+00  0.00000000000E+00  0.74505805969E-08  0.10566000000E+00  0.10566000000E+00 0.  1.
     999900   -1    0    0    0    0 -0.00000000000E+00 -0.00000000000E+00 -0.74505805969E-08  0.93827000000E+00  0.93827000000E+00 0.  1.
     999902    2    1    2    0    0  0.16692634239E-01 -0.49932141829E-02 -0.16692502461E-01  0.10198008503E+01  0.10195153547E+01 0.  0.
     999903    2    3    3    0    0 -0.10457748958E+00 -0.17591492461E-02  0.69626202380E-01  0.12729436804E+00  0.20408384163E-01 0.  0.
         14    1    1    2    0    0 -0.16692634239E-01  0.49932141829E-02  0.16692502461E-01  0.24129149677E-01  0.00000000000E+00 0.  1.
     999901    1    3    3    0    0  0.12127012382E+00 -0.32340649368E-02 -0.86318704841E-01  0.89250648228E+00  0.88000000000E+00 0.  1.
        -11    1    4    4    0    0 -0.66574333881E-01  0.28248021495E-03  0.55568468728E-01  0.86719879870E-01  0.51100000000E-03 0. -1.
         11    1    4    4    0    0 -0.38003155700E-01 -0.20416294610E-02  0.14057733652E-01  0.40574488173E-01  0.51100000000E-03 0.  1.
</event>
<event>
 8    1  0.1111182E+005  0.1043930E+01  0.7957747E-01            NaN
         13   -1    0    0    0    0  0.00000000000E+00  0.00000000000E+00  0.74505805969E-08  0.10566000000E+00  0.10566000000E+00 0.  1.
     999900   -1    0    0    0    0 -0.00000000000E+00 -0.00000000000E+00 -0.74505805969E-08  0.93827000000E+00  0.93827000000E+00 0. -1.
     999902    2    1    2    0    0 -0.78927061043E-02  0.19908094349E-01 -0.11850328682E-01  0.10194543525E+01  0.10191604974E+01 0.  0.
     999903    2    3    3    0    0  0.87490564392E-02 -0.10665967136E+00  0.65051862493E-01  0.12692407594E+00  0.20619038735E-01 0.  0.
         14    1    1    2    0    0  0.78927061043E-02 -0.19908094349E-01  0.11850328682E-01  0.24475647491E-01  0.00000000000E+00 0.  1.
     999901    1    3    3    0    0 -0.16641762544E-01  0.12656776570E+00 -0.76902191175E-01  0.89253027656E+00  0.88000000000E+00 0. -1.
        -11    1    4    4    0    0 -0.63874350863E-02 -0.28192582221E-01  0.14296492433E-01  0.32253245359E-01  0.51100000000E-03 0.  1.
         11    1    4    4    0    0  0.15136491526E-01 -0.78467089134E-01  0.50755370060E-01  0.94670830586E-01  0.51100000000E-03 0. -1.
</event>
<event>
 8    1  0.1111182E+005  0.1043930E+01  0.7957747E-01            NaN
         13   -1    0    0    0    0  0.00000000000E+00  0.00000000000E+00  0.74505805969E-08  0.10566000000E+00  0.10566000000E+00 0.  1.
     999900   -1    0    0    0    0 -0.00000000000E+00 -0.00000000000E+00 -0.74505805969E-08  0.93827000000E+00  0.93827000000E+00 0.  1.
     999902    2    1    2    0    0  0.18482185096E-01 -0.13915729827E-01  0.34527638848E-02  0.10205385426E+01  0.10202704331E+01 0.  0.
     999903    2    3    3    0    0 -0.85705786048E-01  0.77202385071E-01 -0.51913569015E-01  0.12800110637E+00  0.19585059627E-01 0.  0.
         14    1    1    2    0    0 -0.18482185096E-01  0.13915729827E-01 -0.34527638848E-02  0.23391457436E-01  0.00000000000E+00 0. -1.
     999901    1    3    3    0    0  0.10418797114E+00 -0.91118114898E-01  0.55366332900E-01  0.89253743620E+00  0.88000000000E+00 0. -1.
        -11    1    4    4    0    0 -0.48660657671E-01  0.36433060708E-01 -0.36041745803E-01  0.70671748804E-01  0.51100000000E-03 0. -1.
         11    1    4    4    0    0 -0.37045128376E-01  0.40769324363E-01 -0.15871823212E-01  0.57329357563E-01  0.51100000000E-03 0.  1.
</event>
<event>
 8    1  0.1111182E+005  0.1043930E+01  0.7957747E-01            NaN
         13   -1    0    0    0    0  0.00000000000E+00  0.00000000000E+00  0.74505805969E-08  0.10566000000E+00  0.10566000000E+00 0.  1.
     999900   -1    0    0    0    0 -0.00000000000E+00 -0.00000000000E+00 -0.74505805969E-08  0.93827000000E+00  0.93827000000E+00 0. -1.
     999902    2    1    2    0    0  0.24308232056E-02  0.46612532904E-02  0.18079790716E-01  0.10251014309E+01  0.10249284992E+01 0.  0.
     999903    2    3    3    0    0  0.40482611040E-01 -0.47408253431E-01 -0.11544185433E+00  0.13269614076E+00  0.19876110080E-01 0.  0.
         14    1    1    2    0    0 -0.24308232056E-02 -0.46612532904E-02 -0.18079790716E-01  0.18828569145E-01  0.00000000000E+00 0.  1.
     999901    1    3    3    0    0 -0.38051787834E-01  0.52069506722E-01  0.13352164505E+00  0.89240529009E+00  0.88000000000E+00 0.  1.
        -11    1    4    4    0    0 -0.58496581446E-03 -0.43723395700E-02 -0.17920747736E-01  0.18462769530E-01  0.51100000000E-03 0.  1.
         11    1    4    4    0    0  0.41067576854E-01 -0.43035913861E-01 -0.97521106596E-01  0.11423337123E+00  0.51100000000E-03 0. -1.
</event>
<event>
 8    1  0.1111182E+005  0.1043930E+01  0.7957747E-01            NaN
         13   -1    0    0    0    0  0.00000000000E+00  0.00000000000E+00  0.74505805969E-08  0.10566000000E+00  0.10566000000E+00 0.  1.
     999900   -1    0    0    0    0 -0.00000000000E+00 -0.00000000000E+00 -0.74505805969E-08  0.93827000000E+00  0.93827000000E+00 0. -1.
     999902    2    1    2    0    0  0.27552334557E-01  0.17230507658E-02  0.20875012276E-01  0.10093197966E+01  0.10087262193E+01 0.  0.
     999903    2    3    3    0    0 -0.72225076769E-01 -0.96332377127E-02  0.93972633438E-01  0.12059725308E+00  0.20089316372E-01 0.  0.
         14    1    1    2    0    0 -0.27552334557E-01 -0.17230507658E-02 -0.20875012276E-01  0.34610203423E-01  0.00000000000E+00 0. -1.
     999901    1    3    3    0    0  0.99777411326E-01  0.11356288478E-01 -0.73097621162E-01  0.88872254350E+00  0.88000000000E+00 0. -1.
        -11    1    4    4    0    0 -0.35547255082E-01  0.33122048681E-02  0.54695356555E-01  0.65317847443E-01  0.51100000000E-03 0.  1.
         11    1    4    4    0    0 -0.36677821687E-01 -0.12945442581E-01  0.39277276883E-01  0.55279405637E-01  0.51100000000E-03 0. -1.
</event>
<event>
 8    1  0.1111182E+005  0.1043930E+01  0.7957747E-01            NaN
         13   -1    0    0    0    0  0.00000000000E+00  0.00000000000E+00  0.74505805969E-08  0.10566000000E+00  0.10566000000E+00 0. -1.
     999900   -1    0    0    0    0 -0.00000000000E+00 -0.00000000000E+00 -0.74505805969E-08  0.93827000000E+00  0.93827000000E+00 0. -1.
     999902    2    1    2    0    0  0.11077814059E-01 -0.92648557235E-02  0.15616016342E-01  0.10226599393E+01  0.10224387199E+01 0.  0.
     999903    2    3    3    0    0 -0.66818273443E-01  0.51680764683E-01 -0.97101267601E-01  0.12997446546E+00  0.18141730860E-01 0.  0.
         14    1    1    2    0    0 -0.11077814059E-01  0.92648557235E-02 -0.15616016342E-01  0.21270060703E-01  0.00000000000E+00 0.  1.
     999901    1    3    3    0    0  0.77896087502E-01 -0.60945620407E-01  0.11271728394E+00  0.89268547383E+00  0.88000000000E+00 0.  1.
        -11    1    4    4    0    0 -0.11887807105E-01  0.15629858937E-02 -0.12198286169E-01  0.17112048070E-01  0.51100000000E-03 0. -1.
         11    1    4    4    0    0 -0.54930466337E-01  0.50117778790E-01 -0.84902981432E-01  0.11286241739E+00  0.51100000000E-03 0.  1.
</event>
<event>
 8    1  0.1111182E+005  0.1043930E+01  0.7957747E-01            NaN
         13   -1    0    0    0    0  0.00000000000E+00  0.00000000000E+00  0.74505805969E-08  0.10566000000E+00  0.10566000000E+00 0.  1.
     999900   -1    0    0    0    0 -0.00000000000E+00 -0.00000000000E+00 -0.74505805969E-08  0.93827000000E+00  0.93827000000E+00 0.  1.
     999902    2    1    2    0    0 -0.72225437243E-02 -0.37815752313E-02  0.22091445838E-01  0.10203822309E+01  0.10201104841E+01 0.  0.
     999903    2    3    3    0    0 -0.87332891530E-01  0.82653055163E-01  0.50924645422E-01  0.13205798463E+00  0.19683249813E-01 0.  0.
         14    1    1    2    0    0  0.72225437243E-02  0.37815752313E-02 -0.22091445838E-01  0.23547769072E-01  0.00000000000E+00 0. -1.
     999901    1    3    3    0    0  0.80110347806E-01 -0.86434630394E-01 -0.28833199584E-01  0.88832424629E+00  0.88000000000E+00 0.  1.
        -11    1    4    4    0    0 -0.65615311285E-01  0.67907312902E-01  0.47102538961E-01  0.10552574339E+00  0.51100000000E-03 0.  1.
         11    1    4    4    0    0 -0.21717580245E-01  0.14745742261E-01  0.38221064602E-02  0.26532241242E-01  0.51100000000E-03 0. -1.
</event>
<event>
 8    1  0.1111182E+005  0.1043930E+01  0.7957747E-01            NaN
         13   -1    0    0    0    0  0.00000000000E+00  0.00000000000E+00  0.74505805969E-08  0.10566000000E+00  0.10566000000E+00 0. -1.
     999900   -1    0    0    0    0 -0.00000000000E+00 -0.00000000000E+00 -0.74505805969E-08  0.93827000000E+00  0.93827000000E+00 0.  1.
     999902    2    1    2    0    0  0.16348995286E-01  0.11066920209E-01 -0.13475439632E-01  0.10200269909E+01  0.10197468845E+01 0.  0.
     999903    2    3    3    0    0 -0.26284899021E-02 -0.12513520806E+00 -0.25354837499E-01  0.12926760434E+00  0.20037876416E-01 0.  0.
         14    1    1    2    0    0 -0.16348995286E-01 -0.11066920209E-01  0.13475439632E-01  0.23903009079E-01  0.00000000000E+00 0. -1.
     999901    1    3    3    0    0  0.18977485188E-01  0.13620212827E+00  0.11879397867E-01  0.89075938658E+00  0.88000000000E+00 0. -1.
        -11    1    4    4    0    0  0.18356189854E-02 -0.19417381360E-01 -0.11240935182E-01  0.22517192114E-01  0.51100000000E-03 0.  1.
         11    1    4    4    0    0 -0.44641088875E-02 -0.10571782670E+00 -0.14113902317E-01  0.10675041222E+00  0.51100000000E-03 0. -1.
</event>
<event>
 8    1  0.1230385E+005  0.1043930E+01  0.7957747E-01            NaN
         13   -1    0    0    0    0  0.00000000000E+00  0.00000000000E+00  0.74505805969E-08  0.10566000000E+00  0.10566000000E+00 0. -1.
     999900   -1    0    0    0    0 -0.00000000000E+00 -0.00000000000E+00 -0.74505805969E-08  0.93827000000E+00  0.93827000000E+00 0. -1.
     999902    2    1    2    0    0 -0.81570294127E-02 -0.64793245439E-02  0.22126518351E-01  0.10194738844E+01  0.10191805038E+01 0.  0.
     999903    2    3    3    0    0  0.10937797888E-01 -0.33912900244E-01  0.12602343373E+00  0.13273165437E+00  0.21588561750E-01 0.  0.
         14    1    1    2    0    0  0.81570294127E-02  0.64793245439E-02 -0.22126518351E-01  0.24456115589E-01  0.00000000000E+00 0.  1.
     999901    1    3    3    0    0 -0.19094827301E-01  0.27433575700E-01 -0.10389691538E+00  0.88674223004E+00  0.88000000000E+00 0. -1.
        -11    1    4    4    0    0 -0.54290250097E-02 -0.67148889398E-02  0.42652043099E-01  0.43520362448E-01  0.51100000000E-03 0. -1.
         11    1    4    4    0    0  0.16366822898E-01 -0.27198011304E-01  0.83371390630E-01  0.89211291927E-01  0.51100000000E-03 0.  1.
</event>
<event>
 8    1  0.1111182E+005  0.1043930E+01  0.7957747E-01            NaN
         13   -1    0    0    0    0  0.00000000000E+00  0.00000000000E+00  0.74505805969E-08  0.10566000000E+00  0.10566000000E+00 0. -1.
     999900   -1    0    0    0    0 -0.00000000000E+00 -0.00000000000E+00 -0.74505805969E-08  0.93827000000E+00  0.93827000000E+00 0.  1.
     999902    2    1    2    0    0  0.13746571634E-01 -0.19610905493E-01  0.15333919371E-03  0.10199804831E+01  0.10196992726E+01 0.  0.
     999903    2    3    3    0    0 -0.33961539103E-01 -0.12426249483E+00 -0.22422097935E-01  0.13220930238E+00  0.19544702630E-01 0.  0.
         14    1    1    2    0    0 -0.13746571634E-01  0.19610905493E-01 -0.15333919371E-03  0.23949516882E-01  0.00000000000E+00 0.  1.
     999901    1    3    3    0    0  0.47708110737E-01  0.10465158934E+00  0.22575437129E-01  0.88777118073E+00  0.88000000000E+00 0. -1.
        -11    1    4    4    0    0 -0.18909846781E-01 -0.95547703471E-01 -0.11934037883E-01  0.98130669645E-01  0.51100000000E-03 0. -1.
         11    1    4    4    0    0 -0.15051692322E-01 -0.28714791362E-01 -0.10488060052E-01  0.34078632739E-01  0.51100000000E-03 0.  1.
</event>
<event>
 8    1  0.1111182E+005  0.1043930E+01  0.7957747E-01            NaN
         13   -1    0    0    0    0  0.00000000000E+00  0.00000000000E+00  0.74505805969E-08  0.10566000000E+00  0.10566000000E+00 0.  1.
     999900   -1    0    0    0    0 -0.00000000000E+00 -0.00000000000E+00 -0.74505805969E-08  0.93827000000E+00  0.93827000000E+00 0. -1.
     999902    2    1    2    0    0 -0.19870999934E-01  0.12427474343E-01 -0.47466842841E-02  0.10200170376E+01  0.10197366951E+01 0.  0.
     999903    2    3    3    0    0  0.20216414793E-01 -0.12186092744E+00  0.30827823552E-01  0.12821777700E+00  0.15187316142E-01 0.  0.
         14    1    1    2    0    0  0.19870999934E-01 -0.12427474343E-01  0.47466842841E-02  0.23912962356E-01  0.00000000000E+00 0. -1.
     999901    1    3    3    0    0 -0.40087414727E-01  0.13428840178E+00 -0.35574507836E-01  0.89179926064E+00  0.88000000000E+00 0. -1.
        -11    1    4    4    0    0  0.76917627643E-03 -0.40662082999E-01  0.14209852544E-01  0.43083380279E-01  0.51100000000E-03 0. -1.
         11    1    4    4    0    0  0.19447238517E-01 -0.81198844439E-01  0.16617971007E-01  0.85134396724E-01  0.51100000000E-03 0.  1.
</event>
<event>
 8    1  0.1111182E+005  0.1043930E+01  0.7957747E-01            NaN
         13   -1    0    0    0    0  0.00000000000E+00  0.00000000000E+00  0.74505805969E-08  0.10566000000E+00  0.10566000000E+00 0.  1.
     999900   -1    0    0    0    0 -0.00000000000E+00 -0.00000000000E+00 -0.74505805969E-08  0.93827000000E+00  0.93827000000E+00 0.  1.
     999902    2    1    2    0    0  0.12408840846E-01  0.17288948890E-01 -0.12215686449E-01  0.10193920685E+01  0.10190966977E+01 0.  0.
     999903    2    3    3    0    0  0.47991642106E-01 -0.11591267416E+00  0.17296555316E-01  0.12816831406E+00  0.19723086999E-01 0.  0.
         14    1    1    2    0    0 -0.12408840846E-01 -0.17288948890E-01  0.12215686449E-01  0.24537931459E-01  0.00000000000E+00 0. -1.
     999901    1    3    3    0    0 -0.35582801260E-01  0.13320162305E+00 -0.29512241765E-01  0.89122375448E+00  0.88000000000E+00 0. -1.
        -11    1    4    4    0    0 -0.32180871723E-03 -0.15518080688E-01  0.33003705421E-02  0.15876648129E-01  0.51100000000E-03 0. -1.
         11    1    4    4    0    0  0.48313450824E-01 -0.10039459347E+00  0.13996184773E-01  0.11229166594E+00  0.51100000000E-03 0.  1.
</event>
<event>
 8    1  0.1111182E+005  0.1043930E+01  0.7957747E-01            NaN
         13   -1    0    0    0    0  0.00000000000E+00  0.00000000000E+00  0.74505805969E-08  0.10566000000E+00  0.10566000000E+00 0. -1.
     999900   -1    0    0    0    0 -0.00000000000E+00 -0.00000000000E+00 -0.74505805969E-08  0.93827000000E+00  0.93827000000E+00 0.  1.
     999902    2    1    2    0    0  0.15806499019E-01  0.13913514703E-01 -0.27824084558E-02  0.10226891643E+01  0.10224685588E+01 0.  0.
     999903    2    3    3    0    0 -0.10737743874E+00 -0.60013702560E-01 -0.38373386603E-01  0.13032924049E+00  0.19535487756E-01 0.  0.
         14    1    1    2    0    0 -0.15806499019E-01 -0.13913514703E-01  0.27824084558E-02  0.21240835658E-01  0.00000000000E+00 0. -1.
     999901    1    3    3    0    0  0.12318393776E+00  0.73927217264E-01  0.35590978147E-01  0.89235992385E+00  0.88000000000E+00 0. -1.
        -11    1    4    4    0    0 -0.46956844302E-01 -0.21777634152E-01 -0.25391035602E-01  0.57655670892E-01  0.51100000000E-03 0. -1.
         11    1    4    4    0    0 -0.60420594437E-01 -0.38236068409E-01 -0.12982351001E-01  0.72673569597E-01  0.51100000000E-03 0.  1.
</event>
<event>
 8    1  0.1111182E+005  0.1043930E+01  0.7957747E-01            NaN
         13   -1    0    0    0    0  0.00000000000E+00  0.00000000000E+00  0.74505805969E-08  0.10566000000E+00  0.10566000000E+00 0.  1.
     999900   -1    0    0    0    0 -0.00000000000E+00 -0.00000000000E+00 -0.74505805969E-08  0.93827000000E+00  0.93827000000E+00 0.  1.
     999902    2    1    2    0    0  0.60506920174E-02  0.21629319384E-02 -0.22845308386E-01  0.10201982225E+01  0.10199221617E+01 0.  0.
     999903    2    3    3    0    0  0.61478800643E-01  0.11406012800E+00 -0.72149452931E-03  0.13110727053E+00  0.19980993563E-01 0.  0.
         14    1    1    2    0    0 -0.60506920174E-02 -0.21629319384E-02  0.22845308386E-01  0.23731777509E-01  0.00000000000E+00 0.  1.
     999901    1    3    3    0    0 -0.55428108625E-01 -0.11189719607E+00 -0.22123813857E-01  0.88909095196E+00  0.88000000000E+00 0. -1.
        -11    1    4    4    0    0  0.37888097487E-01  0.50468569358E-01 -0.36559340628E-02  0.63215594588E-01  0.51100000000E-03 0.  1.
         11    1    4    4    0    0  0.23590703156E-01  0.63591558645E-01  0.29344395335E-02  0.67891675946E-01  0.51100000000E-03 0. -1.
</event>
<event>
 8    1  0.1111182E+005  0.1043930E+01  0.7957747E-01            NaN
         13   -1    0    0    0    0  0.00000000000E+00  0.00000000000E+00  0.74505805969E-08  0.10566000000E+00  0.10566000000E+00 0. -1.
     999900   -1    0    0    0    0 -0.00000000000E+00 -0.00000000000E+00 -0.74505805969E-08  0.93827000000E+00  0.93827000000E+00 0. -1.
     999902    2    1    2    0    0  0.14069469232E-01  0.15056995174E-01 -0.97750951663E-02  0.10211217657E+01  0.10208670064E+01 0.  0.
     999903    2    3    3    0    0 -0.80053078615E-01 -0.11027991500E-01 -0.10095410224E+00  0.13103576315E+00  0.21178490776E-01 0.  0.
         14    1    1    2    0    0 -0.14069469232E-01 -0.15056995174E-01  0.97750951663E-02  0.22808234339E-01  0.00000000000E+00 0. -1.
     999901    1    3    3    0    0  0.94122547846E-01  0.26084986674E-01  0.91179007075E-01  0.89008600252E+00  0.88000000000E+00 0.  1.
        -11    1    4    4    0    0 -0.66748232663E-01 -0.16094085387E-01 -0.77019739261E-01  0.10318259303E+00  0.51100000000E-03 0. -1.
         11    1    4    4    0    0 -0.13304845952E-01  0.50660938868E-02 -0.23934362981E-01  0.27853170113E-01  0.51100000000E-03 0.  1.
</event>
<event>
 8    1  0.1111182E+005  0.1043930E+01  0.7957747E-01            NaN
         13   -1    0    0    0    0  0.00000000000E+00  0.00000000000E+00  0.74505805969E-08  0.10566000000E+00  0.10566000000E+00 0. -1.
     999900   -1    0    0    0    0 -0.00000000000E+00 -0.00000000000E+00 -0.74505805969E-08  0.93827000000E+00  0.93827000000E+00 0. -1.
     999902    2    1    2    0    0  0.16517148313E-01 -0.28870788244E-03  0.17659792546E-01  0.10197480271E+01  0.10194612651E+01 0.  0.
     999903    2    3    3    0    0 -0.60584967476E-01 -0.39128652371E-01  0.10764113634E+00  0.13095675814E+00  0.19012326226E-01 0.  0.
         14    1    1    2    0    0 -0.16517148313E-01  0.28870788244E-03 -0.17659792546E-01  0.24181972901E-01  0.00000000000E+00 0.  1.
     999901    1    3    3    0    0  0.77102115788E-01  0.38839944489E-01 -0.89981343798E-01  0.88879126896E+00  0.88000000000E+00 0. -1.
        -11    1    4    4    0    0 -0.34106168821E-01 -0.20440079415E-01  0.75373343848E-01  0.85219890178E-01  0.51100000000E-03 0. -1.
         11    1    4    4    0    0 -0.26478798655E-01 -0.18688572956E-01  0.32267792496E-01  0.45736867961E-01  0.51100000000E-03 0.  1.
</event>
<event>
 8    1  0.1111182E+005  0.1043930E+01  0.7957747E-01            NaN
         13   -1    0    0    0    0  0.00000000000E+00  0.00000000000E+00  0.74505805969E-08  0.10566000000E+00  0.10566000000E+00 0.  1.
     999900   -1    0    0    0    0 -0.00000000000E+00 -0.00000000000E+00 -0.74505805969E-08  0.93827000000E+00  0.93827000000E+00 0.  1.
     999902    2    1    2    0    0 -0.18791295959E-01  0.13640426217E-01 -0.42523328630E-02  0.10203237219E+01  0.10200506071E+01 0.  0.
     999903    2    3    3    0    0  0.10859854961E+00 -0.41392418965E-01  0.49396206197E-01  0.12783565332E+00  0.19874399332E-01 0.  0.
         14    1    1    2    0    0  0.18791295959E-01 -0.13640426217E-01  0.42523328630E-02  0.23606278105E-01  0.00000000000E+00 0.  1.
     999901    1    3    3    0    0 -0.12738984557E+00  0.55032845182E-01 -0.53648539060E-01  0.89248806857E+00  0.88000000000E+00 0.  1.
        -11    1    4    4    0    0  0.70771523182E-01 -0.16943981863E-01  0.28072583345E-01  0.78000244048E-01  0.51100000000E-03 0.  1.
         11    1    4    4    0    0  0.37827026426E-01 -0.24448437102E-01  0.21323622852E-01  0.49835409274E-01  0.51100000000E-03 0. -1.
</event>
<event>
 8    1  0.1111182E+005  0.1043930E+01  0.7957747E-01            NaN
         13   -1    0    0    0    0  0.00000000000E+00  0.00000000000E+00  0.74505805969E-08  0.10566000000E+00  0.10566000000E+00 0.  1.
     999900   -1    0    0    0    0 -0.00000000000E+00 -0.00000000000E+00 -0.74505805969E-08  0.93827000000E+00  0.93827000000E+00 0.  1.
     999902    2    1    2    0    0  0.21363425646E-01  0.10649349326E-01 -0.93644695989E-03  0.10200410584E+01  0.10197612855E+01 0.  0.
     999903    2    3    3    0    0  0.95033309802E-01  0.50564362571E-01  0.75036938441E-01  0.13280241218E+00  0.20441472931E-01 0.  0.
         14    1    1    2    0    0 -0.21363425646E-01 -0.10649349326E-01  0.93644695989E-03  0.23888941570E-01  0.00000000000E+00 0.  1.
     999901    1    3    3    0    0 -0.73669884156E-01 -0.39915013245E-01 -0.75973385401E-01  0.88723864625E+00  0.88000000000E+00 0.  1.
        -11    1    4    4    0    0  0.31281823971E-01  0.23425648199E-01  0.36701749450E-01  0.53615231401E-01  0.51100000000E-03 0.  1.
         11    1    4    4    0    0  0.63751485832E-01  0.27138714372E-01  0.38335188991E-01  0.79187180777E-01  0.51100000000E-03 0. -1.
</event>
<event>
 8    1  0.1111182E+005  0.1043930E+01  0.7957747E-01            NaN
         13   -1    0    0    0    0  0.00000000000E+00  0.00000000000E+00  0.74505805969E-08  0.10566000000E+00  0.10566000000E+00 0. -1.
     999900   -1    0    0    0    0 -0.00000000000E+00 -0.00000000000E+00 -0.74505805969E-08  0.93827000000E+00  0.93827000000E+00 0. -1.
     999902    2    1    2    0    0 -0.77113121995E-02 -0.10531716630E-01 -0.19793048228E-01  0.10202203786E+01  0.10199448390E+01 0.  0.
     999903    2    3    3    0    0  0.68462691136E-01  0.10724136150E+00  0.31268947143E-02  0.12881794390E+00  0.19910688260E-01 0.  0.
         14    1    1    2    0    0  0.77113121995E-02  0.10531716630E-01  0.19793048228E-01  0.23709621447E-01  0.00000000000E+00 0. -1.
     999901    1    3    3    0    0 -0.76174003335E-01 -0.11777307813E+00 -0.22919942942E-01  0.89140243465E+00  0.88000000000E+00 0.  1.
        -11    1    4    4    0    0  0.25666977889E-02  0.15881909847E-01  0.14273373340E-02  0.16159251554E-01  0.51100000000E-03 0. -1.
         11    1    4    4    0    0  0.65895993347E-01  0.91359451652E-01  0.16995573802E-02  0.11265869235E+00  0.51100000000E-03 0.  1.
</event>
<event>
 8    1  0.1111182E+005  0.1043930E+01  0.7957747E-01            NaN
         13   -1    0    0    0    0  0.00000000000E+00  0.00000000000E+00  0.74505805969E-08  0.10566000000E+00  0.10566000000E+00 0.  1.
     999900   -1    0    0    0    0 -0.00000000000E+00 -0.00000000000E+00 -0.74505805969E-08  0.93827000000E+00  0.93827000000E+00 0. -1.
     999902    2    1    2    0    0  0.37819830465E-02  0.25972436204E-01  0.14952831883E-01  0.10137230799E+01  0.10132729271E+01 0.  0.
     999903    2    3    3    0    0 -0.46166439875E-01 -0.41769673687E-01  0.10657886221E+00  0.12497161421E+00  0.19565394927E-01 0.  0.
         14    1    1    2    0    0 -0.37819830465E-02 -0.25972436204E-01 -0.14952831883E-01  0.30206920059E-01  0.00000000000E+00 0. -1.
     999901    1    3    3    0    0  0.49948422922E-01  0.67742109892E-01 -0.91626030322E-01  0.88875146573E+00  0.88000000000E+00 0. -1.
        -11    1    4    4    0    0 -0.28377110176E-01 -0.35885163606E-01  0.66410520404E-01  0.80645047525E-01  0.51100000000E-03 0.  1.
         11    1    4    4    0    0 -0.17789329700E-01 -0.58845100814E-02  0.40168341801E-01  0.44326566685E-01  0.51100000000E-03 0. -1.
</event>
<event>
 8    1  0.1111182E+005  0.1043930E+01  0.7957747E-01            NaN
         13   -1    0    0    0    0  0.00000000000E+00  0.00000000000E+00  0.74505805969E-08  0.10566000000E+00  0.10566000000E+00 0.  1.
     999900   -1    0    0    0    0 -0.00000000000E+00 -0.00000000000E+00 -0.74505805969E-08  0.93827000000E+00  0.93827000000E+00 0. -1.
     999902    2    1    2    0    0 -0.18721863117E-01 -0.88065183259E-02  0.98360180102E-02  0.10210212642E+01  0.10207642293E+01 0.  0.
     999903    2    3    3    0    0 -0.11173673185E+00  0.43596645821E-01  0.54232802681E-01  0.13345778375E+00  0.22000417837E-01 0.  0.
         14    1    1    2    0    0  0.18721863117E-01  0.88065183259E-02 -0.98360180102E-02  0.22908735755E-01  0.00000000000E+00 0. -1.
     999901    1    3    3    0    0  0.93014868736E-01 -0.52403164147E-01 -0.44396784671E-01  0.88756348049E+00  0.88000000000E+00 0. -1.
        -11    1    4    4    0    0 -0.38618142512E-01  0.24027568161E-01  0.27658612671E-01  0.53234809464E-01  0.51100000000E-03 0.  1.
         11    1    4    4    0    0 -0.73118589341E-01  0.19569077660E-01  0.26574190010E-01  0.80222974286E-01  0.51100000000E-03 0. -1.
</event>
<event>
 8    1  0.1111182E+005  0.1043930E+01  0.7957747E-01            NaN
         13   -1    0    0    0    0  0.00000000000E+00  0.00000000000E+00  0.74505805969E-08  0.10566000000E+00  0.10566000000E+00 0.  1.
     999900   -1    0    0    0    0 -0.00000000000E+00 -0.00000000000E+00 -0.74505805969E-08  0.93827000000E+00  0.93827000000E+00 0. -1.
     999902    2    1    2    0    0  0.13380695592E-01 -0.19240794479E-01 -0.31485170988E-02  0.10202833439E+01  0.10200092830E+01 0.  0.
     999903    2    3    3    0    0 -0.11408088191E+00 -0.46519106011E-02 -0.57377281401E-01  0.12932877254E+00  0.19942193856E-01 0.  0.
         14    1    1    2    0    0 -0.13380695592E-01  0.19240794479E-01  0.31485170988E-02  0.23646656141E-01  0.00000000000E+00 0.  1.
     999901    1    3    3    0    0  0.12746157751E+00 -0.14588883878E-01  0.54228764302E-01  0.89095457132E+00  0.88000000000E+00 0. -1.
        -11    1    4    4    0    0 -0.86447496818E-01 -0.84482330279E-02 -0.50947400390E-01  0.10069975707E+00  0.51100000000E-03 0.  1.
         11    1    4    4    0    0 -0.27633385096E-01  0.37963224268E-02 -0.64298810110E-02  0.28629015467E-01  0.51100000000E-03 0. -1.
</event>
<event>
 8    1  0.1111182E+005  0.1043930E+01  0.7957747E-01            NaN
         13   -1    0    0    0    0  0.00000000000E+00  0.00000000000E+00  0.74505805969E-08  0.10566000000E+00  0.10566000000E+00 0. -1.
     999900   -1    0    0    0    0 -0.00000000000E+00 -0.00000000000E+00 -0.74505805969E-08  0.93827000000E+00  0.93827000000E+00 0.  1.
     999902    2    1    2    0    0  0.18400077556E-01  0.72086615808E-02  0.12971561094E-01  0.10202912806E+01  0.10200174059E+01 0.  0.
     999903    2    3    3    0    0  0.70604171067E-02 -0.56783854936E-01  0.11700170705E+00  0.13178359843E+00  0.20081376759E-01 0.  0.
         14    1    1    2    0    0 -0.18400077556E-01 -0.72086615808E-02 -0.12971561094E-01  0.23638719362E-01  0.00000000000E+00 0.  1.
     999901    1    3    3    0    0  0.11339660450E-01  0.63992516516E-01 -0.10403014595E+00  0.88850768220E+00  0.88000000000E+00 0.  1.
        -11    1    4    4    0    0  0.12245540369E-01 -0.20290753694E-01  0.42639313836E-01  0.48785655164E-01  0.51100000000E-03 0. -1.
         11    1    4    4    0    0 -0.51851232627E-02 -0.36493101242E-01  0.74362393213E-01  0.82997943269E-01  0.51100000000E-03 0.  1.
</event>
<event>
 8    1  0.1111182E+005  0.1043930E+01  0.7957747E-01            NaN
         13   -1    0    0    0    0  0.00000000000E+00  0.00000000000E+00  0.74505805969E-08  0.10566000000E+00  0.10566000000E+00 0.  1.
     999900   -1    0    0    0    0 -0.00000000000E+00 -0.00000000000E+00 -0.74505805969E-08  0.93827000000E+00  0.93827000000E+00 0. -1.
     999902    2    1    2    0    0 -0.57964424606E-02  0.12603231615E-03  0.21973640110E-01  0.10212043429E+01  0.10209514457E+01 0.  0.
     999903    2    3    3    0    0  0.69862960705E-02  0.63176945870E-01  0.11612421929E+00  0.13384694726E+00  0.19749333190E-01 0.  0.
         14    1    1    2    0    0  0.57964424606E-02 -0.12603231615E-03 -0.21973640110E-01  0.22725657065E-01  0.00000000000E+00 0. -1.
     999901    1    3    3    0    0 -0.12782738531E-01 -0.63050913554E-01 -0.94150579182E-01  0.88735739568E+00  0.88000000000E+00 0. -1.
        -11    1    4    4    0    0  0.12761471541E-02  0.33047479143E-01  0.40833182815E-01  0.52548780853E-01  0.51100000000E-03 0.  1.
         11    1    4    4    0    0  0.57101489164E-02  0.30129466727E-01  0.75291036477E-01  0.81298166404E-01  0.51100000000E-03 0. -1.
</event>
<event>
 8    1  0.1111182E+005  0.1043930E+01  0.7957747E-01            NaN
         13   -1    0    0    0    0  0.00000000000E+00  0.00000000000E+00  0.74505805969E-08  0.10566000000E+00  0.10566000000E+00 0. -1.
     999900   -1    0    0    0    0 -0.00000000000E+00 -0.00000000000E+00 -0.74505805969E-08  0.93827000000E+00  0.93827000000E+00 0. -1.
     999902    2    1    2    0    0  0.20890681962E-02 -0.12822972689E-01 -0.19241082313E-01  0.10207133662E+01  0.10204492951E+01 0.  0.
     999903    2    3    3    0    0 -0.58366684335E-01 -0.37314303222E-01  0.10737227942E+00  0.12926192805E+00  0.19514420037E-01 0.  0.
         14    1    1    2    0    0 -0.20890681962E-02  0.12822972689E-01  0.19241082313E-01  0.23216633759E-01  0.00000000000E+00 0. -1.
     999901    1    3    3    0    0  0.60455752532E-01  0.24491330533E-01 -0.12661336174E+00  0.89145143819E+00  0.88000000000E+00 0. -1.
        -11    1    4    4    0    0 -0.23871195942E-01 -0.45723426100E-02  0.39549287227E-01  0.46423566793E-01  0.51100000000E-03 0.  1.
         11    1    4    4    0    0 -0.34495488393E-01 -0.32741960612E-01  0.67822992195E-01  0.82838361255E-01  0.51100000000E-03 0. -1.
</event>
<event>
 8    1  0.1111182E+005  0.1043930E+01  0.7957747E-01            NaN
         13   -1    0    0    0    0  0.00000000000E+00  0.00000000000E+00  0.74505805969E-08  0.10566000000E+00  0.10566000000E+00 0. -1.
     999900   -1    0    0    0    0 -0.00000000000E+00 -0.00000000000E+00 -0.74505805969E-08  0.93827000000E+00  0.93827000000E+00 0. -1.
     999902    2    1    2    0    0 -0.36516673167E-02  0.21361627285E-01 -0.12520666787E-01  0.10189015983E+01  0.10185941518E+01 0.  0.
     999903    2    3    3    0    0  0.98091009237E-01 -0.62141409630E-01  0.47474314155E-01  0.12709235461E+00  0.20377811754E-01 0.  0.
         14    1    1    2    0    0  0.36516673167E-02 -0.21361627285E-01  0.12520666787E-01  0.25028401692E-01  0.00000000000E+00 0.  1.
     999901    1    3    3    0    0 -0.10174267655E+00  0.83503036916E-01 -0.59994980942E-01  0.89180924370E+00  0.88000000000E+00 0. -1.
        -11    1    4    4    0    0  0.22233773347E-01 -0.17887739799E-01  0.20771280599E-01  0.35298996176E-01  0.51100000000E-03 0.  1.
         11    1    4    4    0    0  0.75857235891E-01 -0.44253669831E-01  0.26703033556E-01  0.91793358434E-01  0.51100000000E-03 0. -1.
</event>
<event>
 8    1  0.1111182E+005  0.1043930E+01  0.7957747E-01            NaN
         13   -1    0    0    0    0  0.00000000000E+00  0.00000000000E+00  0.74505805969E-08  0.10566000000E+00  0.10566000000E+00 0. -1.
     999900   -1    0    0    0    0 -0.00000000000E+00 -0.00000000000E+00 -0.74505805969E-08  0.93827000000E+00  0.93827000000E+00 0. -1.
     999902    2    1    2    0    0  0.94213007365E-02 -0.21794542982E-01  0.16612998864E-02  0.10201282579E+01  0.10198505477E+01 0.  0.
     999903    2    3    3    0    0  0.72716629943E-01  0.95531630670E-01 -0.42347046191E-01  0.12900062152E+00  0.20829961687E-01 0.  0.
         14    1    1    2    0    0 -0.94213007365E-02  0.21794542982E-01 -0.16612998864E-02  0.23801742136E-01  0.00000000000E+00 0. -1.
     999901    1    3    3    0    0 -0.63295329206E-01 -0.11732617365E+00  0.44008346078E-01  0.89112763634E+00  0.88000000000E+00 0.  1.
        -11    1    4    4    0    0  0.30130692992E-01  0.42846350711E-01 -0.29263997074E-01  0.60002592237E-01  0.51100000000E-03 0. -1.
         11    1    4    4    0    0  0.42585936951E-01  0.52685279960E-01 -0.13083049117E-01  0.68998029288E-01  0.51100000000E-03 0.  1.
</event>
<event>
 8    1  0.1111182E+005  0.1043930E+01  0.7957747E-01            NaN
         13   -1    0    0    0    0  0.00000000000E+00  0.00000000000E+00  0.74505805969E-08  0.10566000000E+00  0.10566000000E+00 0. -1.
     999900   -1    0    0    0    0 -0.00000000000E+00 -0.00000000000E+00 -0.74505805969E-08  0.93827000000E+00  0.93827000000E+00 0. -1.
     999902    2    1    2    0    0 -0.42240000840E-02 -0.21737860364E-01  0.90806667822E-02  0.10199960229E+01  0.10197151816E+01 0.  0.
     999903    2    3    3    0    0  0.12294965639E+00  0.31101700508E-01 -0.12864096701E-01  0.12901525391E+00  0.19887608645E-01 0.  0.
         14    1    1    2    0    0  0.42240000840E-02  0.21737860364E-01 -0.90806667822E-02  0.23933977086E-01  0.00000000000E+00 0.  1.
     999901    1    3    3    0    0 -0.12717365647E+00 -0.52839560872E-01  0.21944763483E-01  0.89098076901E+00  0.88000000000E+00 0.  1.
        -11    1    4    4    0    0  0.81352664487E-01  0.28429509904E-01 -0.14029391432E-01  0.87313103240E-01  0.51100000000E-03 0.  1.
         11    1    4    4    0    0  0.41596991898E-01  0.26721906040E-02  0.11652947304E-02  0.41702150669E-01  0.51100000000E-03 0. -1.
</event>
<event>
 8    1  0.1111182E+005  0.1043930E+01  0.7957747E-01            NaN
         13   -1    0    0    0    0  0.00000000000E+00  0.00000000000E+00  0.74505805969E-08  0.10566000000E+00  0.10566000000E+00 0. -1.
     999900   -1    0    0    0    0 -0.00000000000E+00 -0.00000000000E+00 -0.74505805969E-08  0.93827000000E+00  0.93827000000E+00 0. -1.
     999902    2    1    2    0    0  0.21445753467E-01  0.60547537168E-02  0.85540615714E-02  0.10200605142E+01  0.10197812021E+01 0.  0.
     999903    2    3    3    0    0  0.20995464797E-01 -0.55507049313E-02  0.12908092683E+00  0.13176911228E+00  0.15152340143E-01 0.  0.
         14    1    1    2    0    0 -0.21445753467E-01 -0.60547537168E-02 -0.85540615714E-02  0.23869485828E-01  0.00000000000E+00 0. -1.
     999901    1    3    3    0    0  0.45028866997E-03  0.11605458648E-01 -0.12052686526E+00  0.88829140189E+00  0.88000000000E+00 0. -1.
        -11    1    4    4    0    0  0.12761157280E-01 -0.48240801525E-02  0.39236226518E-01  0.41543488982E-01  0.51100000000E-03 0. -1.
         11    1    4    4    0    0  0.82343075167E-02 -0.72662477873E-03  0.89844700313E-01  0.90225623296E-01  0.51100000000E-03 0.  1.
</event>
<event>
 8    1  0.1111182E+005  0.1043930E+01  0.7957747E-01            NaN
         13   -1    0    0    0    0  0.00000000000E+00  0.00000000000E+00  0.74505805969E-08  0.10566000000E+00  0.10566000000E+00 0. -1.
     999900   -1    0    0    0    0 -0.00000000000E+00 -0.00000000000E+00 -0.74505805969E-08  0.93827000000E+00  0.93827000000E+00 0. -1.
     999902    2    1    2    0    0 -0.20382796562E-01  0.11719004426E-01  0.31250763664E-02  0.10202116619E+01  0.10199359173E+01 0.  0.
     999903    2    3    3    0    0 -0.11715158904E+00 -0.48354685483E-01  0.32749296942E-01  0.13237685639E+00  0.19709014025E-01 0.  0.
         14    1    1    2    0    0  0.20382796562E-01 -0.11719004426E-01 -0.31250763664E-02  0.23718338111E-01  0.00000000000E+00 0.  1.
     999901    1    3    3    0    0  0.96768792478E-01  0.60073689909E-01 -0.29624220576E-01  0.88783480550E+00  0.88000000000E+00 0.  1.
        -11    1    4    4    0    0 -0.50604536210E-01 -0.14143000016E-01  0.58937295565E-02  0.52875709959E-01  0.51100000000E-03 0.  1.
         11    1    4    4    0    0 -0.66547052830E-01 -0.34211685466E-01  0.26855567386E-01  0.79501146428E-01  0.51100000000E-03 0. -1.
</event>
<event>
 8    1  0.1111182E+005  0.1043930E+01  0.7957747E-01            NaN
         13   -1    0    0    0    0  0.00000000000E+00  0.00000000000E+00  0.74505805969E-08  0.10566000000E+00  0.10566000000E+00 0.  1.
     999900   -1    0    0    0    0 -0.00000000000E+00 -0.00000000000E+00 -0.74505805969E-08  0.93827000000E+00  0.93827000000E+00 0.  1.
     999902    2    1    2    0    0 -0.81311153950E-02  0.13744434621E-01 -0.17220818857E-01  0.10204442357E+01  0.10201739347E+01 0.  0.
     999903    2    3    3    0    0  0.79795084335E-01 -0.36263575278E-01  0.91199193496E-01  0.12803921742E+00  0.19860662798E-01 0.  0.
         14    1    1    2    0    0  0.81311153950E-02 -0.13744434621E-01  0.17220818857E-01  0.23485764257E-01  0.00000000000E+00 0.  1.
     999901    1    3    3    0    0 -0.87926199730E-01  0.50008009899E-01 -0.10842001235E+00  0.89240501833E+00  0.88000000000E+00 0.  1.
        -11    1    4    4    0    0  0.34840761177E-01 -0.22819996167E-01  0.32154994218E-01  0.52619726706E-01  0.51100000000E-03 0. -1.
         11    1    4    4    0    0  0.44954323158E-01 -0.13443579111E-01  0.59044199278E-01  0.75419490712E-01  0.51100000000E-03 0.  1.
</event>
<event>
 8    1  0.1111182E+005  0.1043930E+01  0.7957747E-01            NaN
         13   -1    0    0    0    0  0.00000000000E+00  0.00000000000E+00  0.74505805969E-08  0.10566000000E+00  0.10566000000E+00 0.  1.
     999900   -1    0    0    0    0 -0.00000000000E+00 -0.00000000000E+00 -0.74505805969E-08  0.93827000000E+00  0.93827000000E+00 0.  1.
     999902    2    1    2    0    0  0.91495500692E-02 -0.40650527383E-02 -0.22026720380E-01  0.10197346424E+01  0.10194475590E+01 0.  0.
     999903    2    3    3    0    0 -0.86577270967E-01  0.90948083178E-01 -0.24261080411E-01  0.12945597104E+00  0.20076621545E-01 0.  0.
         14    1    1    2    0    0 -0.91495500692E-02  0.40650527383E-02  0.22026720380E-01  0.24195357632E-01  0.00000000000E+00 0.  1.
     999901    1    3    3    0    0  0.95726821036E-01 -0.95013135917E-01  0.22343600307E-02  0.89027867133E+00  0.88000000000E+00 0. -1.
        -11    1    4    4    0    0 -0.52805081063E-01  0.52230729178E-01 -0.24066309213E-01  0.78076078389E-01  0.51100000000E-03 0.  1.
         11    1    4    4    0    0 -0.33772189903E-01  0.38717354001E-01 -0.19477119771E-03  0.51379892648E-01  0.51100000000E-03 0. -1.
</event>
<event>
 8    1  0.1111182E+005  0.1043930E+01  0.7957747E-01            NaN
         13   -1    0    0    0    0  0.00000000000E+00  0.00000000000E+00  0.74505805969E-08  0.10566000000E+00  0.10566000000E+00 0. -1.
     999900   -1    0    0    0    0 -0.00000000000E+00 -0.00000000000E+00 -0.74505805969E-08  0.93827000000E+00  0.93827000000E+00 0. -1.
     999902    2    1    2    0    0 -0.12751335253E-01  0.18993806942E-01 -0.61977658932E-02  0.10202282373E+01  0.10199528826E+01 0.  0.
     999903    2    3    3    0    0  0.95285080246E-01 -0.49381999035E-01 -0.68225129136E-01  0.12882792784E+00  0.20594620660E-01 0.  0.
         14    1    1    2    0    0  0.12751335253E-01 -0.18993806942E-01  0.61977658932E-02  0.23701762697E-01  0.00000000000E+00 0.  1.
     999901    1    3    3    0    0 -0.10803641550E+00  0.68375805977E-01  0.62027363243E-01  0.89140030946E+00  0.88000000000E+00 0.  1.
        -11    1    4    4    0    0  0.21456766461E-01 -0.17194175205E-01 -0.92931087573E-02  0.29028528714E-01  0.51100000000E-03 0. -1.
         11    1    4    4    0    0  0.73828313785E-01 -0.32187823830E-01 -0.58932020379E-01  0.99799399127E-01  0.51100000000E-03 0.  1.
</event>
<event>
 8    1  0.1111182E+005  0.1043930E+01  0.7957747E-01            NaN
         13   -1    0    0    0    0  0.00000000000E+00  0.00000000000E+00  0.74505805969E-08  0.10566000000E+00  0.10566000000E+00 0.  1.
     999900   -1    0    0    0    0 -0.00000000000E+00 -0.00000000000E+00 -0.74505805969E-08  0.93827000000E+00  0.93827000000E+00 0.  1.
     999902    2    1    2    0    0  0.11232000709E-02 -0.18952906964E-01 -0.14632527985E-01  0.10199594945E+01  0.10196777850E+01 0.  0.
     999903    2    3    3    0    0  0.45725363372E-01  0.84539461950E-01 -0.85183817938E-01  0.12997213055E+00  0.19968535237E-01 0.  0.
         14    1    1    2    0    0 -0.11232000709E-02  0.18952906964E-01  0.14632527985E-01  0.23970505544E-01  0.00000000000E+00 0.  1.
     999901    1    3    3    0    0 -0.44602163301E-01 -0.10349236891E+00  0.70551289953E-01  0.88998736390E+00  0.88000000000E+00 0. -1.
        -11    1    4    4    0    0  0.73276648927E-02  0.21603744955E-01 -0.10812870030E-01  0.25250658371E-01  0.51100000000E-03 0. -1.
         11    1    4    4    0    0  0.38397698479E-01  0.62935716995E-01 -0.74370947908E-01  0.10472147218E+00  0.51100000000E-03 0.  1.
</event>
<event>
 8    1  0.1111182E+005  0.1043930E+01  0.7957747E-01            NaN
         13   -1    0    0    0    0  0.00000000000E+00  0.00000000000E+00  0.74505805969E-08  0.10566000000E+00  0.10566000000E+00 0. -1.
     999900   -1    0    0    0    0 -0.00000000000E+00 -0.00000000000E+00 -0.74505805969E-08  0.93827000000E+00  0.93827000000E+00 0.  1.
     999902    2    1    2    0    0  0.52003856467E-03 -0.19188017796E-01 -0.17442326041E-01  0.10179938244E+01  0.10176633733E+01 0.  0.
     999903    2    3    3    0    0  0.15180855840E-01  0.56230526029E-01 -0.11379489027E+00  0.12940690521E+00  0.20113170375E-01 0.  0.
         14    1    1    2    0    0 -0.52003856467E-03  0.19188017796E-01  0.17442326041E-01  0.25936175600E-01  0.00000000000E+00 0. -1.
     999901    1    3    3    0    0 -0.14660817276E-01 -0.75418543825E-01  0.96352564233E-01  0.88858691919E+00  0.88000000000E+00 0. -1.
        -11    1    4    4    0    0 -0.25503374359E-02  0.16505744378E-01 -0.45085303555E-01  0.48082112434E-01  0.51100000000E-03 0.  1.
         11    1    4    4    0    0  0.17731193276E-01  0.39724781651E-01 -0.68709586720E-01  0.81324792778E-01  0.51100000000E-03 0. -1.
</event>
<event>
 8    1  0.1111182E+005  0.1043930E+01  0.7957747E-01            NaN
         13   -1    0    0    0    0  0.00000000000E+00  0.00000000000E+00  0.74505805969E-08  0.10566000000E+00  0.10566000000E+00 0. -1.
     999900   -1    0    0    0    0 -0.00000000000E+00 -0.00000000000E+00 -0.74505805969E-08  0.93827000000E+00  0.93827000000E+00 0.  1.
     999902    2    1    2    0    0 -0.17969342669E-02 -0.22759301568E-01 -0.61306513688E-02  0.10202910561E+01  0.10200171761E+01 0.  0.
     999903    2    3    3    0    0 -0.10861071027E+00  0.64034127494E-01  0.20492591722E-01  0.12919561841E+00  0.19362480009E-01 0.  0.
         14    1    1    2    0    0  0.17969342669E-02  0.22759301568E-01  0.61306513688E-02  0.23638943860E-01  0.00000000000E+00 0.  1.
     999901    1    3    3    0    0  0.10681377600E+00 -0.86793429062E-01 -0.26623243091E-01  0.89109543773E+00  0.88000000000E+00 0. -1.
        -11    1    4    4    0    0 -0.32236211838E-01  0.22579054730E-01  0.14996641632E-01  0.42120629713E-01  0.51100000000E-03 0.  1.
         11    1    4    4    0    0 -0.76374498428E-01  0.41455072764E-01  0.54959500903E-02  0.87074988696E-01  0.51100000000E-03 0. -1.
</event>
<event>
 8    1  0.1111182E+005  0.1043930E+01  0.7957747E-01            NaN
         13   -1    0    0    0    0  0.00000000000E+00  0.00000000000E+00  0.74505805969E-08  0.10566000000E+00  0.10566000000E+00 0. -1.
     999900   -1    0    0    0    0 -0.00000000000E+00 -0.00000000000E+00 -0.74505805969E-08  0.93827000000E+00  0.93827000000E+00 0. -1.
     999902    2    1    2    0    0 -0.21270286602E-01 -0.52609024903E-02  0.11128774560E-01  0.10193545690E+01  0.10190582836E+01 0.  0.
     999903    2    3    3    0    0  0.66449341770E-01  0.57331070843E-01 -0.89726780402E-01  0.12706295111E+00  0.19792213586E-01 0.  0.
         14    1    1    2    0    0  0.21270286602E-01  0.52609024903E-02 -0.11128774560E-01  0.24575431031E-01  0.00000000000E+00 0. -1.
     999901    1    3    3    0    0 -0.87719628373E-01 -0.62591973334E-01  0.10085555496E+00  0.89229161786E+00  0.88000000000E+00 0.  1.
        -11    1    4    4    0    0  0.22200099505E-01  0.26966304641E-01 -0.46451197163E-01  0.58120571598E-01  0.51100000000E-03 0. -1.
         11    1    4    4    0    0  0.44249242265E-01  0.30364766202E-01 -0.43275583239E-01  0.68942379515E-01  0.51100000000E-03 0.  1.
</event>
<event>
 8    1  0.1111182E+005  0.1043930E+01  0.7957747E-01            NaN
         13   -1    0    0    0    0  0.00000000000E+00  0.00000000000E+00  0.74505805969E-08  0.10566000000E+00  0.10566000000E+00 0.  1.
     999900   -1    0    0    0    0 -0.00000000000E+00 -0.00000000000E+00 -0.74505805969E-08  0.93827000000E+00  0.93827000000E+00 0. -1.
     999902    2    1    2    0    0  0.15378621996E-01 -0.12285881894E-01  0.13513496889E-01  0.10200540810E+01  0.10197746166E+01 0.  0.
     999903    2    3    3    0    0 -0.79942713707E-01 -0.69928642290E-02 -0.97582927058E-01  0.12794613437E+00  0.20200198591E-01 0.  0.
         14    1    1    2    0    0 -0.15378621996E-01  0.12285881894E-01 -0.13513496889E-01  0.23875918968E-01  0.00000000000E+00 0.  1.
     999901    1    3    3    0    0  0.95321335704E-01 -0.52930176647E-02  0.11109642395E+00  0.89210794666E+00  0.88000000000E+00 0.  1.
        -11    1    4    4    0    0 -0.19994544909E-01 -0.56470771184E-02 -0.38570222105E-01  0.43813176789E-01  0.51100000000E-03 0. -1.
         11    1    4    4    0    0 -0.59948168798E-01 -0.13457871106E-02 -0.59012704952E-01  0.84132957585E-01  0.51100000000E-03 0.  1.
</event>
<event>
 8    1  0.1111182E+005  0.1043930E+01  0.7957747E-01            NaN
         13   -1    0    0    0    0  0.00000000000E+00  0.00000000000E+00  0.74505805969E-08  0.10566000000E+00  0.10566000000E+00 0. -1.
     999900   -1    0    0    0    0 -0.00000000000E+00 -0.00000000000E+00 -0.74505805969E-08  0.93827000000E+00  0.93827000000E+00 0.  1.
     999902    2    1    2    0    0  0.24080674978E-01 -0.84677530504E-03  0.33653620768E-03  0.10198320915E+01  0.10195473435E+01 0.  0.
     999903    2    3    3    0    0 -0.10601850271E+00  0.36127311680E-01  0.57803662117E-01  0.12764637673E+00  0.20179905155E-01 0.  0.
         14    1    1    2    0    0 -0.24080674978E-01  0.84677530504E-03 -0.33653620768E-03  0.24097908466E-01  0.00000000000E+00 0.  1.
     999901    1    3    3    0    0  0.13009917769E+00 -0.36974086985E-01 -0.57467125909E-01  0.89218571481E+00  0.88000000000E+00 0.  1.
        -11    1    4    4    0    0 -0.64990439852E-01  0.32340762549E-01  0.36129261539E-01  0.81088019182E-01  0.51100000000E-03 0. -1.
         11    1    4    4    0    0 -0.41028062856E-01  0.37865491305E-02  0.21674400578E-01  0.46558357547E-01  0.51100000000E-03 0.  1.
</event>
<event>
 8    1  0.1111182E+005  0.1043930E+01  0.7957747E-01            NaN
         13   -1    0    0    0    0  0.00000000000E+00  0.00000000000E+00  0.74505805969E-08  0.10566000000E+00  0.10566000000E+00 0. -1.
     999900   -1    0    0    0    0 -0.00000000000E+00 -0.00000000000E+00 -0.74505805969E-08  0.93827000000E+00  0.93827000000E+00 0. -1.
     999902    2    1    2    0    0 -0.21981813422E-01 -0.31721236858E-02  0.78223130124E-02  0.10203832153E+01  0.10201114914E+01 0.  0.
     999903    2    3    3    0    0  0.85347914811E-01  0.91302592324E-01  0.23942879845E-01  0.12869660261E+00  0.19212602664E-01 0.  0.
         14    1    1    2    0    0  0.21981813422E-01  0.31721236858E-02 -0.78223130124E-02  0.23546784724E-01  0.00000000000E+00 0.  1.
     999901    1    3    3    0    0 -0.10732972823E+00 -0.94474716010E-01 -0.16120566832E-01  0.89168661266E+00  0.88000000000E+00 0. -1.
        -11    1    4    4    0    0  0.57486956428E-01  0.47702080355E-01  0.13746008447E-01  0.75956912120E-01  0.51100000000E-03 0. -1.
         11    1    4    4    0    0  0.27860958383E-01  0.43600511969E-01  0.10196871398E-01  0.52739690493E-01  0.51100000000E-03 0.  1.
</event>
<event>
 8    1  0.1111182E+005  0.1043930E+01  0.7957747E-01            NaN
         13   -1    0    0    0    0  0.00000000000E+00  0.00000000000E+00  0.74505805969E-08  0.10566000000E+00  0.10566000000E+00 0.  1.
     999900   -1    0    0    0    0 -0.00000000000E+00 -0.00000000000E+00 -0.74505805969E-08  0.93827000000E+00  0.93827000000E+00 0. -1.
     999902    2    1    2    0    0  0.19980434297E-01 -0.98194024048E-02  0.33630794309E-02  0.10214144782E+01  0.10211662879E+01 0.  0.
     999903    2    3    3    0    0 -0.31890437536E-01 -0.45143099610E-01  0.11784052113E+00  0.13178341109E+00  0.20629579965E-01 0.  0.
         14    1    1    2    0    0 -0.19980434297E-01  0.98194024048E-02 -0.33630794309E-02  0.22515521792E-01  0.00000000000E+00 0.  1.
     999901    1    3    3    0    0  0.51870871833E-01  0.35323697205E-01 -0.11447744170E+00  0.88963106712E+00  0.88000000000E+00 0. -1.
        -11    1    4    4    0    0  0.24781448073E-02 -0.65703403263E-02  0.18835101517E-01  0.20108026851E-01  0.51100000000E-03 0.  1.
         11    1    4    4    0    0 -0.34368582343E-01 -0.38572759284E-01  0.99005419611E-01  0.11167538424E+00  0.51100000000E-03 0. -1.
</event>
<event>
 8    1  0.1111182E+005  0.1043930E+01  0.7957747E-01            NaN
         13   -1    0    0    0    0  0.00000000000E+00  0.00000000000E+00  0.74505805969E-08  0.10566000000E+00  0.10566000000E+00 0.  1.
     999900   -1    0    0    0    0 -0.00000000000E+00 -0.00000000000E+00 -0.74505805969E-08  0.93827000000E+00  0.93827000000E+00 0.  1.
     999902    2    1    2    0    0 -0.46900073144E-02  0.21344936093E-01  0.10324151418E-01  0.10197599655E+01  0.10194734899E+01 0.  0.
     999903    2    3    3    0    0  0.62579223589E-01  0.72485174363E-01  0.88972220868E-01  0.13222067497E+00  0.19899524524E-01 0.  0.
         14    1    1    2    0    0  0.46900073144E-02 -0.21344936093E-01 -0.10324151418E-01  0.24170034504E-01  0.00000000000E+00 0. -1.
     999901    1    3    3    0    0 -0.67269230904E-01 -0.51140238269E-01 -0.78648069450E-01  0.88753929052E+00  0.88000000000E+00 0.  1.
        -11    1    4    4    0    0  0.16862280680E-01  0.10843498187E-01  0.26674679730E-01  0.33372408099E-01  0.51100000000E-03 0. -1.
         11    1    4    4    0    0  0.45716942909E-01  0.61641676176E-01  0.62297541138E-01  0.98848266872E-01  0.51100000000E-03 0.  1.
</event>
<event>
 8    1  0.1111182E+005  0.1043930E+01  0.7957747E-01            NaN
         13   -1    0    0    0    0  0.00000000000E+00  0.00000000000E+00  0.74505805969E-08  0.10566000000E+00  0.10566000000E+00 0.  1.
     999900   -1    0    0    0    0 -0.00000000000E+00 -0.00000000000E+00 -0.74505805969E-08  0.93827000000E+00  0.93827000000E+00 0. -1.
     999902    2    1    2    0    0 -0.73026018084E-02 -0.51988918611E-02  0.21500863648E-01  0.10206352880E+01  0.10203694172E+01 0.  0.
     999903    2    3    3    0    0  0.11340763564E+00  0.41117703397E-01  0.46530494554E-01  0.13083605736E+00  0.20025724127E-01 0.  0.
         14    1    1    2    0    0  0.73026018084E-02  0.51988918611E-02 -0.21500863648E-01  0.23294712005E-01  0.00000000000E+00 0. -1.
     999901    1    3    3    0    0 -0.12071023745E+00 -0.46316595258E-01 -0.25029630906E-01  0.88979923064E+00  0.88000000000E+00 0. -1.
        -11    1    4    4    0    0  0.75773947357E-01  0.26883647487E-01  0.40890940613E-01  0.90203945288E-01  0.51100000000E-03 0. -1.
         11    1    4    4    0    0  0.37633688284E-01  0.14234055911E-01  0.56395539412E-02  0.40632112069E-01  0.51100000000E-03 0.  1.
</event>
<event>
 8    1  0.1111182E+005  0.1043930E+01  0.7957747E-01            NaN
         13   -1    0    0    0    0  0.00000000000E+00  0.00000000000E+00  0.74505805969E-08  0.10566000000E+00  0.10566000000E+00 0. -1.
     999900   -1    0    0    0    0 -0.00000000000E+00 -0.00000000000E+00 -0.74505805969E-08  0.93827000000E+00  0.93827000000E+00 0. -1.
     999902    2    1    2    0    0 -0.17868083924E-01  0.21084062597E-01  0.25217402203E-01  0.10065171213E+01  0.10058215508E+01 0.  0.
     999903    2    3    3    0    0  0.90809247122E-02  0.11446909288E+00 -0.26890522242E-01  0.11963367420E+00  0.20086796599E-01 0.  0.
         14    1    1    2    0    0  0.17868083924E-01 -0.21084062597E-01 -0.25217402203E-01  0.37412878700E-01  0.00000000000E+00 0.  1.
     999901    1    3    3    0    0 -0.26949008636E-01 -0.93385030285E-01  0.52107924445E-01  0.88688344710E+00  0.88000000000E+00 0.  1.
        -11    1    4    4    0    0  0.45410155474E-02  0.56216871630E-01 -0.29228533367E-02  0.56477975094E-01  0.51100000000E-03 0. -1.
         11    1    4    4    0    0  0.45399091648E-02  0.58252221252E-01 -0.23967668905E-01  0.63155699108E-01  0.51100000000E-03 0.  1.
</event>
<event>
 8    1  0.1111182E+005  0.1043930E+01  0.7957747E-01            NaN
         13   -1    0    0    0    0  0.00000000000E+00  0.00000000000E+00  0.74505805969E-08  0.10566000000E+00  0.10566000000E+00 0.  1.
     999900   -1    0    0    0    0 -0.00000000000E+00 -0.00000000000E+00 -0.74505805969E-08  0.93827000000E+00  0.93827000000E+00 0. -1.
     999902    2    1    2    0    0 -0.88992314853E-02  0.25601525581E-02  0.22346953474E-01  0.10197403941E+01  0.10194534489E+01 0.  0.
     999903    2    3    3    0    0  0.30945465131E-01  0.12516500014E+00  0.16340415597E-02  0.13010643952E+00  0.17352706998E-01 0.  0.
         14    1    1    2    0    0  0.88992314853E-02 -0.25601525581E-02 -0.22346953474E-01  0.24189605861E-01  0.00000000000E+00 0. -1.
     999901    1    3    3    0    0 -0.39844696616E-01 -0.12260484758E+00  0.20712911914E-01  0.88963395462E+00  0.88000000000E+00 0.  1.
        -11    1    4    4    0    0  0.14027220980E-01  0.86969586354E-01  0.46687220178E-02  0.88218648625E-01  0.51100000000E-03 0.  1.
         11    1    4    4    0    0  0.16918244150E-01  0.38195413784E-01 -0.30346804581E-02  0.41887790891E-01  0.51100000000E-03 0. -1.
</event>
<event>
 8    1  0.1111182E+005  0.1043930E+01  0.7957747E-01            NaN
         13   -1    0    0    0    0  0.00000000000E+00  0.00000000000E+00  0.74505805969E-08  0.10566000000E+00  0.10566000000E+00 0. -1.
     999900   -1    0    0    0    0 -0.00000000000E+00 -0.00000000000E+00 -0.74505805969E-08  0.93827000000E+00  0.93827000000E+00 0. -1.
     999902    2    1    2    0    0 -0.14981077680E-01 -0.48106075517E-02 -0.17612603337E-01  0.10203126668E+01  0.10200392931E+01 0.  0.
     999903    2    3    3    0    0 -0.13220992508E-01  0.12459422955E+00  0.27233345178E-01  0.12971743385E+00  0.19658099521E-01 0.  0.
         14    1    1    2    0    0  0.14981077680E-01  0.48106075517E-02  0.17612603337E-01  0.23617333248E-01  0.00000000000E+00 0. -1.
     999901    1    3    3    0    0 -0.17600851722E-02 -0.12940483710E+00 -0.44845948514E-01  0.89059523290E+00  0.88000000000E+00 0.  1.
        -11    1    4    4    0    0 -0.16078406243E-01  0.77365010982E-01  0.22513181942E-01  0.82164253503E-01  0.51100000000E-03 0. -1.
         11    1    4    4    0    0  0.28574137355E-02  0.47229218563E-01  0.47201632359E-02  0.47553180349E-01  0.51100000000E-03 0.  1.
</event>
<event>
 8    1  0.1111182E+005  0.1043930E+01  0.7957747E-01            NaN
         13   -1    0    0    0    0  0.00000000000E+00  0.00000000000E+00  0.74505805969E-08  0.10566000000E+00  0.10566000000E+00 0.  1.
     999900   -1    0    0    0    0 -0.00000000000E+00 -0.00000000000E+00 -0.74505805969E-08  0.93827000000E+00  0.93827000000E+00 0. -1.
     999902    2    1    2    0    0 -0.10932766203E-01 -0.14249489841E-01 -0.15652489903E-01  0.10201061930E+01  0.10198279616E+01 0.  0.
     999903    2    3    3    0    0  0.20766521934E-01  0.74136669626E-01  0.99644679824E-01  0.12763188227E+00  0.20816842640E-01 0.  0.
         14    1    1    2    0    0  0.10932766203E-01  0.14249489841E-01  0.15652489903E-01  0.23823806953E-01  0.00000000000E+00 0. -1.
     999901    1    3    3    0    0 -0.31699288138E-01 -0.88386159467E-01 -0.11529716973E+00  0.89247431078E+00  0.88000000000E+00 0. -1.
        -11    1    4    4    0    0  0.14401280934E-01  0.34887868218E-01  0.63620958342E-01  0.73975994097E-01  0.51100000000E-03 0. -1.
         11    1    4    4    0    0  0.63652410003E-02  0.39248801407E-01  0.36023721482E-01  0.53655888170E-01  0.51100000000E-03 0.  1.
</event>
<event>
 8    1  0.1111182E+005  0.1043930E+01  0.7957747E-01            NaN
         13   -1    0    0    0    0  0.00000000000E+00  0.00000000000E+00  0.74505805969E-08  0.10566000000E+00  0.10566000000E+00 0.  1.
     999900   -1    0    0    0    0 -0.00000000000E+00 -0.00000000000E+00 -0.74505805969E-08  0.93827000000E+00  0.93827000000E+00 0. -1.
     999902    2    1    2    0    0 -0.89016225510E-02  0.12469729914E-01  0.18912251201E-01  0.10195906020E+01  0.10193000488E+01 0.  0.
     999903    2    3    3    0    0 -0.99194030235E-01 -0.49399796580E-01  0.68742409353E-01  0.13141066426E+00  0.16231090562E-01 0.  0.
         14    1    1    2    0    0  0.89016225510E-02 -0.12469729914E-01 -0.18912251201E-01  0.24339397972E-01  0.00000000000E+00 0. -1.
     999901    1    3    3    0    0  0.90292407684E-01  0.61869526495E-01 -0.49830158152E-01  0.88817993777E+00  0.88000000000E+00 0. -1.
        -11    1    4    4    0    0 -0.31643631523E-01 -0.89988572791E-02  0.25311640184E-01  0.41511915134E-01  0.51100000000E-03 0.  1.
         11    1    4    4    0    0 -0.67550398713E-01 -0.40400939301E-01  0.43430769169E-01  0.89898749125E-01  0.51100000000E-03 0. -1.
</event>
<event>
 8    1  0.1111182E+005  0.1043930E+01  0.7957747E-01            NaN
         13   -1    0    0    0    0  0.00000000000E+00  0.00000000000E+00  0.74505805969E-08  0.10566000000E+00  0.10566000000E+00 0. -1.
     999900   -1    0    0    0    0 -0.00000000000E+00 -0.00000000000E+00 -0.74505805969E-08  0.93827000000E+00  0.93827000000E+00 0.  1.
     999902    2    1    2    0    0 -0.21964743007E-01 -0.43926742288E-02 -0.73027992117E-02  0.10203699406E+01  0.10200979067E+01 0.  0.
     999903    2    3    3    0    0 -0.93115131490E-01  0.74597280267E-01 -0.54655510455E-01  0.13270780333E+00  0.19721924504E-01 0.  0.
         14    1    1    2    0    0  0.21964743007E-01  0.43926742288E-02  0.73027992117E-02  0.23560059392E-01  0.00000000000E+00 0. -1.
     999901    1    3    3    0    0  0.71150388483E-01 -0.78989954496E-01  0.47352711244E-01  0.88766213728E+00  0.88000000000E+00 0. -1.
        -11    1    4    4    0    0 -0.70391178153E-01  0.54928250147E-01 -0.31203896118E-01  0.94583163829E-01  0.51100000000E-03 0.  1.
         11    1    4    4    0    0 -0.22723953337E-01  0.19669030120E-01 -0.23451614337E-01  0.38124639502E-01  0.51100000000E-03 0. -1.
</event>
<event>
 8    1  0.1111182E+005  0.1043930E+01  0.7957747E-01            NaN
         13   -1    0    0    0    0  0.00000000000E+00  0.00000000000E+00  0.74505805969E-08  0.10566000000E+00  0.10566000000E+00 0.  1.
     999900   -1    0    0    0    0 -0.00000000000E+00 -0.00000000000E+00 -0.74505805969E-08  0.93827000000E+00  0.93827000000E+00 0. -1.
     999902    2    1    2    0    0 -0.16379451745E-01  0.25258187841E-02  0.17319340711E-01  0.10199586470E+01  0.10196769174E+01 0.  0.
     999903    2    3    3    0    0  0.77114433687E-01  0.41258468235E-01 -0.90564412286E-01  0.12761329410E+00  0.20840896710E-01 0.  0.
         14    1    1    2    0    0  0.16379451745E-01 -0.25258187841E-02 -0.17319340711E-01  0.23971352959E-01  0.00000000000E+00 0.  1.
     999901    1    3    3    0    0 -0.93493885432E-01 -0.38732649451E-01  0.10788375300E+00  0.89234535294E+00  0.88000000000E+00 0.  1.
        -11    1    4    4    0    0  0.16894490414E-01  0.18926502043E-01 -0.21064305281E-01  0.32978816897E-01  0.51100000000E-03 0. -1.
         11    1    4    4    0    0  0.60219943272E-01  0.22331966192E-01 -0.69500107005E-01  0.94634477208E-01  0.51100000000E-03 0.  1.
</event>
<event>
 8    1  0.1111182E+005  0.1043930E+01  0.7957747E-01            NaN
         13   -1    0    0    0    0  0.00000000000E+00  0.00000000000E+00  0.74505805969E-08  0.10566000000E+00  0.10566000000E+00 0.  1.
     999900   -1    0    0    0    0 -0.00000000000E+00 -0.00000000000E+00 -0.74505805969E-08  0.93827000000E+00  0.93827000000E+00 0. -1.
     999902    2    1    2    0    0  0.21078983386E-01 -0.10468292985E-01 -0.26245519448E-02  0.10202488478E+01  0.10199739773E+01 0.  0.
     999903    2    3    3    0    0  0.35611708579E-01 -0.18917100794E-01  0.12383186771E+00  0.13105043991E+00  0.14623127185E-01 0.  0.
         14    1    1    2    0    0 -0.21078983386E-01  0.10468292985E-01  0.26245519448E-02  0.23681152242E-01  0.00000000000E+00 0.  1.
     999901    1    3    3    0    0 -0.14532725193E-01  0.84488078083E-02 -0.12645641965E+00  0.88919840785E+00  0.88000000000E+00 0. -1.
        -11    1    4    4    0    0  0.19426090071E-01 -0.22625426294E-02  0.52175004323E-01  0.55722385733E-01  0.51100000000E-03 0. -1.
         11    1    4    4    0    0  0.16185618508E-01 -0.16654558164E-01  0.71656863387E-01  0.75328054173E-01  0.51100000000E-03 0.  1.
</event>
<event>
 8    1  0.1111182E+005  0.1043930E+01  0.7957747E-01            NaN
         13   -1    0    0    0    0  0.00000000000E+00  0.00000000000E+00  0.74505805969E-08  0.10566000000E+00  0.10566000000E+00 0. -1.
     999900   -1    0    0    0    0 -0.00000000000E+00 -0.00000000000E+00 -0.74505805969E-08  0.93827000000E+00  0.93827000000E+00 0.  1.
     999902    2    1    2    0    0  0.91862968068E-02  0.16485741905E-01  0.14289017180E-01  0.10202584190E+01  0.10199837733E+01 0.  0.
     999903    2    3    3    0    0  0.12222458279E+00  0.35160845383E-01 -0.27468980536E-01  0.13184964824E+00  0.21322550536E-01 0.  0.
         14    1    1    2    0    0 -0.91862968068E-02 -0.16485741905E-01 -0.14289017180E-01  0.23671581002E-01  0.00000000000E+00 0. -1.
     999901    1    3    3    0    0 -0.11303828599E+00 -0.18675103478E-01  0.41757997716E-01  0.88840877076E+00  0.88000000000E+00 0. -1.
        -11    1    4    4    0    0  0.10198016315E+00  0.26372895047E-01 -0.14727249294E-01  0.10636087749E+00  0.51100000000E-03 0.  1.
         11    1    4    4    0    0  0.20244419649E-01  0.87879503365E-02 -0.12741731241E-01  0.25488770745E-01  0.51100000000E-03 0. -1.
</event>
<event>
 8    1  0.1111182E+005  0.1043930E+01  0.7957747E-01            NaN
         13   -1    0    0    0    0  0.00000000000E+00  0.00000000000E+00  0.74505805969E-08  0.10566000000E+00  0.10566000000E+00 0.  1.
     999900   -1    0    0    0    0 -0.00000000000E+00 -0.00000000000E+00 -0.74505805969E-08  0.93827000000E+00  0.93827000000E+00 0.  1.
     999902    2    1    2    0    0 -0.63621778532E-02 -0.21667636256E-01  0.81799037760E-02  0.10199117862E+01  0.10196289409E+01 0.  0.
     999903    2    3    3    0    0 -0.12678410549E+00  0.15663970550E-01  0.23555490360E-01  0.13079340366E+00  0.15247423904E-01 0.  0.
         14    1    1    2    0    0  0.63621778532E-02  0.21667636256E-01 -0.81799037760E-02  0.24018213792E-01  0.00000000000E+00 0.  1.
     999901    1    3    3    0    0  0.12042192764E+00 -0.37331606806E-01 -0.15375586584E-01  0.88911838255E+00  0.88000000000E+00 0. -1.
        -11    1    4    4    0    0 -0.71260785646E-01  0.13406921991E-01  0.72237370089E-02  0.72871727202E-01  0.51100000000E-03 0. -1.
         11    1    4    4    0    0 -0.55523319847E-01  0.22570485589E-02  0.16331753351E-01  0.57921676457E-01  0.51100000000E-03 0.  1.
</event>
<event>
 8    1  0.1111182E+005  0.1043930E+01  0.7957747E-01            NaN
         13   -1    0    0    0    0  0.00000000000E+00  0.00000000000E+00  0.74505805969E-08  0.10566000000E+00  0.10566000000E+00 0. -1.
     999900   -1    0    0    0    0 -0.00000000000E+00 -0.00000000000E+00 -0.74505805969E-08  0.93827000000E+00  0.93827000000E+00 0. -1.
     999902    2    1    2    0    0  0.19048452556E-01  0.42346208647E-02 -0.14465173561E-01  0.10196397385E+01  0.10193503713E+01 0.  0.
     999903    2    3    3    0    0  0.10892507143E+00  0.21501964777E-01 -0.70731582572E-01  0.13310610879E+00  0.19679272055E-01 0.  0.
         14    1    1    2    0    0 -0.19048452556E-01 -0.42346208647E-02  0.14465173561E-01  0.24290261521E-01  0.00000000000E+00 0. -1.
     999901    1    3    3    0    0 -0.89876618874E-01 -0.17267343913E-01  0.56266409012E-01  0.88653362969E+00  0.88000000000E+00 0.  1.
        -11    1    4    4    0    0  0.44195222506E-01  0.17648275119E-01 -0.25019690637E-01  0.53767326022E-01  0.51100000000E-03 0.  1.
         11    1    4    4    0    0  0.64729848924E-01  0.38536896589E-02 -0.45711891935E-01  0.79338782768E-01  0.51100000000E-03 0. -1.
</event>
<event>
 8    1  0.1111182E+005  0.1043930E+01  0.7957747E-01            NaN
         13   -1    0    0    0    0  0.00000000000E+00  0.00000000000E+00  0.74505805969E-08  0.10566000000E+00  0.10566000000E+00 0.  1.
     999900   -1    0    0    0    0 -0.00000000000E+00 -0.00000000000E+00 -0.74505805969E-08  0.93827000000E+00  0.93827000000E+00 0. -1.
     999902    2    1    2    0    0 -0.81831112158E-02 -0.14278620988E-01  0.16492579042E-01  0.10206309123E+01  0.10203649404E+01 0.  0.
     999903    2    3    3    0    0 -0.41441922647E-01  0.10501061561E+00  0.62859198028E-01  0.13075118225E+00  0.19998263450E-01 0.  0.
         14    1    1    2    0    0  0.81831112158E-02  0.14278620988E-01 -0.16492579042E-01  0.23299087749E-01  0.00000000000E+00 0. -1.
     999901    1    3    3    0    0  0.33258811431E-01 -0.11928923660E+00 -0.46366618986E-01  0.88987973000E+00  0.88000000000E+00 0.  1.
        -11    1    4    4    0    0 -0.22956855183E-02  0.28218235201E-01  0.12816207300E-01  0.31081429511E-01  0.51100000000E-03 0. -1.
         11    1    4    4    0    0 -0.39146237129E-01  0.76792380406E-01  0.50042990728E-01  0.99669752742E-01  0.51100000000E-03 0.  1.
</event>
<event>
 8    1  0.1111182E+005  0.1043930E+01  0.7957747E-01            NaN
         13   -1    0    0    0    0  0.00000000000E+00  0.00000000000E+00  0.74505805969E-08  0.10566000000E+00  0.10566000000E+00 0.  1.
     999900   -1    0    0    0    0 -0.00000000000E+00 -0.00000000000E+00 -0.74505805969E-08  0.93827000000E+00  0.93827000000E+00 0.  1.
     999902    2    1    2    0    0 -0.98704716734E-02 -0.22787738625E-01  0.48200209832E-02  0.10186329677E+01  0.10183188022E+01 0.  0.
     999903    2    3    3    0    0 -0.53143312873E-01  0.10212493152E+00 -0.49996685448E-01  0.12707220964E+00  0.19848540661E-01 0.  0.
         14    1    1    2    0    0  0.98704716734E-02  0.22787738625E-01 -0.48200209832E-02  0.25297032335E-01  0.00000000000E+00 0. -1.
     999901    1    3    3    0    0  0.43272841199E-01 -0.12491267014E+00  0.54816706431E-01  0.89156075803E+00  0.88000000000E+00 0.  1.
        -11    1    4    4    0    0 -0.14119433424E-01  0.28013741763E-01 -0.43285727100E-02  0.31672161128E-01  0.51100000000E-03 0. -1.
         11    1    4    4    0    0 -0.39023879449E-01  0.74111189753E-01 -0.45668112738E-01  0.95400048511E-01  0.51100000000E-03 0.  1.
</event>
<event>
 8    1  0.1111182E+005  0.1043930E+01  0.7957747E-01            NaN
         13   -1    0    0    0    0  0.00000000000E+00  0.00000000000E+00  0.74505805969E-08  0.10566000000E+00  0.10566000000E+00 0. -1.
     999900   -1    0    0    0    0 -0.00000000000E+00 -0.00000000000E+00 -0.74505805969E-08  0.93827000000E+00  0.93827000000E+00 0.  1.
     999902    2    1    2    0    0  0.12986286304E-02 -0.38407345830E-02  0.19423096357E-01  0.10240882675E+01  0.10238960324E+01 0.  0.
     999903    2    3    3    0    0  0.36404229286E-01 -0.48473245432E-01  0.12066781234E+00  0.13646506094E+00  0.19674056256E-01 0.  0.
         14    1    1    2    0    0 -0.12986286304E-02  0.38407345830E-02 -0.19423096357E-01  0.19841732549E-01  0.00000000000E+00 0.  1.
     999901    1    3    3    0    0 -0.35105600656E-01  0.44632510849E-01 -0.10124471598E+00  0.88762320651E+00  0.88000000000E+00 0.  1.
        -11    1    4    4    0    0  0.31122179036E-02 -0.55234500839E-02  0.30748297817E-01  0.31399257010E-01  0.51100000000E-03 0. -1.
         11    1    4    4    0    0  0.33292011382E-01 -0.42949795348E-01  0.89919514524E-01  0.10506580393E+00  0.51100000000E-03 0.  1.
</event>
<event>
 8    1  0.1111182E+005  0.1043930E+01  0.7957747E-01            NaN
         13   -1    0    0    0    0  0.00000000000E+00  0.00000000000E+00  0.74505805969E-08  0.10566000000E+00  0.10566000000E+00 0. -1.
     999900   -1    0    0    0    0 -0.00000000000E+00 -0.00000000000E+00 -0.74505805969E-08  0.93827000000E+00  0.93827000000E+00 0.  1.
     999902    2    1    2    0    0 -0.14125984326E-01 -0.16023498424E-01 -0.62587422731E-02  0.10216708942E+01  0.10214283863E+01 0.  0.
     999903    2    3    3    0    0  0.33560966648E-02  0.68071251948E-01  0.10891921334E+00  0.13001876943E+00  0.19912976751E-01 0.  0.
         14    1    1    2    0    0  0.14125984326E-01  0.16023498424E-01  0.62587422731E-02  0.22259105772E-01  0.00000000000E+00 0.  1.
     999901    1    3    3    0    0 -0.17482080991E-01 -0.84094750372E-01 -0.11517795561E+00  0.89165212480E+00  0.88000000000E+00 0.  1.
        -11    1    4    4    0    0 -0.14213302815E-02  0.56236661318E-01  0.74851788765E-01  0.93635643098E-01  0.51100000000E-03 0. -1.
         11    1    4    4    0    0  0.47774269464E-02  0.11834590630E-01  0.34067424575E-01  0.36383126333E-01  0.51100000000E-03 0.  1.
</event>
<event>
 8    1  0.1159670E+005  0.1043930E+01  0.7957747E-01            NaN
         13   -1    0    0    0    0  0.00000000000E+00  0.00000000000E+00  0.74505805969E-08  0.10566000000E+00  0.10566000000E+00 0.  1.
     999900   -1    0    0    0    0 -0.00000000000E+00 -0.00000000000E+00 -0.74505805969E-08  0.93827000000E+00  0.93827000000E+00 0. -1.
     999902    2    1    2    0    0  0.12242401939E-01  0.13429625080E-01 -0.13758195256E-01  0.10211370368E+01  0.10208826224E+01 0.  0.
     999903    2    3    3    0    0 -0.38200114537E-01  0.24055047488E-01  0.11995608174E+00  0.12954472248E+00  0.18827626428E-01 0.  0.
         14    1    1    2    0    0 -0.12242401939E-01 -0.13429625080E-01  0.13758195256E-01  0.22792963207E-01  0.00000000000E+00 0.  1.
     999901    1    3    3    0    0  0.50442516476E-01 -0.10625422408E-01 -0.13371427699E+00  0.89159231431E+00  0.88000000000E+00 0. -1.
        -11    1    4    4    0    0 -0.27890124096E-01  0.87695998518E-02  0.58826215309E-01  0.65692843083E-01  0.51100000000E-03 0.  1.
         11    1    4    4    0    0 -0.10309990440E-01  0.15285447637E-01  0.61129866427E-01  0.63851879398E-01  0.51100000000E-03 0. -1.
</event>
<event>
 8    1  0.1111182E+005  0.1043930E+01  0.7957747E-01            NaN
         13   -1    0    0    0    0  0.00000000000E+00  0.00000000000E+00  0.74505805969E-08  0.10566000000E+00  0.10566000000E+00 0. -1.
     999900   -1    0    0    0    0 -0.00000000000E+00 -0.00000000000E+00 -0.74505805969E-08  0.93827000000E+00  0.93827000000E+00 0. -1.
     999902    2    1    2    0    0 -0.22094322541E-01 -0.15743785119E-02  0.13518843233E-02  0.10217384397E+01  0.10214974175E+01 0.  0.
     999903    2    3    3    0    0 -0.39435472122E-01  0.15338786665E-01  0.12429809172E+00  0.13286131630E+00  0.20289872515E-01 0.  0.
         14    1    1    2    0    0  0.22094322541E-01  0.15743785119E-02 -0.13518843233E-02  0.22191560275E-01  0.00000000000E+00 0.  1.
     999901    1    3    3    0    0  0.17341149582E-01 -0.16913165177E-01 -0.12294620740E+00  0.88887712342E+00  0.88000000000E+00 0. -1.
        -11    1    4    4    0    0 -0.34364178985E-01  0.16259819003E-01  0.12072113790E+00  0.12656671272E+00  0.51100000000E-03 0. -1.
         11    1    4    4    0    0 -0.50712931378E-02 -0.92103233813E-03  0.35769538184E-02  0.62946035838E-02  0.51100000000E-03 0.  1.
</event>
<event>
 8    1  0.1111182E+005  0.1043930E+01  0.7957747E-01            NaN
         13   -1    0    0    0    0  0.00000000000E+00  0.00000000000E+00  0.74505805969E-08  0.10566000000E+00  0.10566000000E+00 0.  1.
     999900   -1    0    0    0    0 -0.00000000000E+00 -0.00000000000E+00 -0.74505805969E-08  0.93827000000E+00  0.93827000000E+00 0.  1.
     999902    2    1    2    0    0 -0.29868909562E-04  0.18548452582E-01  0.15813845226E-01  0.10195553475E+01  0.10192639417E+01 0.  0.
     999903    2    3    3    0    0  0.71556403831E-01 -0.86227848947E-01 -0.57334569410E-01  0.12744921120E+00  0.20012189329E-01 0.  0.
         14    1    1    2    0    0  0.29868909562E-04 -0.18548452582E-01 -0.15813845226E-01  0.24374652534E-01  0.00000000000E+00 0. -1.
     999901    1    3    3    0    0 -0.71586272741E-01  0.10477630153E+00  0.73148414636E-01  0.89210613627E+00  0.88000000000E+00 0.  1.
        -11    1    4    4    0    0  0.47788388730E-01 -0.57674619213E-01 -0.27472542442E-01  0.79781536134E-01  0.51100000000E-03 0.  1.
         11    1    4    4    0    0  0.23768015102E-01 -0.28553229733E-01 -0.29862026968E-01  0.47667675061E-01  0.51100000000E-03 0. -1.
</event>
<event>
 8    1  0.1111182E+005  0.1043930E+01  0.7957747E-01            NaN
         13   -1    0    0    0    0  0.00000000000E+00  0.00000000000E+00  0.74505805969E-08  0.10566000000E+00  0.10566000000E+00 0.  1.
     999900   -1    0    0    0    0 -0.00000000000E+00 -0.00000000000E+00 -0.74505805969E-08  0.93827000000E+00  0.93827000000E+00 0.  1.
     999902    2    1    2    0    0 -0.19943267628E-01  0.11942670601E-01  0.38037077228E-02  0.10203751810E+01  0.10201032695E+01 0.  0.
     999903    2    3    3    0    0 -0.72193075882E-01 -0.10526936614E+00  0.21816282512E-01  0.13088478935E+00  0.19010477348E-01 0.  0.
         14    1    1    2    0    0  0.19943267628E-01 -0.11942670601E-01 -0.38037077228E-02  0.23554818981E-01  0.00000000000E+00 0.  1.
     999901    1    3    3    0    0  0.52249808253E-01  0.11721203674E+00 -0.18012574789E-01  0.88949039167E+00  0.88000000000E+00 0.  1.
        -11    1    4    4    0    0 -0.40112559735E-01 -0.44301251055E-01  0.50450230333E-02  0.59977759811E-01  0.51100000000E-03 0. -1.
         11    1    4    4    0    0 -0.32080516147E-01 -0.60968115081E-01  0.16771259479E-01  0.70907029541E-01  0.51100000000E-03 0.  1.
</event>
<event>
 8    1  0.1111182E+005  0.1043930E+01  0.7957747E-01            NaN
         13   -1    0    0    0    0  0.00000000000E+00  0.00000000000E+00  0.74505805969E-08  0.10566000000E+00  0.10566000000E+00 0.  1.
     999900   -1    0    0    0    0 -0.00000000000E+00 -0.00000000000E+00 -0.74505805969E-08  0.93827000000E+00  0.93827000000E+00 0.  1.
     999902    2    1    2    0    0 -0.10716690399E-01 -0.10083747012E-01  0.19195726562E-01  0.10197431167E+01  0.10194562368E+01 0.  0.
     999903    2    3    3    0    0  0.31983047341E-02 -0.64027526619E-01  0.11535730974E+00  0.13275348397E+00  0.14367507645E-01 0.  0.
         14    1    1    2    0    0  0.10716690399E-01  0.10083747012E-01 -0.19195726562E-01  0.24186883328E-01  0.00000000000E+00 0. -1.
     999901    1    3    3    0    0 -0.13914995133E-01  0.53943779607E-01 -0.96161583181E-01  0.88698963271E+00  0.88000000000E+00 0.  1.
        -11    1    4    4    0    0 -0.16038240409E-02 -0.50042995556E-01  0.79376797505E-01  0.93849937447E-01  0.51100000000E-03 0. -1.
         11    1    4    4    0    0  0.48021287749E-02 -0.13984531063E-01  0.35980512238E-01  0.38903546518E-01  0.51100000000E-03 0.  1.
</event>
<event>
 8    1  0.1111182E+005  0.1043930E+01  0.7957747E-01            NaN
         13   -1    0    0    0    0  0.00000000000E+00  0.00000000000E+00  0.74505805969E-08  0.10566000000E+00  0.10566000000E+00 0.  1.
     999900   -1    0    0    0    0 -0.00000000000E+00 -0.00000000000E+00 -0.74505805969E-08  0.93827000000E+00  0.93827000000E+00 0. -1.
     999902    2    1    2    0    0 -0.40343216736E-02 -0.16718620151E-01 -0.63443554330E-02  0.10255986373E+01  0.10254347985E+01 0.  0.
     999903    2    3    3    0    0  0.87406800378E-02  0.96860891002E-01 -0.90418660923E-01  0.13423339522E+00  0.19612201683E-01 0.  0.
         14    1    1    2    0    0  0.40343216736E-02  0.16718620151E-01  0.63443554330E-02  0.18331362660E-01  0.00000000000E+00 0.  1.
     999901    1    3    3    0    0 -0.12775001711E-01 -0.11357951115E+00  0.84074305490E-01  0.89136524212E+00  0.88000000000E+00 0.  1.
        -11    1    4    4    0    0 -0.26716108210E-02  0.19799006548E-01 -0.28038908810E-01  0.34432247863E-01  0.51100000000E-03 0.  1.
         11    1    4    4    0    0  0.11412290859E-01  0.77061884454E-01 -0.62379752113E-01  0.99801147353E-01  0.51100000000E-03 0. -1.
</event>
<event>
 8    1  0.1111182E+005  0.1043930E+01  0.7957747E-01            NaN
         13   -1    0    0    0    0  0.00000000000E+00  0.00000000000E+00  0.74505805969E-08  0.10566000000E+00  0.10566000000E+00 0. -1.
     999900   -1    0    0    0    0 -0.00000000000E+00 -0.00000000000E+00 -0.74505805969E-08  0.93827000000E+00  0.93827000000E+00 0. -1.
     999902    2    1    2    0    0  0.17850539832E-01  0.10069816551E-01  0.12253681168E-01  0.10200512295E+01  0.10197716976E+01 0.  0.
     999903    2    3    3    0    0 -0.10481388845E+00 -0.67901803306E-01  0.26151376950E-01  0.12802024271E+00  0.10425062311E-01 0.  0.
         14    1    1    2    0    0 -0.17850539832E-01 -0.10069816551E-01 -0.12253681168E-01  0.23878770484E-01  0.00000000000E+00 0.  1.
     999901    1    3    3    0    0  0.12266442828E+00  0.77971619857E-01 -0.13897695782E-01  0.89203098680E+00  0.88000000000E+00 0. -1.
        -11    1    4    4    0    0 -0.48799191889E-01 -0.33706750285E-01  0.17397259949E-01  0.61809642601E-01  0.51100000000E-03 0.  1.
         11    1    4    4    0    0 -0.56014696559E-01 -0.34195053020E-01  0.87541170020E-02  0.66210600112E-01  0.51100000000E-03 0. -1.
</event>
<event>
 8    1  0.1111182E+005  0.1043930E+01  0.7957747E-01            NaN
         13   -1    0    0    0    0  0.00000000000E+00  0.00000000000E+00  0.74505805969E-08  0.10566000000E+00  0.10566000000E+00 0. -1.
     999900   -1    0    0    0    0 -0.00000000000E+00 -0.00000000000E+00 -0.74505805969E-08  0.93827000000E+00  0.93827000000E+00 0.  1.
     999902    2    1    2    0    0 -0.12802327922E-01  0.24496322937E-01 -0.98365145441E-02  0.10145918600E+01  0.10141675976E+01 0.  0.
     999903    2    3    3    0    0 -0.90467099489E-01  0.36158891857E-02 -0.87492231990E-01  0.12751902216E+00  0.20219782644E-01 0.  0.
         14    1    1    2    0    0  0.12802327922E-01 -0.24496322937E-01  0.98365145441E-02  0.29338139955E-01  0.00000000000E+00 0.  1.
     999901    1    3    3    0    0  0.77664771568E-01  0.20880433751E-01  0.77655717446E-01  0.88707283788E+00  0.88000000000E+00 0. -1.
        -11    1    4    4    0    0 -0.45644428790E-01  0.62117315293E-02 -0.31784475941E-01  0.55968862057E-01  0.51100000000E-03 0.  1.
         11    1    4    4    0    0 -0.44822670700E-01 -0.25958423436E-02 -0.55707756050E-01  0.71550160106E-01  0.51100000000E-03 0. -1.
</event>
<event>
 8    1  0.1111182E+005  0.1043930E+01  0.7957747E-01            NaN
         13   -1    0    0    0    0  0.00000000000E+00  0.00000000000E+00  0.74505805969E-08  0.10566000000E+00  0.10566000000E+00 0.  1.
     999900   -1    0    0    0    0 -0.00000000000E+00 -0.00000000000E+00 -0.74505805969E-08  0.93827000000E+00  0.93827000000E+00 0.  1.
     999902    2    1    2    0    0 -0.21632728815E-01 -0.73628744643E-03 -0.14294479076E-01  0.10179906629E+01  0.10176601302E+01 0.  0.
     999903    2    3    3    0    0  0.81517439248E-01  0.16203393649E-01  0.91831052918E-01  0.12547201411E+00  0.20065920785E-01 0.  0.
         14    1    1    2    0    0  0.21632728815E-01  0.73628744643E-03  0.14294479076E-01  0.25939337063E-01  0.00000000000E+00 0.  1.
     999901    1    3    3    0    0 -0.10315016806E+00 -0.16939681096E-01 -0.10612553199E+00  0.89251864883E+00  0.88000000000E+00 0.  1.
        -11    1    4    4    0    0  0.16704456843E-01 -0.10048239067E-02  0.93738801600E-02  0.19187998847E-01  0.51100000000E-03 0. -1.
         11    1    4    4    0    0  0.64812982405E-01  0.17208217556E-01  0.82457172758E-01  0.10628401526E+00  0.51100000000E-03 0.  1.
</event>
<event>
 8    1  0.1111182E+005  0.1043930E+01  0.7957747E-01            NaN
         13   -1    0    0    0    0  0.00000000000E+00  0.00000000000E+00  0.74505805969E-08  0.10566000000E+00  0.10566000000E+00 0. -1.
     999900   -1    0    0    0    0 -0.00000000000E+00 -0.00000000000E+00 -0.74505805969E-08  0.93827000000E+00  0.93827000000E+00 0.  1.
     999902    2    1    2    0    0  0.19576076230E-01 -0.78960410729E-02 -0.94043075217E-02  0.10208213171E+01  0.10205597240E+01 0.  0.
     999903    2    3    3    0    0 -0.46686118969E-01 -0.15008174927E-01 -0.12038468773E+00  0.13135074100E+00  0.18860145861E-01 0.  0.
         14    1    1    2    0    0 -0.19576076230E-01  0.78960410729E-02  0.94043075217E-02  0.23108682895E-01  0.00000000000E+00 0.  1.
     999901    1    3    3    0    0  0.66262195199E-01  0.71121338545E-02  0.11098038021E+00  0.88947057610E+00  0.88000000000E+00 0. -1.
        -11    1    4    4    0    0 -0.44164709844E-01 -0.90545233036E-02 -0.95081329891E-01  0.10522939895E+00  0.51100000000E-03 0. -1.
         11    1    4    4    0    0 -0.25214091252E-02 -0.59536516237E-02 -0.25303357843E-01  0.26121342055E-01  0.51100000000E-03 0.  1.
</event>
<event>
 8    1  0.1111182E+005  0.1043930E+01  0.7957747E-01            NaN
         13   -1    0    0    0    0  0.00000000000E+00  0.00000000000E+00  0.74505805969E-08  0.10566000000E+00  0.10566000000E+00 0. -1.
     999900   -1    0    0    0    0 -0.00000000000E+00 -0.00000000000E+00 -0.74505805969E-08  0.93827000000E+00  0.93827000000E+00 0. -1.
     999902    2    1    2    0    0 -0.12331514662E-01 -0.15171937613E-01  0.28066902664E-02  0.10241782544E+01  0.10239877759E+01 0.  0.
     999903    2    3    3    0    0  0.78452712684E-01 -0.86828602603E-01 -0.62375905472E-01  0.13422026416E+00  0.20743465713E-01 0.  0.
         14    1    1    2    0    0  0.12331514662E-01  0.15171937613E-01 -0.28066902664E-02  0.19751745620E-01  0.00000000000E+00 0. -1.
     999901    1    3    3    0    0 -0.90784227346E-01  0.71656664990E-01  0.65182595739E-01  0.88995799022E+00  0.88000000000E+00 0.  1.
        -11    1    4    4    0    0  0.53597662565E-01 -0.55662614937E-01 -0.30112756996E-01  0.82934162979E-01  0.51100000000E-03 0.  1.
         11    1    4    4    0    0  0.24855050119E-01 -0.31165987665E-01 -0.32263148476E-01  0.51286101179E-01  0.51100000000E-03 0. -1.
</event>
<event>
 8    1  0.1111182E+005  0.1043930E+01  0.7957747E-01            NaN
         13   -1    0    0    0    0  0.00000000000E+00  0.00000000000E+00  0.74505805969E-08  0.10566000000E+00  0.10566000000E+00 0. -1.
     999900   -1    0    0    0    0 -0.00000000000E+00 -0.00000000000E+00 -0.74505805969E-08  0.93827000000E+00  0.93827000000E+00 0.  1.
     999902    2    1    2    0    0 -0.12297980982E-02  0.25391202722E-01  0.25647582161E-02  0.10183799792E+01  0.10180594179E+01 0.  0.
     999903    2    3    3    0    0  0.26051849411E-01 -0.87279146356E-01  0.87211677382E-01  0.12675001290E+00  0.12780487148E-01 0.  0.
         14    1    1    2    0    0  0.12297980982E-02 -0.25391202722E-01 -0.25647582161E-02  0.25550020817E-01  0.00000000000E+00 0.  1.
     999901    1    3    3    0    0 -0.27281647509E-01  0.11267034908E+00 -0.84646919166E-01  0.89162996628E+00  0.88000000000E+00 0.  1.
        -11    1    4    4    0    0  0.15589905728E-01 -0.58130855373E-01  0.65321106870E-01  0.88822010959E-01  0.51100000000E-03 0.  1.
         11    1    4    4    0    0  0.10461943682E-01 -0.29148290983E-01  0.21890570512E-01  0.37928001940E-01  0.51100000000E-03 0. -1.
</event>
<event>
 8    1  0.1111182E+005  0.1043930E+01  0.7957747E-01            NaN
         13   -1    0    0    0    0  0.00000000000E+00  0.00000000000E+00  0.74505805969E-08  0.10566000000E+00  0.10566000000E+00 0. -1.
     999900   -1    0    0    0    0 -0.00000000000E+00 -0.00000000000E+00 -0.74505805969E-08  0.93827000000E+00  0.93827000000E+00 0. -1.
     999902    2    1    2    0    0 -0.52429059987E-02 -0.23139968562E-01  0.20970186879E-02  0.10201110224E+01  0.10198329051E+01 0.  0.
     999903    2    3    3    0    0  0.13922238839E-01  0.12509114664E+00  0.11849097716E-02  0.12750775201E+00  0.20376435154E-01 0.  0.
         14    1    1    2    0    0  0.52429059987E-02  0.23139968562E-01 -0.20970186879E-02  0.23818977638E-01  0.00000000000E+00 0.  1.
     999901    1    3    3    0    0 -0.19165144838E-01 -0.14823111521E+00  0.91210891623E-03  0.89260327035E+00  0.88000000000E+00 0. -1.
        -11    1    4    4    0    0  0.23579021898E-02  0.86557109755E-01  0.69160388079E-02  0.86866481831E-01  0.51100000000E-03 0. -1.
         11    1    4    4    0    0  0.11564336649E-01  0.38534036889E-01 -0.57311290363E-02  0.40641270184E-01  0.51100000000E-03 0.  1.
</event>
<event>
 8    1  0.1111182E+005  0.1043930E+01  0.7957747E-01            NaN
         13   -1    0    0    0    0  0.00000000000E+00  0.00000000000E+00  0.74505805969E-08  0.10566000000E+00  0.10566000000E+00 0.  1.
     999900   -1    0    0    0    0 -0.00000000000E+00 -0.00000000000E+00 -0.74505805969E-08  0.93827000000E+00  0.93827000000E+00 0.  1.
     999902    2    1    2    0    0  0.33454149682E-01  0.17944924675E-01  0.31368981187E-03  0.10059655580E+01  0.10052489269E+01 0.  0.
     999903    2    3    3    0    0 -0.49466268592E-01  0.87662463271E-01 -0.57071647988E-01  0.11746715739E+00  0.20242056854E-01 0.  0.
         14    1    1    2    0    0 -0.33454149682E-01 -0.17944924675E-01 -0.31368981187E-03  0.37964441967E-01  0.00000000000E+00 0. -1.
     999901    1    3    3    0    0  0.82920418274E-01 -0.69717538596E-01  0.57385337799E-01  0.88849840065E+00  0.88000000000E+00 0. -1.
        -11    1    4    4    0    0 -0.53286703408E-02  0.27483147347E-01 -0.17030917626E-01  0.32772418158E-01  0.51100000000E-03 0.  1.
         11    1    4    4    0    0 -0.44137598251E-01  0.60179315924E-01 -0.40040730361E-01  0.84694739231E-01  0.51100000000E-03 0. -1.
</event>
<event>
 8    1  0.1111182E+005  0.1043930E+01  0.7957747E-01            NaN
         13   -1    0    0    0    0  0.00000000000E+00  0.00000000000E+00  0.74505805969E-08  0.10566000000E+00  0.10566000000E+00 0.  1.
     999900   -1    0    0    0    0 -0.00000000000E+00 -0.00000000000E+00 -0.74505805969E-08  0.93827000000E+00  0.93827000000E+00 0.  1.
     999902    2    1    2    0    0 -0.11782053148E-01 -0.16292010248E-02  0.20815770289E-01  0.10199556936E+01  0.10196738938E+01 0.  0.
     999903    2    3    3    0    0  0.86021841845E-01 -0.81038179576E-01 -0.46715930324E-01  0.12842222914E+00  0.18518827382E-01 0.  0.
         14    1    1    2    0    0  0.11782053148E-01  0.16292010248E-02 -0.20815770289E-01  0.23974306352E-01  0.00000000000E+00 0. -1.
     999901    1    3    3    0    0 -0.97803894993E-01  0.79408978551E-01  0.67531700613E-01  0.89153346451E+00  0.88000000000E+00 0. -1.
        -11    1    4    4    0    0  0.39788181670E-01 -0.50139418213E-01 -0.24546961968E-01  0.68555635233E-01  0.51100000000E-03 0.  1.
         11    1    4    4    0    0  0.46233660175E-01 -0.30898761363E-01 -0.22168968357E-01  0.59866593906E-01  0.51100000000E-03 0. -1.
</event>
<event>
 8    1  0.1111182E+005  0.1043930E+01  0.7957747E-01            NaN
         13   -1    0    0    0    0  0.00000000000E+00  0.00000000000E+00  0.74505805969E-08  0.10566000000E+00  0.10566000000E+00 0. -1.
     999900   -1    0    0    0    0 -0.00000000000E+00 -0.00000000000E+00 -0.74505805969E-08  0.93827000000E+00  0.93827000000E+00 0.  1.
     999902    2    1    2    0    0 -0.23860915469E-01  0.17633648613E-02  0.21883449713E-02  0.10199041473E+01  0.10196211199E+01 0.  0.
     999903    2    3    3    0    0  0.88301739799E-01  0.90171332455E-01 -0.84424624096E-02  0.12832720504E+00  0.21645552260E-01 0.  0.
         14    1    1    2    0    0  0.23860915469E-01 -0.17633648613E-02 -0.21883449713E-02  0.24025852667E-01  0.00000000000E+00 0. -1.
     999901    1    3    3    0    0 -0.11216265527E+00 -0.88407967594E-01  0.10630807381E-01  0.89157694230E+00  0.88000000000E+00 0.  1.
        -11    1    4    4    0    0  0.35166871331E-01  0.46232117197E-01 -0.11875532880E-01  0.59290866935E-01  0.51100000000E-03 0.  1.
         11    1    4    4    0    0  0.53134868467E-01  0.43939215258E-01  0.34330704700E-02  0.69036338101E-01  0.51100000000E-03 0. -1.
</event>
<event>
 8    1  0.1111182E+005  0.1043930E+01  0.7957747E-01            NaN
         13   -1    0    0    0    0  0.00000000000E+00  0.00000000000E+00  0.74505805969E-08  0.10566000000E+00  0.10566000000E+00 0. -1.
     999900   -1    0    0    0    0 -0.00000000000E+00 -0.00000000000E+00 -0.74505805969E-08  0.93827000000E+00  0.93827000000E+00 0.  1.
     999902    2    1    2    0    0 -0.80254046711E-02 -0.66914957087E-02  0.17097994801E-01  0.10238919197E+01  0.10236958233E+01 0.  0.
     999903    2    3    3    0    0 -0.11018572247E+00 -0.35392028335E-01 -0.64129417507E-01  0.13380296708E+00  0.19928941340E-01 0.  0.
         14    1    1    2    0    0  0.80254046711E-02  0.66914957087E-02 -0.17097994801E-01  0.20038080277E-01  0.00000000000E+00 0.  1.
     999901    1    3    3    0    0  0.10216031780E+00  0.28700532626E-01  0.81227412309E-01  0.89008895264E+00  0.88000000000E+00 0. -1.
        -11    1    4    4    0    0 -0.30600597739E-01 -0.11234466790E-02 -0.19828646847E-01  0.36484175627E-01  0.51100000000E-03 0. -1.
         11    1    4    4    0    0 -0.79585124735E-01 -0.34268581656E-01 -0.44300770661E-01  0.97318791453E-01  0.51100000000E-03 0.  1.
</event>
<event>
 8    1  0.1111182E+005  0.1043930E+01  0.7957747E-01            NaN
         13   -1    0    0    0    0  0.00000000000E+00  0.00000000000E+00  0.74505805969E-08  0.10566000000E+00  0.10566000000E+00 0.  1.
     999900   -1    0    0    0    0 -0.00000000000E+00 -0.00000000000E+00 -0.74505805969E-08  0.93827000000E+00  0.93827000000E+00 0. -1.
     999902    2    1    2    0    0 -0.17514819308E-01  0.44154862640E-02  0.17447983405E-01  0.10188163077E+01  0.10185067360E+01 0.  0.
     999903    2    3    3    0    0  0.72186766011E-01 -0.42011787153E-01  0.97115361812E-01  0.12946330847E+00  0.18799874782E-01 0.  0.
         14    1    1    2    0    0  0.17514819308E-01 -0.44154862640E-02 -0.17447983405E-01  0.25113692266E-01  0.00000000000E+00 0. -1.
     999901    1    3    3    0    0 -0.89701585319E-01  0.46427273417E-01 -0.79667378407E-01  0.88935299927E+00  0.88000000000E+00 0.  1.
        -11    1    4    4    0    0  0.44520159061E-01 -0.19844534637E-01  0.44409970535E-01  0.65942070954E-01  0.51100000000E-03 0.  1.
         11    1    4    4    0    0  0.27666606950E-01 -0.22167252516E-01  0.52705391277E-01  0.63521237511E-01  0.51100000000E-03 0. -1.
</event>
<event>
 8    1  0.1111182E+005  0.1043930E+01  0.7957747E-01            NaN
         13   -1    0    0    0    0  0.00000000000E+00  0.00000000000E+00  0.74505805969E-08  0.10566000000E+00  0.10566000000E+00 0.  1.
     999900   -1    0    0    0    0 -0.00000000000E+00 -0.00000000000E+00 -0.74505805969E-08  0.93827000000E+00  0.93827000000E+00 0.  1.
     999902    2    1    2    0    0  0.16872060469E-01  0.75872151932E-02 -0.14200318764E-01  0.10206087369E+01  0.10203422527E+01 0.  0.
     999903    2    3    3    0    0 -0.75712936995E-01 -0.39738271030E-01 -0.96415001323E-01  0.13068124693E+00  0.21683099556E-01 0.  0.
         14    1    1    2    0    0 -0.16872060469E-01 -0.75872151932E-02  0.14200318764E-01  0.23321263085E-01  0.00000000000E+00 0. -1.
     999901    1    3    3    0    0  0.92584997464E-01  0.47325486223E-01  0.82214682559E-01  0.88992748998E+00  0.88000000000E+00 0.  1.
        -11    1    4    4    0    0 -0.46948852280E-01 -0.21819703111E-01 -0.42431623991E-01  0.66940257019E-01  0.51100000000E-03 0.  1.
         11    1    4    4    0    0 -0.28764084715E-01 -0.17918567919E-01 -0.53983377332E-01  0.63740989912E-01  0.51100000000E-03 0. -1.
</event>
<event>
 8    1  0.1111182E+005  0.1043930E+01  0.7957747E-01            NaN
         13   -1    0    0    0    0  0.00000000000E+00  0.00000000000E+00  0.74505805969E-08  0.10566000000E+00  0.10566000000E+00 0.  1.
     999900   -1    0    0    0    0 -0.00000000000E+00 -0.00000000000E+00 -0.74505805969E-08  0.93827000000E+00  0.93827000000E+00 0. -1.
     999902    2    1    2    0    0 -0.11927400245E-01  0.39287954794E-02 -0.20054181445E-01  0.10202684594E+01  0.10199940494E+01 0.  0.
     999903    2    3    3    0    0 -0.23342459513E-01 -0.44082868816E-01  0.11664212027E+00  0.12834845043E+00  0.19487708069E-01 0.  0.
         14    1    1    2    0    0  0.11927400245E-01 -0.39287954794E-02  0.20054181445E-01  0.23661540608E-01  0.00000000000E+00 0.  1.
     999901    1    3    3    0    0  0.11415059268E-01  0.48011664295E-01 -0.13669630172E+00  0.89192000896E+00  0.88000000000E+00 0. -1.
        -11    1    4    4    0    0 -0.13750851444E-01 -0.14810955523E-01  0.66435025978E-01  0.69442955846E-01  0.51100000000E-03 0. -1.
         11    1    4    4    0    0 -0.95916080695E-02 -0.29271913292E-01  0.50207094297E-01  0.58905494581E-01  0.51100000000E-03 0.  1.
</event>
<event>
 8    1  0.1111182E+005  0.1043930E+01  0.7957747E-01            NaN
         13   -1    0    0    0    0  0.00000000000E+00  0.00000000000E+00  0.74505805969E-08  0.10566000000E+00  0.10566000000E+00 0.  1.
     999900   -1    0    0    0    0 -0.00000000000E+00 -0.00000000000E+00 -0.74505805969E-08  0.93827000000E+00  0.93827000000E+00 0. -1.
     999902    2    1    2    0    0  0.11594140490E-01  0.16412456054E-01  0.10462818618E-01  0.10212746832E+01  0.10210233666E+01 0.  0.
     999903    2    3    3    0    0  0.67117640718E-01  0.93695589229E-01 -0.64588701914E-01  0.13296827630E+00  0.15007363180E-01 0.  0.
         14    1    1    2    0    0 -0.11594140490E-01 -0.16412456054E-01 -0.10462818618E-01  0.22655316835E-01  0.00000000000E+00 0.  1.
     999901    1    3    3    0    0 -0.55523500228E-01 -0.77283133175E-01  0.75051520532E-01  0.88830640687E+00  0.88000000000E+00 0.  1.
        -11    1    4    4    0    0  0.20041932474E-01  0.37540745301E-01 -0.29037694004E-01  0.51521213196E-01  0.51100000000E-03 0. -1.
         11    1    4    4    0    0  0.47075708244E-01  0.56154843928E-01 -0.35551007909E-01  0.81447063100E-01  0.51100000000E-03 0.  1.
</event>
<event>
 8    1  0.1111182E+005  0.1043930E+01  0.7957747E-01            NaN
         13   -1    0    0    0    0  0.00000000000E+00  0.00000000000E+00  0.74505805969E-08  0.10566000000E+00  0.10566000000E+00 0.  1.
     999900   -1    0    0    0    0 -0.00000000000E+00 -0.00000000000E+00 -0.74505805969E-08  0.93827000000E+00  0.93827000000E+00 0.  1.
     999902    2    1    2    0    0  0.38764632680E-03  0.86265942783E-02 -0.13474548841E-01  0.10279258797E+01  0.10278012855E+01 0.  0.
     999903    2    3    3    0    0 -0.67787591872E-01  0.11189445941E+00  0.38094265024E-01  0.13777338852E+00  0.20366784239E-01 0.  0.
         14    1    1    2    0    0 -0.38764632680E-03 -0.86265942783E-02  0.13474548841E-01  0.16004120250E-01  0.00000000000E+00 0.  1.
     999901    1    3    3    0    0  0.68175238199E-01 -0.10326786513E+00 -0.51568813865E-01  0.89015249123E+00  0.88000000000E+00 0.  1.
        -11    1    4    4    0    0 -0.45206172082E-01  0.90573211258E-01  0.31535495586E-01  0.10602760581E+00  0.51100000000E-03 0.  1.
         11    1    4    4    0    0 -0.22581419791E-01  0.21321248148E-01  0.65587694377E-02  0.31745782710E-01  0.51100000000E-03 0. -1.
</event>
<event>
 8    1  0.1111182E+005  0.1043930E+01  0.7957747E-01            NaN
         13   -1    0    0    0    0  0.00000000000E+00  0.00000000000E+00  0.74505805969E-08  0.10566000000E+00  0.10566000000E+00 0.  1.
     999900   -1    0    0    0    0 -0.00000000000E+00 -0.00000000000E+00 -0.74505805969E-08  0.93827000000E+00  0.93827000000E+00 0.  1.
     999902    2    1    2    0    0 -0.10212543108E-01  0.16717090001E-01 -0.13531442624E-01  0.10201212395E+01  0.10198433636E+01 0.  0.
     999903    2    3    3    0    0 -0.32829845909E-02 -0.50730024254E-01 -0.11867181557E+00  0.13127275413E+00  0.23774415175E-01 0.  0.
         14    1    1    2    0    0  0.10212543108E-01 -0.16717090001E-01  0.13531442624E-01  0.23808760453E-01  0.00000000000E+00 0.  1.
     999901    1    3    3    0    0 -0.69295585168E-02  0.67447114255E-01  0.10514037295E+00  0.88884848542E+00  0.88000000000E+00 0. -1.
        -11    1    4    4    0    0 -0.23329458054E-02  0.91232394071E-03 -0.17418563112E-01  0.17605181992E-01  0.51100000000E-03 0.  1.
         11    1    4    4    0    0 -0.95003878551E-03 -0.51642348195E-01 -0.10125325246E+00  0.11366757214E+00  0.51100000000E-03 0. -1.
</event>
<event>
 8    1  0.1111182E+005  0.1043930E+01  0.7957747E-01            NaN
         13   -1    0    0    0    0  0.00000000000E+00  0.00000000000E+00  0.74505805969E-08  0.10566000000E+00  0.10566000000E+00 0. -1.
     999900   -1    0    0    0    0 -0.00000000000E+00 -0.00000000000E+00 -0.74505805969E-08  0.93827000000E+00  0.93827000000E+00 0.  1.
     999902    2    1    2    0    0 -0.10446375861E-02 -0.23066464350E-01 -0.43509383352E-02  0.10204335384E+01  0.10201629882E+01 0.  0.
     999903    2    3    3    0    0  0.98992800665E-01 -0.24023667747E-01 -0.80570288756E-01  0.13149158600E+00  0.20536663854E-01 0.  0.
         14    1    1    2    0    0  0.10446375861E-02  0.23066464350E-01  0.43509383352E-02  0.23496461642E-01  0.00000000000E+00 0. -1.
     999901    1    3    3    0    0 -0.10003743825E+00  0.95720339701E-03  0.76219350421E-01  0.88894195236E+00  0.88000000000E+00 0. -1.
        -11    1    4    4    0    0  0.67141222105E-01 -0.86584011417E-02 -0.60686599167E-01  0.90917743348E-01  0.51100000000E-03 0. -1.
         11    1    4    4    0    0  0.31851578560E-01 -0.15365266605E-01 -0.19883689589E-01  0.40573842649E-01  0.51100000000E-03 0.  1.
</event>
<event>
 8    1  0.1111182E+005  0.1043930E+01  0.7957747E-01            NaN
         13   -1    0    0    0    0  0.00000000000E+00  0.00000000000E+00  0.74505805969E-08  0.10566000000E+00  0.10566000000E+00 0. -1.
     999900   -1    0    0    0    0 -0.00000000000E+00 -0.00000000000E+00 -0.74505805969E-08  0.93827000000E+00  0.93827000000E+00 0. -1.
     999902    2    1    2    0    0 -0.21859995149E-01 -0.18541620951E-02 -0.63052258815E-02  0.10211034107E+01  0.10208482366E+01 0.  0.
     999903    2    3    3    0    0  0.12229088830E-01  0.12653034714E+00 -0.23975274404E-01  0.13095910866E+00  0.20395955432E-01 0.  0.
         14    1    1    2    0    0  0.21859995149E-01  0.18541620951E-02  0.63052258815E-02  0.22826589285E-01  0.00000000000E+00 0.  1.
     999901    1    3    3    0    0 -0.34089083979E-01 -0.12838450924E+00  0.17670048523E-01  0.89014430205E+00  0.88000000000E+00 0. -1.
        -11    1    4    4    0    0 -0.43787608492E-02  0.59885943351E-01 -0.10244447241E-01  0.60915593881E-01  0.51100000000E-03 0. -1.
         11    1    4    4    0    0  0.16607849680E-01  0.66644403791E-01 -0.13730827164E-01  0.70043514783E-01  0.51100000000E-03 0.  1.
</event>
<event>
 8    1  0.1111182E+005  0.1043930E+01  0.7957747E-01            NaN
         13   -1    0    0    0    0  0.00000000000E+00  0.00000000000E+00  0.74505805969E-08  0.10566000000E+00  0.10566000000E+00 0. -1.
     999900   -1    0    0    0    0 -0.00000000000E+00 -0.00000000000E+00 -0.74505805969E-08  0.93827000000E+00  0.93827000000E+00 0.  1.
     999902    2    1    2    0    0 -0.25366988829E-04  0.19731470272E-01  0.10489177668E-01  0.10215837607E+01  0.10213393294E+01 0.  0.
     999903    2    3    3    0    0  0.33984238885E-01 -0.11644721908E+00 -0.38958002809E-01  0.12908932801E+00  0.20771261410E-01 0.  0.
         14    1    1    2    0    0  0.25366988829E-04 -0.19731470272E-01 -0.10489177668E-01  0.22346239297E-01  0.00000000000E+00 0.  1.
     999901    1    3    3    0    0 -0.34009605874E-01  0.13617868935E+00  0.49447180477E-01  0.89249443269E+00  0.88000000000E+00 0. -1.
        -11    1    4    4    0    0  0.34977358633E-01 -0.94553502119E-01 -0.35565202084E-01  0.10690615090E+00  0.51100000000E-03 0. -1.
         11    1    4    4    0    0 -0.99311974790E-03 -0.21893716959E-01 -0.33928007253E-02  0.22183177114E-01  0.51100000000E-03 0.  1.
</event>
<event>
 8    1  0.1111182E+005  0.1043930E+01  0.7957747E-01            NaN
         13   -1    0    0    0    0  0.00000000000E+00  0.00000000000E+00  0.74505805969E-08  0.10566000000E+00  0.10566000000E+00 0.  1.
     999900   -1    0    0    0    0 -0.00000000000E+00 -0.00000000000E+00 -0.74505805969E-08  0.93827000000E+00  0.93827000000E+00 0.  1.
     999902    2    1    2    0    0 -0.83354188671E-02  0.22176127679E-01 -0.11975418265E-01  0.10173843697E+01  0.10170379959E+01 0.  0.
     999903    2    3    3    0    0 -0.14111989643E-01  0.12362451921E+00 -0.36420647087E-01  0.13120001294E+00  0.20119887205E-01 0.  0.
         14    1    1    2    0    0  0.83354188671E-02 -0.22176127679E-01  0.11975418265E-01  0.26545630321E-01  0.00000000000E+00 0.  1.
     999901    1    3    3    0    0  0.57765707755E-02 -0.10144839153E+00  0.24445228822E-01  0.88618435674E+00  0.88000000000E+00 0. -1.
        -11    1    4    4    0    0  0.43980508685E-02  0.46973435583E-01 -0.13019893469E-01  0.48945124873E-01  0.51100000000E-03 0.  1.
         11    1    4    4    0    0 -0.18510040511E-01  0.76651083623E-01 -0.23400753618E-01  0.82254888068E-01  0.51100000000E-03 0. -1.
</event>
<event>
 8    1  0.1111182E+005  0.1043930E+01  0.7957747E-01            NaN
         13   -1    0    0    0    0  0.00000000000E+00  0.00000000000E+00  0.74505805969E-08  0.10566000000E+00  0.10566000000E+00 0. -1.
     999900   -1    0    0    0    0 -0.00000000000E+00 -0.00000000000E+00 -0.74505805969E-08  0.93827000000E+00  0.93827000000E+00 0. -1.
     999902    2    1    2    0    0 -0.23123024701E-01 -0.83362882733E-03 -0.37141783245E-02  0.10204957445E+01  0.10202266416E+01 0.  0.
     999903    2    3    3    0    0  0.20713453891E-02  0.51757646916E-01 -0.11887786466E+00  0.13107836602E+00  0.19142801392E-01 0.  0.
         14    1    1    2    0    0  0.23123024701E-01  0.83362882733E-03  0.37141783245E-02  0.23434255461E-01  0.00000000000E+00 0.  1.
     999901    1    3    3    0    0 -0.25194370091E-01 -0.52591275743E-01  0.11516368634E+00  0.88941737852E+00  0.88000000000E+00 0.  1.
        -11    1    4    4    0    0 -0.60192420753E-02  0.59889151566E-02 -0.23129641898E-01  0.24644265768E-01  0.51100000000E-03 0. -1.
         11    1    4    4    0    0  0.80905874644E-02  0.45768731759E-01 -0.95748222763E-01  0.10643410025E+00  0.51100000000E-03 0.  1.
</event>
<event>
 8    1  0.1111182E+005  0.1043930E+01  0.7957747E-01            NaN
         13   -1    0    0    0    0  0.00000000000E+00  0.00000000000E+00  0.74505805969E-08  0.10566000000E+00  0.10566000000E+00 0. -1.
     999900   -1    0    0    0    0 -0.00000000000E+00 -0.00000000000E+00 -0.74505805969E-08  0.93827000000E+00  0.93827000000E+00 0.  1.
     999902    2    1    2    0    0 -0.16698515597E-01 -0.47821661860E-02  0.16649600813E-01  0.10198692697E+01  0.10195854101E+01 0.  0.
     999903    2    3    3    0    0  0.31050288960E-01  0.54700038790E-01  0.11259606248E+00  0.13137402233E+00  0.25000915378E-01 0.  0.
         14    1    1    2    0    0  0.16698515597E-01  0.47821661860E-02 -0.16649600813E-01  0.24060730326E-01  0.00000000000E+00 0.  1.
     999901    1    3    3    0    0 -0.47748804557E-01 -0.59482204976E-01 -0.95946461665E-01  0.88849524734E+00  0.88000000000E+00 0.  1.
        -11    1    4    4    0    0  0.31567492258E-01  0.36400731207E-01  0.69720422198E-01  0.84750918534E-01  0.51100000000E-03 0. -1.
         11    1    4    4    0    0 -0.51720329793E-03  0.18299307583E-01  0.42875640280E-01  0.46623103797E-01  0.51100000000E-03 0.  1.
</event>
<event>
 8    1  0.1111182E+005  0.1043930E+01  0.7957747E-01            NaN
         13   -1    0    0    0    0  0.00000000000E+00  0.00000000000E+00  0.74505805969E-08  0.10566000000E+00  0.10566000000E+00 0. -1.
     999900   -1    0    0    0    0 -0.00000000000E+00 -0.00000000000E+00 -0.74505805969E-08  0.93827000000E+00  0.93827000000E+00 0. -1.
     999902    2    1    2    0    0 -0.16932035065E-01 -0.41399953631E-02 -0.16148594023E-01  0.10201684668E+01  0.10198917051E+01 0.  0.
     999903    2    3    3    0    0 -0.22994757805E-01  0.34028238436E-01 -0.12447117305E+00  0.13268474758E+00  0.20627394980E-01 0.  0.
         14    1    1    2    0    0  0.16932035065E-01  0.41399953631E-02  0.16148594023E-01  0.23761533241E-01  0.00000000000E+00 0. -1.
     999901    1    3    3    0    0  0.60627227403E-02 -0.38168233799E-01  0.10832257902E+00  0.88748371918E+00  0.88000000000E+00 0.  1.
        -11    1    4    4    0    0 -0.11038081366E-01  0.23976763224E-01 -0.49482670357E-01  0.56084937386E-01  0.51100000000E-03 0.  1.
         11    1    4    4    0    0 -0.11956676439E-01  0.10051475212E-01 -0.74988502689E-01  0.76599810196E-01  0.51100000000E-03 0. -1.
</event>
<event>
 8    1  0.1111182E+005  0.1043930E+01  0.7957747E-01            NaN
         13   -1    0    0    0    0  0.00000000000E+00  0.00000000000E+00  0.74505805969E-08  0.10566000000E+00  0.10566000000E+00 0.  1.
     999900   -1    0    0    0    0 -0.00000000000E+00 -0.00000000000E+00 -0.74505805969E-08  0.93827000000E+00  0.93827000000E+00 0. -1.
     999902    2    1    2    0    0  0.24128190182E-03 -0.69573510694E-02  0.22634596842E-01  0.10202490388E+01  0.10199741728E+01 0.  0.
     999903    2    3    3    0    0 -0.74129189144E-01 -0.10255846482E+00  0.30860601814E-01  0.13191452572E+00  0.20873187621E-01 0.  0.
         14    1    1    2    0    0 -0.24128190182E-03  0.69573510694E-02 -0.22634596842E-01  0.23680961236E-01  0.00000000000E+00 0. -1.
     999901    1    3    3    0    0  0.74370471046E-01  0.95601113750E-01 -0.82260049717E-02  0.88833451305E+00  0.88000000000E+00 0. -1.
        -11    1    4    4    0    0 -0.16244378335E-01 -0.36975613157E-01  0.14552678787E-01  0.42931542911E-01  0.51100000000E-03 0.  1.
         11    1    4    4    0    0 -0.57884810809E-01 -0.65582851662E-01  0.16307923026E-01  0.88982982806E-01  0.51100000000E-03 0. -1.
</event>
<event>
 8    1  0.1111182E+005  0.1043930E+01  0.7957747E-01            NaN
         13   -1    0    0    0    0  0.00000000000E+00  0.00000000000E+00  0.74505805969E-08  0.10566000000E+00  0.10566000000E+00 0.  1.
     999900   -1    0    0    0    0 -0.00000000000E+00 -0.00000000000E+00 -0.74505805969E-08  0.93827000000E+00  0.93827000000E+00 0. -1.
     999902    2    1    2    0    0 -0.14962849661E-01 -0.16308629519E-01 -0.10802163871E-01  0.10193018655E+01  0.10190042924E+01 0.  0.
     999903    2    3    3    0    0  0.71152981814E-01 -0.54706037592E-02 -0.10654993510E+00  0.12986325885E+00  0.20467120042E-01 0.  0.
         14    1    1    2    0    0  0.14962849661E-01  0.16308629519E-01  0.10802163871E-01  0.24628134543E-01  0.00000000000E+00 0. -1.
     999901    1    3    3    0    0 -0.86115831475E-01 -0.10838025759E-01  0.95747771226E-01  0.88943860661E+00  0.88000000000E+00 0. -1.
        -11    1    4    4    0    0  0.53821200181E-01 -0.11939722416E-01 -0.72171331304E-01  0.90819825718E-01  0.51100000000E-03 0. -1.
         11    1    4    4    0    0  0.17331781634E-01  0.64691186570E-02 -0.34378603793E-01  0.39043433130E-01  0.51100000000E-03 0.  1.
</event>
<event>
 8    1  0.1111182E+005  0.1043930E+01  0.7957747E-01            NaN
         13   -1    0    0    0    0  0.00000000000E+00  0.00000000000E+00  0.74505805969E-08  0.10566000000E+00  0.10566000000E+00 0.  1.
     999900   -1    0    0    0    0 -0.00000000000E+00 -0.00000000000E+00 -0.74505805969E-08  0.93827000000E+00  0.93827000000E+00 0.  1.
     999902    2    1    2    0    0  0.10892731450E-02 -0.19499503761E-03  0.23511699799E-01  0.10203922735E+01  0.10201207612E+01 0.  0.
     999903    2    3    3    0    0 -0.53266680706E-02 -0.45522653582E-01  0.12371421887E+00  0.13352345249E+00  0.20557700127E-01 0.  0.
         14    1    1    2    0    0 -0.10892731450E-02  0.19499503761E-03 -0.23511699799E-01  0.23537726451E-01  0.00000000000E+00 0. -1.
     999901    1    3    3    0    0  0.64159412156E-02  0.45327658545E-01 -0.10020251907E+00  0.88686882105E+00  0.88000000000E+00 0.  1.
        -11    1    4    4    0    0 -0.22408771750E-02 -0.21447931983E-01  0.86054915269E-01  0.88717218620E-01  0.51100000000E-03 0. -1.
         11    1    4    4    0    0 -0.30857908956E-02 -0.24074721599E-01  0.37659303598E-01  0.44806233874E-01  0.51100000000E-03 0.  1.
</event>
<event>
 8    1  0.1111182E+005  0.1043930E+01  0.7957747E-01            NaN
         13   -1    0    0    0    0  0.00000000000E+00  0.00000000000E+00  0.74505805969E-08  0.10566000000E+00  0.10566000000E+00 0. -1.
     999900   -1    0    0    0    0 -0.00000000000E+00 -0.00000000000E+00 -0.74505805969E-08  0.93827000000E+00  0.93827000000E+00 0.  1.
     999902    2    1    2    0    0  0.11855251683E-01 -0.98049728481E-02 -0.18751943091E-01  0.10196746943E+01  0.10193861694E+01 0.  0.
     999903    2    3    3    0    0 -0.87041989640E-01  0.86973571757E-01  0.27354063333E-01  0.12766992140E+00  0.20264597350E-01 0.  0.
         14    1    1    2    0    0 -0.11855251683E-01  0.98049728481E-02  0.18751943091E-01  0.24255305702E-01  0.00000000000E+00 0. -1.
     999901    1    3    3    0    0  0.98897241323E-01 -0.96778544606E-01 -0.46106006424E-01  0.89200477289E+00  0.88000000000E+00 0.  1.
        -11    1    4    4    0    0 -0.43931723998E-01  0.33344967934E-01  0.52876213495E-02  0.55408513069E-01  0.51100000000E-03 0.  1.
         11    1    4    4    0    0 -0.43110265642E-01  0.53628603824E-01  0.22066441983E-01  0.72261408335E-01  0.51100000000E-03 0. -1.
</event>
<event>
 8    1  0.1111182E+005  0.1043930E+01  0.7957747E-01            NaN
         13   -1    0    0    0    0  0.00000000000E+00  0.00000000000E+00  0.74505805969E-08  0.10566000000E+00  0.10566000000E+00 0.  1.
     999900   -1    0    0    0    0 -0.00000000000E+00 -0.00000000000E+00 -0.74505805969E-08  0.93827000000E+00  0.93827000000E+00 0.  1.
     999902    2    1    2    0    0  0.22946277139E-01 -0.37366229756E-02  0.49785837375E-02  0.10201543763E+01  0.10198772824E+01 0.  0.
     999903    2    3    3    0    0  0.39823884513E-01 -0.66719530563E-01 -0.10356909453E+00  0.13109065602E+00  0.20512562453E-01 0.  0.
         14    1    1    2    0    0 -0.22946277139E-01  0.37366229756E-02 -0.49785837375E-02  0.23775623690E-01  0.00000000000E+00 0. -1.
     999901    1    3    3    0    0 -0.16877607374E-01  0.62982907587E-01  0.10854767827E+00  0.88906372029E+00  0.88000000000E+00 0. -1.
        -11    1    4    4    0    0  0.25201910860E-01 -0.52941317466E-01 -0.64590431654E-01  0.87235912262E-01  0.51100000000E-03 0. -1.
         11    1    4    4    0    0  0.14621973653E-01 -0.13778213096E-01 -0.38978662874E-01  0.43854743758E-01  0.51100000000E-03 0.  1.
</event>
<event>
 8    1  0.1111182E+005  0.1043930E+01  0.7957747E-01            NaN
         13   -1    0    0    0    0  0.00000000000E+00  0.00000000000E+00  0.74505805969E-08  0.10566000000E+00  0.10566000000E+00 0. -1.
     999900   -1    0    0    0    0 -0.00000000000E+00 -0.00000000000E+00 -0.74505805969E-08  0.93827000000E+00  0.93827000000E+00 0. -1.
     999902    2    1    2    0    0 -0.16151884084E-01 -0.14093018554E-01 -0.66914767439E-02  0.10214739898E+01  0.10212271244E+01 0.  0.
     999903    2    3    3    0    0 -0.25425596071E-01  0.66024281715E-01 -0.10963096332E+00  0.13181038969E+00  0.18691281401E-01 0.  0.
         14    1    1    2    0    0  0.16151884084E-01  0.14093018554E-01  0.66914767439E-02  0.22456010163E-01  0.00000000000E+00 0. -1.
     999901    1    3    3    0    0  0.92737119872E-02 -0.80117300269E-01  0.10293948657E+00  0.88966360015E+00  0.88000000000E+00 0.  1.
        -11    1    4    4    0    0 -0.19914797414E-01  0.64385435678E-01 -0.10153369854E+00  0.12186647014E+00  0.51100000000E-03 0.  1.
         11    1    4    4    0    0 -0.55107986566E-02  0.16388460369E-02 -0.80972647781E-02  0.99439195518E-02  0.51100000000E-03 0. -1.
</event>
<event>
 8    1  0.1111182E+005  0.1043930E+01  0.7957747E-01            NaN
         13   -1    0    0    0    0  0.00000000000E+00  0.00000000000E+00  0.74505805969E-08  0.10566000000E+00  0.10566000000E+00 0. -1.
     999900   -1    0    0    0    0 -0.00000000000E+00 -0.00000000000E+00 -0.74505805969E-08  0.93827000000E+00  0.93827000000E+00 0. -1.
     999902    2    1    2    0    0  0.20627376226E-01  0.10271207882E-01 -0.49612388452E-02  0.10203588258E+01  0.10200865322E+01 0.  0.
     999903    2    3    3    0    0  0.12184035993E+00 -0.43459456461E-01 -0.21771542535E-01  0.13277016058E+00  0.20496775608E-01 0.  0.
         14    1    1    2    0    0 -0.20627376226E-01 -0.10271207882E-01  0.49612388452E-02  0.23571174180E-01  0.00000000000E+00 0. -1.
     999901    1    3    3    0    0 -0.10121298371E+00  0.53730664343E-01  0.16810303690E-01  0.88758866525E+00  0.88000000000E+00 0. -1.
        -11    1    4    4    0    0  0.63315863511E-01 -0.25603455172E-01 -0.15182940015E-02  0.68315458181E-01  0.51100000000E-03 0. -1.
         11    1    4    4    0    0  0.58524496422E-01 -0.17856001289E-01 -0.20253248534E-01  0.64454702394E-01  0.51100000000E-03 0.  1.
</event>
<event>
 8    1  0.1111182E+005  0.1043930E+01  0.7957747E-01            NaN
         13   -1    0    0    0    0  0.00000000000E+00  0.00000000000E+00  0.74505805969E-08  0.10566000000E+00  0.10566000000E+00 0. -1.
     999900   -1    0    0    0    0 -0.00000000000E+00 -0.00000000000E+00 -0.74505805969E-08  0.93827000000E+00  0.93827000000E+00 0.  1.
     999902    2    1    2    0    0  0.78795229512E-02  0.21906695604E-01 -0.48307337169E-02  0.10201534110E+01  0.10198762944E+01 0.  0.
     999903    2    3    3    0    0 -0.70849621421E-01  0.48830861621E-01  0.95943999821E-01  0.13050250433E+00  0.20531211198E-01 0.  0.
         14    1    1    2    0    0 -0.78795229512E-02 -0.21906695604E-01  0.48307337169E-02  0.23776588958E-01  0.00000000000E+00 0. -1.
     999901    1    3    3    0    0  0.78729144373E-01 -0.26924166017E-01 -0.10077473354E+00  0.88965090671E+00  0.88000000000E+00 0.  1.
        -11    1    4    4    0    0 -0.37496497119E-01  0.14900058963E-01  0.36969499397E-01  0.54726630263E-01  0.51100000000E-03 0.  1.
         11    1    4    4    0    0 -0.33353124303E-01  0.33930802658E-01  0.58974500424E-01  0.75775874069E-01  0.51100000000E-03 0. -1.
</event>
<event>
 8    1  0.1111182E+005  0.1043930E+01  0.7957747E-01            NaN
         13   -1    0    0    0    0  0.00000000000E+00  0.00000000000E+00  0.74505805969E-08  0.10566000000E+00  0.10566000000E+00 0.  1.
     999900   -1    0    0    0    0 -0.00000000000E+00 -0.00000000000E+00 -0.74505805969E-08  0.93827000000E+00  0.93827000000E+00 0.  1.
     999902    2    1    2    0    0 -0.31195143978E-01 -0.21747009135E-02  0.14030525365E-02  0.10126276856E+01  0.10121437619E+01 0.  0.
     999903    2    3    3    0    0 -0.87090798703E-01  0.60426655688E-01  0.65564063741E-01  0.12630952068E+00  0.20475854655E-01 0.  0.
         14    1    1    2    0    0  0.31195143978E-01  0.21747009135E-02 -0.14030525365E-02  0.31302314424E-01  0.00000000000E+00 0. -1.
     999901    1    3    3    0    0  0.55895654725E-01 -0.62601356601E-01 -0.64161011205E-01  0.88631816490E+00  0.88000000000E+00 0. -1.
        -11    1    4    4    0    0 -0.20074259280E-01  0.22949111159E-01  0.12418576803E-01  0.32925973933E-01  0.51100000000E-03 0. -1.
         11    1    4    4    0    0 -0.67016539423E-01  0.37477544528E-01  0.53145486938E-01  0.93383546747E-01  0.51100000000E-03 0.  1.
</event>
<event>
 8    1  0.1111182E+005  0.1043930E+01  0.7957747E-01            NaN
         13   -1    0    0    0    0  0.00000000000E+00  0.00000000000E+00  0.74505805969E-08  0.10566000000E+00  0.10566000000E+00 0.  1.
     999900   -1    0    0    0    0 -0.00000000000E+00 -0.00000000000E+00 -0.74505805969E-08  0.93827000000E+00  0.93827000000E+00 0.  1.
     999902    2    1    2    0    0 -0.16453518660E-01 -0.14201361570E-01  0.11972177553E-02  0.10221623571E+01  0.10219305524E+01 0.  0.
     999903    2    3    3    0    0 -0.77316373578E-01  0.97451012972E-01  0.40106804867E-01  0.13217106736E+00  0.19649776057E-01 0.  0.
         14    1    1    2    0    0  0.16453518660E-01  0.14201361570E-01 -0.11972177553E-02  0.21767642892E-01  0.00000000000E+00 0. -1.
     999901    1    3    3    0    0  0.60862854918E-01 -0.11165237454E+00 -0.38909587112E-01  0.88999128974E+00  0.88000000000E+00 0.  1.
        -11    1    4    4    0    0 -0.16673972314E-01  0.10725466403E-01  0.96148811705E-02  0.22040055427E-01  0.51100000000E-03 0. -1.
         11    1    4    4    0    0 -0.60642401264E-01  0.86725546568E-01  0.30491923696E-01  0.11013101194E+00  0.51100000000E-03 0.  1.
</event>
<event>
 8    1  0.1111182E+005  0.1043930E+01  0.7957747E-01            NaN
         13   -1    0    0    0    0  0.00000000000E+00  0.00000000000E+00  0.74505805969E-08  0.10566000000E+00  0.10566000000E+00 0.  1.
     999900   -1    0    0    0    0 -0.00000000000E+00 -0.00000000000E+00 -0.74505805969E-08  0.93827000000E+00  0.93827000000E+00 0.  1.
     999902    2    1    2    0    0  0.64602270716E-02 -0.21017681132E-01  0.97251631140E-02  0.10198871996E+01  0.10196037680E+01 0.  0.
     999903    2    3    3    0    0 -0.57264437461E-02  0.11735949325E+00  0.47186523176E-01  0.12820333698E+00  0.20086931815E-01 0.  0.
         14    1    1    2    0    0 -0.64602270716E-02  0.21017681132E-01 -0.97251631140E-02  0.24042800410E-01  0.00000000000E+00 0. -1.
     999901    1    3    3    0    0  0.12186670818E-01 -0.13837717438E+00 -0.37461360062E-01  0.89168386261E+00  0.88000000000E+00 0.  1.
        -11    1    4    4    0    0 -0.19831149286E-02  0.46732382722E-01  0.83580402249E-02  0.47518062851E-01  0.51100000000E-03 0. -1.
         11    1    4    4    0    0 -0.37433288175E-02  0.70627110530E-01  0.38828482951E-01  0.80685274132E-01  0.51100000000E-03 0.  1.
</event>
<event>
 8    1  0.1111182E+005  0.1043930E+01  0.7957747E-01            NaN
         13   -1    0    0    0    0  0.00000000000E+00  0.00000000000E+00  0.74505805969E-08  0.10566000000E+00  0.10566000000E+00 0. -1.
     999900   -1    0    0    0    0 -0.00000000000E+00 -0.00000000000E+00 -0.74505805969E-08  0.93827000000E+00  0.93827000000E+00 0.  1.
     999902    2    1    2    0    0  0.71443432382E-02 -0.82335683263E-02 -0.28490920343E-01  0.10134248229E+01  0.10129655995E+01 0.  0.
     999903    2    3    3    0    0  0.10608130367E+00 -0.63800504189E-01 -0.12208431804E-01  0.12598957122E+00  0.20014467897E-01 0.  0.
         14    1    1    2    0    0 -0.71443432382E-02  0.82335683263E-02  0.28490920343E-01  0.30505177096E-01  0.00000000000E+00 0. -1.
     999901    1    3    3    0    0 -0.98936960433E-01  0.55566935863E-01 -0.16282488539E-01  0.88743525169E+00  0.88000000000E+00 0.  1.
        -11    1    4    4    0    0  0.62124344325E-01 -0.36448147314E-01 -0.16955462392E-01  0.73997637978E-01  0.51100000000E-03 0.  1.
         11    1    4    4    0    0  0.43956959347E-01 -0.27352356875E-01  0.47470305881E-02  0.51991933240E-01  0.51100000000E-03 0. -1.
</event>
<event>
 8    1  0.1111182E+005  0.1043930E+01  0.7957747E-01            NaN
         13   -1    0    0    0    0  0.00000000000E+00  0.00000000000E+00  0.74505805969E-08  0.10566000000E+00  0.10566000000E+00 0. -1.
     999900   -1    0    0    0    0 -0.00000000000E+00 -0.00000000000E+00 -0.74505805969E-08  0.93827000000E+00  0.93827000000E+00 0.  1.
     999902    2    1    2    0    0 -0.26577706699E-02  0.10092471882E-01 -0.21060040445E-01  0.10204258081E+01  0.10201550778E+01 0.  0.
     999903    2    3    3    0    0  0.79282038567E-01  0.81989048682E-01  0.58871034739E-01  0.13010439036E+00  0.21295725315E-01 0.  0.
         14    1    1    2    0    0  0.26577706699E-02 -0.10092471882E-01  0.21060040445E-01  0.23504191907E-01  0.00000000000E+00 0. -1.
     999901    1    3    3    0    0 -0.81939809237E-01 -0.71896576800E-01 -0.79931075185E-01  0.89032141773E+00  0.88000000000E+00 0.  1.
        -11    1    4    4    0    0  0.25757062465E-01  0.21698683086E-01  0.75055185758E-02  0.34508738670E-01  0.51100000000E-03 0.  1.
         11    1    4    4    0    0  0.53524976102E-01  0.60290365596E-01  0.51365516164E-01  0.95595651691E-01  0.51100000000E-03 0. -1.
</event>
<event>
 8    1  0.1111182E+005  0.1043930E+01  0.7957747E-01            NaN
         13   -1    0    0    0    0  0.00000000000E+00  0.00000000000E+00  0.74505805969E-08  0.10566000000E+00  0.10566000000E+00 0. -1.
     999900   -1    0    0    0    0 -0.00000000000E+00 -0.00000000000E+00 -0.74505805969E-08  0.93827000000E+00  0.93827000000E+00 0.  1.
     999902    2    1    2    0    0  0.81304418563E-02  0.15507777678E-02 -0.22464249037E-01  0.10199894177E+01  0.10197084195E+01 0.  0.
     999903    2    3    3    0    0  0.19695142313E-01  0.76045350451E-01 -0.10530007736E+00  0.13289023603E+00  0.20022851519E-01 0.  0.
         14    1    1    2    0    0 -0.81304418563E-02 -0.15507777678E-02  0.22464249037E-01  0.23940582309E-01  0.00000000000E+00 0. -1.
     999901    1    3    3    0    0 -0.11564700456E-01 -0.74494572683E-01  0.82835828324E-01  0.88709918166E+00  0.88000000000E+00 0.  1.
        -11    1    4    4    0    0  0.35576801394E-02  0.50796727392E-01 -0.62040989984E-01  0.80264002896E-01  0.51100000000E-03 0. -1.
         11    1    4    4    0    0  0.16137462173E-01  0.25248623058E-01 -0.43259087378E-01  0.52626233131E-01  0.51100000000E-03 0.  1.
</event>
<event>
 8    1  0.1111182E+005  0.1043930E+01  0.7957747E-01            NaN
         13   -1    0    0    0    0  0.00000000000E+00  0.00000000000E+00  0.74505805969E-08  0.10566000000E+00  0.10566000000E+00 0. -1.
     999900   -1    0    0    0    0 -0.00000000000E+00 -0.00000000000E+00 -0.74505805969E-08  0.93827000000E+00  0.93827000000E+00 0.  1.
     999902    2    1    2    0    0  0.10563265177E-01 -0.20831016488E-01 -0.48665150839E-02  0.10200721546E+01  0.10197931181E+01 0.  0.
     999903    2    3    3    0    0  0.68722149452E-01 -0.11005189285E+00 -0.24193385438E-01  0.13344012915E+00  0.19667110171E-01 0.  0.
         14    1    1    2    0    0 -0.10563265177E-01  0.20831016488E-01  0.48665150839E-02  0.23857845422E-01  0.00000000000E+00 0. -1.
     999901    1    3    3    0    0 -0.58158884275E-01  0.89220876364E-01  0.19326870354E-01  0.88663202543E+00  0.88000000000E+00 0.  1.
        -11    1    4    4    0    0  0.12971969898E-01 -0.21957295152E-01  0.30370082810E-02  0.25688116975E-01  0.51100000000E-03 0. -1.
         11    1    4    4    0    0  0.55750179554E-01 -0.88094597700E-01 -0.27230393718E-01  0.10775201217E+00  0.51100000000E-03 0.  1.
</event>
<event>
 8    1  0.1111182E+005  0.1043930E+01  0.7957747E-01            NaN
         13   -1    0    0    0    0  0.00000000000E+00  0.00000000000E+00  0.74505805969E-08  0.10566000000E+00  0.10566000000E+00 0.  1.
     999900   -1    0    0    0    0 -0.00000000000E+00 -0.00000000000E+00 -0.74505805969E-08  0.93827000000E+00  0.93827000000E+00 0. -1.
     999902    2    1    2    0    0 -0.22694407290E-01 -0.32595897151E-02  0.22163599996E-01  0.10120413467E+01  0.10115388283E+01 0.  0.
     999903    2    3    3    0    0 -0.62485499972E-01  0.10494437222E+00  0.13383905718E-01  0.12447810301E+00  0.19947687347E-01 0.  0.
         14    1    1    2    0    0  0.22694407290E-01  0.32595897151E-02 -0.22163599996E-01  0.31888653345E-01  0.00000000000E+00 0. -1.
     999901    1    3    3    0    0  0.39791092682E-01 -0.10820396193E+00  0.87796942777E-02  0.88756324364E+00  0.88000000000E+00 0.  1.
        -11    1    4    4    0    0 -0.60580927075E-01  0.90122025087E-01  0.93700880164E-02  0.10899581552E+00  0.51100000000E-03 0. -1.
         11    1    4    4    0    0 -0.19045728970E-02  0.14822347130E-01  0.40138177018E-02  0.15482287490E-01  0.51100000000E-03 0.  1.
</event>
<event>
 8    1  0.1111182E+005  0.1043930E+01  0.7957747E-01            NaN
         13   -1    0    0    0    0  0.00000000000E+00  0.00000000000E+00  0.74505805969E-08  0.10566000000E+00  0.10566000000E+00 0.  1.
     999900   -1    0    0    0    0 -0.00000000000E+00 -0.00000000000E+00 -0.74505805969E-08  0.93827000000E+00  0.93827000000E+00 0. -1.
     999902    2    1    2    0    0  0.56775189643E-02 -0.23041452488E-01 -0.16581512987E-02  0.10201415108E+01  0.10198641134E+01 0.  0.
     999903    2    3    3    0    0  0.91700326277E-01 -0.94500921603E-01 -0.28357125936E-02  0.13306329226E+00  0.18932101225E-01 0.  0.
         14    1    1    2    0    0 -0.56775189643E-02  0.23041452488E-01  0.16581512987E-02  0.23788489235E-01  0.00000000000E+00 0.  1.
     999901    1    3    3    0    0 -0.86022807313E-01  0.71459469115E-01  0.11775612949E-02  0.88707821851E+00  0.88000000000E+00 0. -1.
        -11    1    4    4    0    0  0.67918972172E-01 -0.75037900021E-01  0.50326544313E-02  0.10133736701E+00  0.51100000000E-03 0. -1.
         11    1    4    4    0    0  0.23781354105E-01 -0.19463021582E-01 -0.78683670249E-02  0.31725925248E-01  0.51100000000E-03 0.  1.
</event>
<event>
 8    1  0.1111182E+005  0.1043930E+01  0.7957747E-01            NaN
         13   -1    0    0    0    0  0.00000000000E+00  0.00000000000E+00  0.74505805969E-08  0.10566000000E+00  0.10566000000E+00 0.  1.
     999900   -1    0    0    0    0 -0.00000000000E+00 -0.00000000000E+00 -0.74505805969E-08  0.93827000000E+00  0.93827000000E+00 0.  1.
     999902    2    1    2    0    0 -0.13256729603E-01  0.18643408261E-01 -0.63345540199E-02  0.10201930220E+01  0.10199168387E+01 0.  0.
     999903    2    3    3    0    0  0.50662194779E-01 -0.65880865995E-01  0.95335466414E-01  0.12802332125E+00  0.19853794169E-01 0.  0.
         14    1    1    2    0    0  0.13256729603E-01 -0.18643408261E-01  0.63345540199E-02  0.23736978029E-01  0.00000000000E+00 0. -1.
     999901    1    3    3    0    0 -0.63918924382E-01  0.84524274255E-01 -0.10167002043E+00  0.89216970072E+00  0.88000000000E+00 0.  1.
        -11    1    4    4    0    0  0.20840097666E-01 -0.15145901435E-01  0.37576279661E-01  0.45562549480E-01  0.51100000000E-03 0.  1.
         11    1    4    4    0    0  0.29822097114E-01 -0.50734964559E-01  0.57759186753E-01  0.82460771768E-01  0.51100000000E-03 0. -1.
</event>
<event>
 8    1  0.1111182E+005  0.1043930E+01  0.7957747E-01            NaN
         13   -1    0    0    0    0  0.00000000000E+00  0.00000000000E+00  0.74505805969E-08  0.10566000000E+00  0.10566000000E+00 0.  1.
     999900   -1    0    0    0    0 -0.00000000000E+00 -0.00000000000E+00 -0.74505805969E-08  0.93827000000E+00  0.93827000000E+00 0.  1.
     999902    2    1    2    0    0  0.19199283454E-01  0.13143251190E-01  0.90142999835E-02  0.10189777428E+01  0.10186721873E+01 0.  0.
     999903    2    3    3    0    0 -0.28610660483E-01 -0.85091667358E-01  0.89682483168E-01  0.12856028688E+00  0.20630991951E-01 0.  0.
         14    1    1    2    0    0 -0.19199283454E-01 -0.13143251190E-01 -0.90142999835E-02  0.24952257236E-01  0.00000000000E+00 0. -1.
     999901    1    3    3    0    0  0.47809943936E-01  0.98234918548E-01 -0.80668183185E-01  0.89041745588E+00  0.88000000000E+00 0.  1.
        -11    1    4    4    0    0 -0.23946695711E-01 -0.78105920247E-01  0.87814948379E-01  0.11994042393E+00  0.51100000000E-03 0. -1.
         11    1    4    4    0    0 -0.46639647720E-02 -0.69857471111E-02  0.18675347897E-02  0.86198629505E-02  0.51100000000E-03 0.  1.
</event>
<event>
 8    1  0.1111182E+005  0.1043930E+01  0.7957747E-01            NaN
         13   -1    0    0    0    0  0.00000000000E+00  0.00000000000E+00  0.74505805969E-08  0.10566000000E+00  0.10566000000E+00 0. -1.
     999900   -1    0    0    0    0 -0.00000000000E+00 -0.00000000000E+00 -0.74505805969E-08  0.93827000000E+00  0.93827000000E+00 0.  1.
     999902    2    1    2    0    0  0.11827662673E-01 -0.18357148609E-01 -0.50041745592E-02  0.10215264228E+01  0.10212807215E+01 0.  0.
     999903    2    3    3    0    0 -0.28815581933E-01  0.30817998989E-02 -0.12708559590E+00  0.13191112655E+00  0.20247502795E-01 0.  0.
         14    1    1    2    0    0 -0.11827662673E-01  0.18357148609E-01  0.50041745592E-02  0.22403577223E-01  0.00000000000E+00 0. -1.
     999901    1    3    3    0    0  0.40643244606E-01 -0.21438948508E-01  0.12208142134E+00  0.88961529623E+00  0.88000000000E+00 0. -1.
        -11    1    4    4    0    0  0.28776144741E-02  0.71365358092E-03 -0.58536739179E-02  0.65815336991E-02  0.51100000000E-03 0.  1.
         11    1    4    4    0    0 -0.31693196407E-01  0.23681463180E-02 -0.12123192198E+00  0.12532959285E+00  0.51100000000E-03 0. -1.
</event>
<event>
 8    1  0.1111182E+005  0.1043930E+01  0.7957747E-01            NaN
         13   -1    0    0    0    0  0.00000000000E+00  0.00000000000E+00  0.74505805969E-08  0.10566000000E+00  0.10566000000E+00 0. -1.
     999900   -1    0    0    0    0 -0.00000000000E+00 -0.00000000000E+00 -0.74505805969E-08  0.93827000000E+00  0.93827000000E+00 0.  1.
     999902    2    1    2    0    0 -0.16504867502E-01 -0.56617575600E-02 -0.14759510217E-01  0.10210759130E+01  0.10208201168E+01 0.  0.
     999903    2    3    3    0    0  0.21932791131E-01  0.12651719799E+00  0.73216726524E-02  0.13010099276E+00  0.19621740817E-01 0.  0.
         14    1    1    2    0    0  0.16504867502E-01  0.56617575600E-02  0.14759510217E-01  0.22854086982E-01  0.00000000000E+00 0. -1.
     999901    1    3    3    0    0 -0.38437658633E-01 -0.13217895555E+00 -0.22081182869E-01  0.89097492026E+00  0.88000000000E+00 0. -1.
        -11    1    4    4    0    0  0.12349036162E-01  0.60144125272E-01 -0.61153886114E-02  0.61704729136E-01  0.51100000000E-03 0. -1.
         11    1    4    4    0    0  0.95837549688E-02  0.66373072718E-01  0.13437061264E-01  0.68396263624E-01  0.51100000000E-03 0.  1.
</event>
<event>
 8    1  0.1111182E+005  0.1043930E+01  0.7957747E-01            NaN
         13   -1    0    0    0    0  0.00000000000E+00  0.00000000000E+00  0.74505805969E-08  0.10566000000E+00  0.10566000000E+00 0. -1.
     999900   -1    0    0    0    0 -0.00000000000E+00 -0.00000000000E+00 -0.74505805969E-08  0.93827000000E+00  0.93827000000E+00 0.  1.
     999902    2    1    2    0    0 -0.19275559203E-02 -0.23069644911E-01  0.10299769294E-01  0.10185920988E+01  0.10182769047E+01 0.  0.
     999903    2    3    3    0    0  0.83611264957E-01 -0.97452576959E-01 -0.14664973843E-01  0.13097002336E+00  0.21218793050E-01 0.  0.
         14    1    1    2    0    0  0.19275559203E-02  0.23069644911E-01 -0.10299769294E-01  0.25337901169E-01  0.00000000000E+00 0.  1.
     999901    1    3    3    0    0 -0.85538820877E-01  0.74382932048E-01  0.24964743137E-01  0.88762207547E+00  0.88000000000E+00 0.  1.
        -11    1    4    4    0    0  0.47714537696E-01 -0.39391479424E-01 -0.63019535496E-02  0.62195992623E-01  0.51100000000E-03 0. -1.
         11    1    4    4    0    0  0.35896727261E-01 -0.58061097535E-01 -0.83630202938E-02  0.68774030741E-01  0.51100000000E-03 0.  1.
</event>
<event>
 8    1  0.1111182E+005  0.1043930E+01  0.7957747E-01            NaN
         13   -1    0    0    0    0  0.00000000000E+00  0.00000000000E+00  0.74505805969E-08  0.10566000000E+00  0.10566000000E+00 0. -1.
     999900   -1    0    0    0    0 -0.00000000000E+00 -0.00000000000E+00 -0.74505805969E-08  0.93827000000E+00  0.93827000000E+00 0.  1.
     999902    2    1    2    0    0  0.20011463637E-01 -0.12034981472E-01  0.13579904403E-02  0.10205388993E+01  0.10202707980E+01 0.  0.
     999903    2    3    3    0    0  0.17717835896E-01  0.56140867813E-01 -0.11453358563E+00  0.13032315880E+00  0.20011614965E-01 0.  0.
         14    1    1    2    0    0 -0.20011463637E-01  0.12034981472E-01 -0.13579904403E-02  0.23391100743E-01  0.00000000000E+00 0. -1.
     999901    1    3    3    0    0  0.22936277410E-02 -0.68175849285E-01  0.11589157607E+00  0.89021574046E+00  0.88000000000E+00 0. -1.
        -11    1    4    4    0    0  0.66833946246E-02  0.21635968690E-01 -0.65858600240E-01  0.69644807785E-01  0.51100000000E-03 0.  1.
         11    1    4    4    0    0  0.11034441271E-01  0.34504899123E-01 -0.48674985395E-01  0.60678351014E-01  0.51100000000E-03 0. -1.
</event>
<event>
 8    1  0.1111182E+005  0.1043930E+01  0.7957747E-01            NaN
         13   -1    0    0    0    0  0.00000000000E+00  0.00000000000E+00  0.74505805969E-08  0.10566000000E+00  0.10566000000E+00 0.  1.
     999900   -1    0    0    0    0 -0.00000000000E+00 -0.00000000000E+00 -0.74505805969E-08  0.93827000000E+00  0.93827000000E+00 0.  1.
     999902    2    1    2    0    0 -0.12042638251E-01 -0.17703765074E-01 -0.23051183243E-01  0.10124688258E+01  0.10119798999E+01 0.  0.
     999903    2    3    3    0    0 -0.20787929253E-01 -0.12066252887E+00  0.54310999449E-02  0.12596545433E+00  0.29089774174E-01 0.  0.
         14    1    1    2    0    0  0.12042638251E-01  0.17703765074E-01  0.23051183243E-01  0.31461174211E-01  0.00000000000E+00 0.  1.
     999901    1    3    3    0    0  0.87452910024E-02  0.10295876380E+00 -0.28482283188E-01  0.88650337146E+00  0.88000000000E+00 0. -1.
        -11    1    4    4    0    0 -0.14302344973E-01 -0.36306688555E-01 -0.92200936622E-02  0.40099924609E-01  0.51100000000E-03 0. -1.
         11    1    4    4    0    0 -0.64855842801E-02 -0.84355840315E-01  0.14651193607E-01  0.85865529718E-01  0.51100000000E-03 0.  1.
</event>
<event>
 8    1  0.1111182E+005  0.1043930E+01  0.7957747E-01            NaN
         13   -1    0    0    0    0  0.00000000000E+00  0.00000000000E+00  0.74505805969E-08  0.10566000000E+00  0.10566000000E+00 0. -1.
     999900   -1    0    0    0    0 -0.00000000000E+00 -0.00000000000E+00 -0.74505805969E-08  0.93827000000E+00  0.93827000000E+00 0.  1.
     999902    2    1    2    0    0  0.23888069220E-01  0.15403661450E-02 -0.14136252937E-03  0.10199919014E+01  0.10197109622E+01 0.  0.
     999903    2    3    3    0    0 -0.77063665988E-01  0.80032047265E-01 -0.61605009636E-01  0.12862779135E+00  0.20149300030E-01 0.  0.
         14    1    1    2    0    0 -0.23888069220E-01 -0.15403661450E-02  0.14136252937E-03  0.23938098552E-01  0.00000000000E+00 0.  1.
     999901    1    3    3    0    0  0.10095173521E+00 -0.78491681120E-01  0.61463647107E-01  0.89136411009E+00  0.88000000000E+00 0. -1.
        -11    1    4    4    0    0 -0.32665512051E-01  0.25469086873E-01 -0.14161123693E-01  0.43777946605E-01  0.51100000000E-03 0.  1.
         11    1    4    4    0    0 -0.44398153937E-01  0.54562960392E-01 -0.47443885943E-01  0.84849844750E-01  0.51100000000E-03 0. -1.
</event>
<event>
 8    1  0.1111182E+005  0.1043930E+01  0.7957747E-01            NaN
         13   -1    0    0    0    0  0.00000000000E+00  0.00000000000E+00  0.74505805969E-08  0.10566000000E+00  0.10566000000E+00 0. -1.
     999900   -1    0    0    0    0 -0.00000000000E+00 -0.00000000000E+00 -0.74505805969E-08  0.93827000000E+00  0.93827000000E+00 0.  1.
     999902    2    1    2    0    0 -0.23612910193E-01 -0.33226201256E-02  0.21508046471E-02  0.10199876673E+01  0.10197066275E+01 0.  0.
     999903    2    3    3    0    0  0.34651931041E-01  0.99475188916E-01  0.72280546808E-01  0.12932478948E+00  0.20108560197E-01 0.  0.
         14    1    1    2    0    0  0.23612910193E-01  0.33226201256E-02 -0.21508046471E-02  0.23942332654E-01  0.00000000000E+00 0.  1.
     999901    1    3    3    0    0 -0.58264841234E-01 -0.10279780904E+00 -0.70129742161E-01  0.89066287786E+00  0.88000000000E+00 0.  1.
        -11    1    4    4    0    0 -0.99036711113E-03  0.21127332505E-01  0.13649022185E-01  0.25177409188E-01  0.51100000000E-03 0.  1.
         11    1    4    4    0    0  0.35642298153E-01  0.78347856411E-01  0.58631524623E-01  0.10414738030E+00  0.51100000000E-03 0. -1.
</event>
<event>
 8    1  0.1111182E+005  0.1043930E+01  0.7957747E-01            NaN
         13   -1    0    0    0    0  0.00000000000E+00  0.00000000000E+00  0.74505805969E-08  0.10566000000E+00  0.10566000000E+00 0.  1.
     999900   -1    0    0    0    0 -0.00000000000E+00 -0.00000000000E+00 -0.74505805969E-08  0.93827000000E+00  0.93827000000E+00 0. -1.
     999902    2    1    2    0    0  0.12502545951E-01  0.80136239420E-02  0.17523397726E-01  0.10209604268E+01  0.10207020093E+01 0.  0.
     999903    2    3    3    0    0 -0.12520712662E-01 -0.26308564426E-01 -0.12371596348E+00  0.12868651527E+00  0.20141270727E-01 0.  0.
         14    1    1    2    0    0 -0.12502545951E-01 -0.80136239420E-02 -0.17523397726E-01  0.22969573174E-01  0.00000000000E+00 0. -1.
     999901    1    3    3    0    0  0.25023258613E-01  0.34322188368E-01  0.14123936120E+00  0.89227391155E+00  0.88000000000E+00 0.  1.
        -11    1    4    4    0    0 -0.51494504733E-03  0.19144440592E-03 -0.40913162802E-01  0.40920041921E-01  0.51100000000E-03 0. -1.
         11    1    4    4    0    0 -0.12005767614E-01 -0.26500008832E-01 -0.82802800674E-01  0.87766473352E-01  0.51100000000E-03 0.  1.
</event>
<event>
 8    1  0.1111182E+005  0.1043930E+01  0.7957747E-01            NaN
         13   -1    0    0    0    0  0.00000000000E+00  0.00000000000E+00  0.74505805969E-08  0.10566000000E+00  0.10566000000E+00 0. -1.
     999900   -1    0    0    0    0 -0.00000000000E+00 -0.00000000000E+00 -0.74505805969E-08  0.93827000000E+00  0.93827000000E+00 0. -1.
     999902    2    1    2    0    0 -0.22467388971E-01 -0.42422598849E-02  0.95406788064E-02  0.10191549140E+01  0.10188537352E+01 0.  0.
     999903    2    3    3    0    0 -0.46938681212E-02 -0.30652746466E-01 -0.12353394436E+00  0.12858079174E+00  0.17628423956E-01 0.  0.
         14    1    1    2    0    0  0.22467388971E-01  0.42422598849E-02 -0.95406788064E-02  0.24775086038E-01  0.00000000000E+00 0. -1.
     999901    1    3    3    0    0 -0.17773520849E-01  0.26410486581E-01  0.13307462317E+00  0.89057412222E+00  0.88000000000E+00 0.  1.
        -11    1    4    4    0    0 -0.81948189321E-02 -0.26027118436E-01 -0.77194448742E-01  0.81876797623E-01  0.51100000000E-03 0.  1.
         11    1    4    4    0    0  0.35009508109E-02 -0.46256280306E-02 -0.46339495617E-01  0.46703994115E-01  0.51100000000E-03 0. -1.
</event>
<event>
 8    1  0.1111182E+005  0.1043930E+01  0.7957747E-01            NaN
         13   -1    0    0    0    0  0.00000000000E+00  0.00000000000E+00  0.74505805969E-08  0.10566000000E+00  0.10566000000E+00 0. -1.
     999900   -1    0    0    0    0 -0.00000000000E+00 -0.00000000000E+00 -0.74505805969E-08  0.93827000000E+00  0.93827000000E+00 0. -1.
     999902    2    1    2    0    0 -0.19700608552E-01 -0.47977244786E-02  0.13170871775E-01  0.10197514144E+01  0.10194647337E+01 0.  0.
     999903    2    3    3    0    0  0.92012435793E-01 -0.86707613206E-01 -0.13149641548E-01  0.12852652497E+00  0.19017255833E-01 0.  0.
         14    1    1    2    0    0  0.19700608552E-01  0.47977244786E-02 -0.13170871775E-01  0.24178585583E-01  0.00000000000E+00 0. -1.
     999901    1    3    3    0    0 -0.11171304434E+00  0.81909888728E-01  0.26320513323E-01  0.89122488945E+00  0.88000000000E+00 0.  1.
        -11    1    4    4    0    0  0.55191159054E-01 -0.58058390367E-01 -0.20368850776E-03  0.80107074217E-01  0.51100000000E-03 0. -1.
         11    1    4    4    0    0  0.36821276739E-01 -0.28649222840E-01 -0.12945953040E-01  0.48419450752E-01  0.51100000000E-03 0.  1.
</event>
<event>
 8    1  0.1111182E+005  0.1043930E+01  0.7957747E-01            NaN
         13   -1    0    0    0    0  0.00000000000E+00  0.00000000000E+00  0.74505805969E-08  0.10566000000E+00  0.10566000000E+00 0.  1.
     999900   -1    0    0    0    0 -0.00000000000E+00 -0.00000000000E+00 -0.74505805969E-08  0.93827000000E+00  0.93827000000E+00 0. -1.
     999902    2    1    2    0    0 -0.78614077096E-02 -0.21137063478E-01 -0.59685421276E-02  0.10206018908E+01  0.10203352483E+01 0.  0.
     999903    2    3    3    0    0 -0.66419188466E-01 -0.10311168723E+00  0.47052646155E-01  0.13326875210E+00  0.22429447995E-01 0.  0.
         14    1    1    2    0    0  0.78614077096E-02  0.21137063478E-01  0.59685421276E-02  0.23328109198E-01  0.00000000000E+00 0.  1.
     999901    1    3    3    0    0  0.58557780756E-01  0.81974623750E-01 -0.53021188282E-01  0.88733313870E+00  0.88000000000E+00 0. -1.
        -11    1    4    4    0    0 -0.44758730714E-01 -0.84369037792E-01  0.41268300338E-01  0.10404235795E+00  0.51100000000E-03 0. -1.
         11    1    4    4    0    0 -0.21660457752E-01 -0.18742649436E-01  0.57843458173E-02  0.29226394158E-01  0.51100000000E-03 0.  1.
</event>
<event>
 8    1  0.1111182E+005  0.1043930E+01  0.7957747E-01            NaN
         13   -1    0    0    0    0  0.00000000000E+00  0.00000000000E+00  0.74505805969E-08  0.10566000000E+00  0.10566000000E+00 0. -1.
     999900   -1    0    0    0    0 -0.00000000000E+00 -0.00000000000E+00 -0.74505805969E-08  0.93827000000E+00  0.93827000000E+00 0.  1.
     999902    2    1    2    0    0 -0.72724811190E-02 -0.22642759577E-01 -0.49476286300E-02  0.10196387964E+01  0.10193494065E+01 0.  0.
     999903    2    3    3    0    0  0.72275462330E-02  0.52577744018E-01 -0.11616536136E+00  0.12933673585E+00  0.20419193715E-01 0.  0.
         14    1    1    2    0    0  0.72724811190E-02  0.22642759577E-01  0.49476286300E-02  0.24291203592E-01  0.00000000000E+00 0. -1.
     999901    1    3    3    0    0 -0.14500027352E-01 -0.75220503594E-01  0.11121773273E+00  0.89030206055E+00  0.88000000000E+00 0. -1.
        -11    1    4    4    0    0 -0.44097280564E-02  0.57631339853E-02 -0.26937396992E-01  0.27902399405E-01  0.51100000000E-03 0. -1.
         11    1    4    4    0    0  0.11637274289E-01  0.46814610032E-01 -0.89227964364E-01  0.10143433645E+00  0.51100000000E-03 0.  1.
</event>
<event>
 8    1  0.1111182E+005  0.1043930E+01  0.7957747E-01            NaN
         13   -1    0    0    0    0  0.00000000000E+00  0.00000000000E+00  0.74505805969E-08  0.10566000000E+00  0.10566000000E+00 0. -1.
     999900   -1    0    0    0    0 -0.00000000000E+00 -0.00000000000E+00 -0.74505805969E-08  0.93827000000E+00  0.93827000000E+00 0. -1.
     999902    2    1    2    0    0 -0.84214817380E-02  0.27865948995E-01 -0.20179382679E-02  0.10147494492E+01  0.10143297985E+01 0.  0.
     999903    2    3    3    0    0 -0.17073733933E-02 -0.11690825915E+00  0.29701333165E-01  0.12233095841E+00  0.20303645273E-01 0.  0.
         14    1    1    2    0    0  0.84214817380E-02 -0.27865948995E-01  0.20179382679E-02  0.29180550764E-01  0.00000000000E+00 0.  1.
     999901    1    3    3    0    0 -0.67141083447E-02  0.14477420814E+00 -0.31719271433E-01  0.89241849083E+00  0.88000000000E+00 0.  1.
        -11    1    4    4    0    0  0.43939985247E-02 -0.91842995875E-01  0.29371471574E-01  0.96526615904E-01  0.51100000000E-03 0.  1.
         11    1    4    4    0    0 -0.61013719180E-02 -0.25065263274E-01  0.32986159095E-03  0.25804342502E-01  0.51100000000E-03 0. -1.
</event>
<event>
 8    1  0.1111182E+005  0.1043930E+01  0.7957747E-01            NaN
         13   -1    0    0    0    0  0.00000000000E+00  0.00000000000E+00  0.74505805969E-08  0.10566000000E+00  0.10566000000E+00 0. -1.
     999900   -1    0    0    0    0 -0.00000000000E+00 -0.00000000000E+00 -0.74505805969E-08  0.93827000000E+00  0.93827000000E+00 0.  1.
     999902    2    1    2    0    0  0.10989787942E-01 -0.18942039174E-01  0.90590367203E-02  0.10202310035E+01  0.10199557138E+01 0.  0.
     999903    2    3    3    0    0  0.10121069131E+00 -0.77900585699E-01  0.32795549261E-01  0.13333791886E+00  0.19782499023E-01 0.  0.
         14    1    1    2    0    0 -0.10989787942E-01  0.18942039174E-01 -0.90590367203E-02  0.23698996463E-01  0.00000000000E+00 0.  1.
     999901    1    3    3    0    0 -0.90220903369E-01  0.58958546525E-01 -0.23736512541E-01  0.88689308467E+00  0.88000000000E+00 0. -1.
        -11    1    4    4    0    0  0.50695121539E-01 -0.48884061117E-01  0.11780530405E-01  0.71405103436E-01  0.51100000000E-03 0. -1.
         11    1    4    4    0    0  0.50515569772E-01 -0.29016524583E-01  0.21015018856E-01  0.61932815428E-01  0.51100000000E-03 0.  1.
</event>
<event>
 8    1  0.1111182E+005  0.1043930E+01  0.7957747E-01            NaN
         13   -1    0    0    0    0  0.00000000000E+00  0.00000000000E+00  0.74505805969E-08  0.10566000000E+00  0.10566000000E+00 0. -1.
     999900   -1    0    0    0    0 -0.00000000000E+00 -0.00000000000E+00 -0.74505805969E-08  0.93827000000E+00  0.93827000000E+00 0.  1.
     999902    2    1    2    0    0  0.49235122641E-02  0.33062929977E-02  0.22067684085E-01  0.10210792839E+01  0.10208235640E+01 0.  0.
     999903    2    3    3    0    0 -0.71409491618E-02 -0.12684294778E+00 -0.19954096675E-01  0.13043333505E+00  0.21784452325E-01 0.  0.
         14    1    1    2    0    0 -0.49235122641E-02 -0.33062929977E-02 -0.22067684085E-01  0.22850716122E-01  0.00000000000E+00 0.  1.
     999901    1    3    3    0    0  0.12064461426E-01  0.13014924077E+00  0.42021780760E-01  0.89064594883E+00  0.88000000000E+00 0. -1.
        -11    1    4    4    0    0 -0.50621004637E-02 -0.53417504829E-02 -0.10280442469E-02  0.74482988191E-02  0.51100000000E-03 0. -1.
         11    1    4    4    0    0 -0.20788486981E-02 -0.12150119729E+00 -0.18926052428E-01  0.12298503623E+00  0.51100000000E-03 0.  1.
</event>
<event>
 8    1  0.1111182E+005  0.1043930E+01  0.7957747E-01            NaN
         13   -1    0    0    0    0  0.00000000000E+00  0.00000000000E+00  0.74505805969E-08  0.10566000000E+00  0.10566000000E+00 0.  1.
     999900   -1    0    0    0    0 -0.00000000000E+00 -0.00000000000E+00 -0.74505805969E-08  0.93827000000E+00  0.93827000000E+00 0.  1.
     999902    2    1    2    0    0  0.22766066264E-02  0.22105697052E-01  0.48443698045E-02  0.10211854908E+01  0.10209321691E+01 0.  0.
     999903    2    3    3    0    0  0.39086557276E-01 -0.71903693644E-01  0.99386163575E-01  0.13038198341E+00  0.20590093959E-01 0.  0.
         14    1    1    2    0    0 -0.22766066264E-02 -0.22105697052E-01 -0.48443698045E-02  0.22744509198E-01  0.00000000000E+00 0.  1.
     999901    1    3    3    0    0 -0.36809950649E-01  0.94009390696E-01 -0.94541793771E-01  0.89080350739E+00  0.88000000000E+00 0. -1.
        -11    1    4    4    0    0  0.47350001814E-02 -0.21326243937E-01  0.37395597883E-01  0.43311901011E-01  0.51100000000E-03 0.  1.
         11    1    4    4    0    0  0.34351557094E-01 -0.50577449707E-01  0.61990565693E-01  0.87070082402E-01  0.51100000000E-03 0. -1.
</event>
<event>
 8    1  0.1111182E+005  0.1043930E+01  0.7957747E-01            NaN
         13   -1    0    0    0    0  0.00000000000E+00  0.00000000000E+00  0.74505805969E-08  0.10566000000E+00  0.10566000000E+00 0. -1.
     999900   -1    0    0    0    0 -0.00000000000E+00 -0.00000000000E+00 -0.74505805969E-08  0.93827000000E+00  0.93827000000E+00 0.  1.
     999902    2    1    2    0    0  0.45959974480E-02  0.49683328052E-04 -0.21656004730E-01  0.10217916125E+01  0.10215517565E+01 0.  0.
     999903    2    3    3    0    0 -0.84035520987E-01  0.59330765387E-01  0.76554344521E-01  0.12993116070E+00  0.20962594011E-01 0.  0.
         14    1    1    2    0    0 -0.45959974480E-02 -0.49683328052E-04  0.21656004730E-01  0.22138387517E-01  0.00000000000E+00 0. -1.
     999901    1    3    3    0    0  0.88631518435E-01 -0.59281082059E-01 -0.98210349251E-01  0.89186045178E+00  0.88000000000E+00 0.  1.
        -11    1    4    4    0    0 -0.53629227605E-01  0.36393710269E-01  0.60267620557E-01  0.88504482425E-01  0.51100000000E-03 0. -1.
         11    1    4    4    0    0 -0.30406293381E-01  0.22937055118E-01  0.16286723964E-01  0.41426678278E-01  0.51100000000E-03 0.  1.
</event>
<event>
 8    1  0.1111182E+005  0.1043930E+01  0.7957747E-01            NaN
         13   -1    0    0    0    0  0.00000000000E+00  0.00000000000E+00  0.74505805969E-08  0.10566000000E+00  0.10566000000E+00 0. -1.
     999900   -1    0    0    0    0 -0.00000000000E+00 -0.00000000000E+00 -0.74505805969E-08  0.93827000000E+00  0.93827000000E+00 0. -1.
     999902    2    1    2    0    0 -0.23504967919E-01  0.38024696483E-02 -0.12685683892E-02  0.10200856808E+01  0.10198069644E+01 0.  0.
     999903    2    3    3    0    0 -0.92985625805E-01 -0.74950376629E-01 -0.53095190327E-01  0.13232694592E+00  0.20674520974E-01 0.  0.
         14    1    1    2    0    0  0.23504967919E-01 -0.38024696483E-02  0.12685683892E-02  0.23844319199E-01  0.00000000000E+00 0.  1.
     999901    1    3    3    0    0  0.69480657886E-01  0.78752846277E-01  0.51826621938E-01  0.88775873488E+00  0.88000000000E+00 0.  1.
        -11    1    4    4    0    0 -0.36206941573E-01 -0.26228804414E-01 -0.94205683241E-02  0.45693555646E-01  0.51100000000E-03 0.  1.
         11    1    4    4    0    0 -0.56778684232E-01 -0.48721572215E-01 -0.43674622003E-01  0.86633390274E-01  0.51100000000E-03 0. -1.
</event>
<event>
 8    1  0.1111182E+005  0.1043930E+01  0.7957747E-01            NaN
         13   -1    0    0    0    0  0.00000000000E+00  0.00000000000E+00  0.74505805969E-08  0.10566000000E+00  0.10566000000E+00 0.  1.
     999900   -1    0    0    0    0 -0.00000000000E+00 -0.00000000000E+00 -0.74505805969E-08  0.93827000000E+00  0.93827000000E+00 0.  1.
     999902    2    1    2    0    0  0.59004767553E-02  0.19336599996E-01 -0.12917115492E-01  0.10199389267E+01  0.10196567278E+01 0.  0.
     999903    2    3    3    0    0  0.33495216976E-01 -0.64878850904E-01 -0.10586118079E+00  0.13061766240E+00  0.22873331177E-01 0.  0.
         14    1    1    2    0    0 -0.59004767553E-02 -0.19336599996E-01  0.12917115492E-01  0.23991073298E-01  0.00000000000E+00 0.  1.
     999901    1    3    3    0    0 -0.27594740221E-01  0.84215450900E-01  0.92944065297E-01  0.88932126430E+00  0.88000000000E+00 0.  1.
        -11    1    4    4    0    0  0.12085412774E-01 -0.26893851606E-01 -0.24628376174E-01  0.38420755980E-01  0.51100000000E-03 0.  1.
         11    1    4    4    0    0  0.21409804203E-01 -0.37984999298E-01 -0.81232804615E-01  0.92196906425E-01  0.51100000000E-03 0. -1.
</event>
<event>
 8    1  0.1111182E+005  0.1043930E+01  0.7957747E-01            NaN
         13   -1    0    0    0    0  0.00000000000E+00  0.00000000000E+00  0.74505805969E-08  0.10566000000E+00  0.10566000000E+00 0. -1.
     999900   -1    0    0    0    0 -0.00000000000E+00 -0.00000000000E+00 -0.74505805969E-08  0.93827000000E+00  0.93827000000E+00 0. -1.
     999902    2    1    2    0    0  0.57182133185E-02  0.16458394596E-01 -0.13658612978E-01  0.10217910202E+01  0.10215511513E+01 0.  0.
     999903    2    3    3    0    0 -0.76637035423E-01  0.65569027764E-01  0.82628909770E-01  0.13136105201E+00  0.15989266887E-01 0.  0.
         14    1    1    2    0    0 -0.57182133185E-02 -0.16458394596E-01  0.13658612978E-01  0.22138979758E-01  0.00000000000E+00 0.  1.
     999901    1    3    3    0    0  0.82355248741E-01 -0.49110633168E-01 -0.96287522748E-01  0.89042996823E+00  0.88000000000E+00 0.  1.
        -11    1    4    4    0    0 -0.56583969813E-01  0.40006569919E-01  0.51276213207E-01  0.86207786413E-01  0.51100000000E-03 0. -1.
         11    1    4    4    0    0 -0.20053065610E-01  0.25562457845E-01  0.31352696563E-01  0.45153265599E-01  0.51100000000E-03 0.  1.
</event>
<event>
 8    1  0.1111182E+005  0.1043930E+01  0.7957747E-01            NaN
         13   -1    0    0    0    0  0.00000000000E+00  0.00000000000E+00  0.74505805969E-08  0.10566000000E+00  0.10566000000E+00 0.  1.
     999900   -1    0    0    0    0 -0.00000000000E+00 -0.00000000000E+00 -0.74505805969E-08  0.93827000000E+00  0.93827000000E+00 0.  1.
     999902    2    1    2    0    0 -0.20833035447E-01 -0.11885049134E-01 -0.22144593588E-03  0.10199441959E+01  0.10196621225E+01 0.  0.
     999903    2    3    3    0    0 -0.20395023379E-01 -0.38119031731E-01 -0.12216499454E+00  0.13114801977E+00  0.20161836217E-01 0.  0.
         14    1    1    2    0    0  0.20833035447E-01  0.11885049134E-01  0.22144593588E-03  0.23985804076E-01  0.00000000000E+00 0. -1.
     999901    1    3    3    0    0 -0.43801206797E-03  0.26233982596E-01  0.12194354861E+00  0.88879617615E+00  0.88000000000E+00 0. -1.
        -11    1    4    4    0    0 -0.24331549837E-01 -0.33786996499E-01 -0.11053851543E+00  0.11812116646E+00  0.51100000000E-03 0. -1.
         11    1    4    4    0    0  0.39365264577E-02 -0.43320352323E-02 -0.11626479107E-01  0.13026853313E-01  0.51100000000E-03 0.  1.
</event>
<event>
 8    1  0.1111182E+005  0.1043930E+01  0.7957747E-01            NaN
         13   -1    0    0    0    0  0.00000000000E+00  0.00000000000E+00  0.74505805969E-08  0.10566000000E+00  0.10566000000E+00 0. -1.
     999900   -1    0    0    0    0 -0.00000000000E+00 -0.00000000000E+00 -0.74505805969E-08  0.93827000000E+00  0.93827000000E+00 0.  1.
     999902    2    1    2    0    0 -0.66559578951E-02  0.62558938682E-02  0.22213033653E-01  0.10199121556E+01  0.10196293191E+01 0.  0.
     999903    2    3    3    0    0  0.56732609521E-01 -0.46916076098E-01 -0.10196816551E+00  0.12735048321E+00  0.20023276839E-01 0.  0.
         14    1    1    2    0    0  0.66559578951E-02 -0.62558938682E-02 -0.22213033653E-01  0.24017844359E-01  0.00000000000E+00 0.  1.
     999901    1    3    3    0    0 -0.63388567416E-01  0.53171969967E-01  0.12418119917E+00  0.89256167243E+00  0.88000000000E+00 0.  1.
        -11    1    4    4    0    0  0.23072481164E-01 -0.31955220424E-01 -0.50727271469E-01  0.64241674100E-01  0.51100000000E-03 0. -1.
         11    1    4    4    0    0  0.33660128357E-01 -0.14960855675E-01 -0.51240894045E-01  0.63108809108E-01  0.51100000000E-03 0.  1.
</event>
<event>
 8    1  0.1111182E+005  0.1043930E+01  0.7957747E-01            NaN
         13   -1    0    0    0    0  0.00000000000E+00  0.00000000000E+00  0.74505805969E-08  0.10566000000E+00  0.10566000000E+00 0.  1.
     999900   -1    0    0    0    0 -0.00000000000E+00 -0.00000000000E+00 -0.74505805969E-08  0.93827000000E+00  0.93827000000E+00 0.  1.
     999902    2    1    2    0    0 -0.24031102969E-01  0.15323259007E-02  0.11030654085E-01  0.10174438289E+01  0.10170990255E+01 0.  0.
     999903    2    3    3    0    0 -0.74510364419E-01  0.10358793429E+00 -0.12820063045E-01  0.12978828769E+00  0.19959736187E-01 0.  0.
         14    1    1    2    0    0  0.24031102969E-01 -0.15323259007E-02 -0.11030654085E-01  0.26486171148E-01  0.00000000000E+00 0. -1.
     999901    1    3    3    0    0  0.50479261451E-01 -0.10205560839E+00  0.23850717130E-01  0.88765554116E+00  0.88000000000E+00 0. -1.
        -11    1    4    4    0    0 -0.70061702720E-01  0.86076958198E-01 -0.12718910620E-01  0.11171354765E+00  0.51100000000E-03 0. -1.
         11    1    4    4    0    0 -0.44486616997E-02  0.17510976096E-01 -0.10115242521E-03  0.18074740042E-01  0.51100000000E-03 0.  1.
</event>
<event>
 8    1  0.1111182E+005  0.1043930E+01  0.7957747E-01            NaN
         13   -1    0    0    0    0  0.00000000000E+00  0.00000000000E+00  0.74505805969E-08  0.10566000000E+00  0.10566000000E+00 0. -1.
     999900   -1    0    0    0    0 -0.00000000000E+00 -0.00000000000E+00 -0.74505805969E-08  0.93827000000E+00  0.93827000000E+00 0.  1.
     999902    2    1    2    0    0  0.26665609713E-02  0.69611339549E-02 -0.23422370581E-01  0.10193500208E+01  0.10190536245E+01 0.  0.
     999903    2    3    3    0    0 -0.10215398013E-01 -0.10843656051E+00 -0.69284949830E-01  0.13053848346E+00  0.19417759391E-01 0.  0.
         14    1    1    2    0    0 -0.26665609713E-02 -0.69611339549E-02  0.23422370581E-01  0.24579979190E-01  0.00000000000E+00 0. -1.
     999901    1    3    3    0    0  0.12881958984E-01  0.11539769446E+00  0.45862579249E-01  0.88881153735E+00  0.88000000000E+00 0. -1.
        -11    1    4    4    0    0 -0.14646608209E-01 -0.61651667260E-01 -0.44241564786E-01  0.77285369791E-01  0.51100000000E-03 0. -1.
         11    1    4    4    0    0  0.44312101966E-02 -0.46784893246E-01 -0.25043385044E-01  0.53253113668E-01  0.51100000000E-03 0.  1.
</event>
<event>
 8    1  0.1111182E+005  0.1043930E+01  0.7957747E-01            NaN
         13   -1    0    0    0    0  0.00000000000E+00  0.00000000000E+00  0.74505805969E-08  0.10566000000E+00  0.10566000000E+00 0. -1.
     999900   -1    0    0    0    0 -0.00000000000E+00 -0.00000000000E+00 -0.74505805969E-08  0.93827000000E+00  0.93827000000E+00 0.  1.
     999902    2    1    2    0    0 -0.22951299648E-01  0.12742543328E-01  0.13037632277E-01  0.10146193463E+01  0.10141958901E+01 0.  0.
     999903    2    3    3    0    0  0.68335732875E-01 -0.96235126233E-01 -0.21268862589E-01  0.12255074446E+00  0.25206121137E-01 0.  0.
         14    1    1    2    0    0  0.22951299648E-01 -0.12742543328E-01 -0.13037632277E-01  0.29310653718E-01  0.00000000000E+00 0.  1.
     999901    1    3    3    0    0 -0.91287032523E-01  0.10897766956E+00  0.34306494866E-01  0.89206860182E+00  0.88000000000E+00 0. -1.
        -11    1    4    4    0    0  0.18578255082E-01 -0.45287195527E-01 -0.30845972808E-02  0.49049541303E-01  0.51100000000E-03 0.  1.
         11    1    4    4    0    0  0.49757477793E-01 -0.50947930706E-01 -0.18184265308E-01  0.73501203156E-01  0.51100000000E-03 0. -1.
</event>
<event>
 8    1  0.1111182E+005  0.1043930E+01  0.7957747E-01            NaN
         13   -1    0    0    0    0  0.00000000000E+00  0.00000000000E+00  0.74505805969E-08  0.10566000000E+00  0.10566000000E+00 0. -1.
     999900   -1    0    0    0    0 -0.00000000000E+00 -0.00000000000E+00 -0.74505805969E-08  0.93827000000E+00  0.93827000000E+00 0.  1.
     999902    2    1    2    0    0 -0.19286106042E-01  0.10031378414E-01 -0.79493772318E-02  0.10207831852E+01  0.10205207181E+01 0.  0.
     999903    2    3    3    0    0 -0.11640618908E+00 -0.26608611858E-01  0.53964020197E-01  0.13252192393E+00  0.19787009988E-01 0.  0.
         14    1    1    2    0    0  0.19286106042E-01 -0.10031378414E-01  0.79493772318E-02  0.23146814846E-01  0.00000000000E+00 0. -1.
     999901    1    3    3    0    0  0.97120083038E-01  0.36639990272E-01 -0.61913397429E-01  0.88826126123E+00  0.88000000000E+00 0.  1.
        -11    1    4    4    0    0 -0.41915992366E-01 -0.55259843475E-02  0.98362525359E-02  0.43410827036E-01  0.51100000000E-03 0.  1.
         11    1    4    4    0    0 -0.74490196714E-01 -0.21082627511E-01  0.44127767661E-01  0.89111096890E-01  0.51100000000E-03 0. -1.
</event>
<event>
 8    1  0.1111182E+005  0.1043930E+01  0.7957747E-01            NaN
         13   -1    0    0    0    0  0.00000000000E+00  0.00000000000E+00  0.74505805969E-08  0.10566000000E+00  0.10566000000E+00 0. -1.
     999900   -1    0    0    0    0 -0.00000000000E+00 -0.00000000000E+00 -0.74505805969E-08  0.93827000000E+00  0.93827000000E+00 0. -1.
     999902    2    1    2    0    0 -0.16609881937E-01 -0.90062321453E-02 -0.15222307138E-01  0.10196664671E+01  0.10193777440E+01 0.  0.
     999903    2    3    3    0    0  0.68337572812E-01 -0.10784347967E+00  0.11801793386E-01  0.12965794263E+00  0.19278480108E-01 0.  0.
         14    1    1    2    0    0  0.16609881937E-01  0.90062321453E-02  0.15222307138E-01  0.24263532925E-01  0.00000000000E+00 0. -1.
     999901    1    3    3    0    0 -0.84947454749E-01  0.98837247527E-01 -0.27024100524E-01  0.89000852444E+00  0.88000000000E+00 0.  1.
        -11    1    4    4    0    0  0.27702432665E-01 -0.30442588015E-01 -0.17110055691E-02  0.41199084961E-01  0.51100000000E-03 0. -1.
         11    1    4    4    0    0  0.40635140147E-01 -0.77400891658E-01  0.13512798955E-01  0.88458857673E-01  0.51100000000E-03 0.  1.
</event>
<event>
 8    1  0.1111182E+005  0.1043930E+01  0.7957747E-01            NaN
         13   -1    0    0    0    0  0.00000000000E+00  0.00000000000E+00  0.74505805969E-08  0.10566000000E+00  0.10566000000E+00 0.  1.
     999900   -1    0    0    0    0 -0.00000000000E+00 -0.00000000000E+00 -0.74505805969E-08  0.93827000000E+00  0.93827000000E+00 0. -1.
     999902    2    1    2    0    0 -0.54900852949E-02 -0.52701016148E-03 -0.23555962917E-01  0.10197369811E+01  0.10194499538E+01 0.  0.
     999903    2    3    3    0    0 -0.12103457433E+00 -0.19050156830E-01 -0.44311385899E-01  0.13174800394E+00  0.19538704240E-01 0.  0.
         14    1    1    2    0    0  0.54900852949E-02  0.52701016148E-03  0.23555962917E-01  0.24193018935E-01  0.00000000000E+00 0.  1.
     999901    1    3    3    0    0  0.11554448904E+00  0.18523146669E-01  0.20755422983E-01  0.88798897712E+00  0.88000000000E+00 0. -1.
        -11    1    4    4    0    0 -0.60073807709E-01 -0.16090633167E-03 -0.17999178806E-01  0.62714590186E-01  0.51100000000E-03 0.  1.
         11    1    4    4    0    0 -0.60960766623E-01 -0.18889250499E-01 -0.26312207094E-01  0.69033413756E-01  0.51100000000E-03 0. -1.
</event>
<event>
 8    1  0.1111182E+005  0.1043930E+01  0.7957747E-01            NaN
         13   -1    0    0    0    0  0.00000000000E+00  0.00000000000E+00  0.74505805969E-08  0.10566000000E+00  0.10566000000E+00 0.  1.
     999900   -1    0    0    0    0 -0.00000000000E+00 -0.00000000000E+00 -0.74505805969E-08  0.93827000000E+00  0.93827000000E+00 0. -1.
     999902    2    1    2    0    0  0.98418077340E-02  0.20043933349E-02 -0.21511042658E-01  0.10201896603E+01  0.10199133979E+01 0.  0.
     999903    2    3    3    0    0  0.57876294546E-01  0.17662904459E-01 -0.11738733498E+00  0.13354161045E+00  0.19797263560E-01 0.  0.
         14    1    1    2    0    0 -0.98418077340E-02 -0.20043933349E-02  0.21511042658E-01  0.23740339685E-01  0.00000000000E+00 0. -1.
     999901    1    3    3    0    0 -0.48034486812E-01 -0.15658511124E-01  0.95876292322E-01  0.88664804986E+00  0.88000000000E+00 0.  1.
        -11    1    4    4    0    0  0.49731998327E-02  0.84013610383E-02 -0.21951558965E-01  0.24030140363E-01  0.51100000000E-03 0. -1.
         11    1    4    4    0    0  0.52903094713E-01  0.92615434211E-02 -0.95435776015E-01  0.10951147009E+00  0.51100000000E-03 0.  1.
</event>
<event>
 8    1  0.1111182E+005  0.1043930E+01  0.7957747E-01            NaN
         13   -1    0    0    0    0  0.00000000000E+00  0.00000000000E+00  0.74505805969E-08  0.10566000000E+00  0.10566000000E+00 0.  1.
     999900   -1    0    0    0    0 -0.00000000000E+00 -0.00000000000E+00 -0.74505805969E-08  0.93827000000E+00  0.93827000000E+00 0.  1.
     999902    2    1    2    0    0  0.56999661602E-02 -0.14689495709E-01 -0.17083776059E-01  0.10206893825E+01  0.10204247592E+01 0.  0.
     999903    2    3    3    0    0 -0.38125308243E-01  0.12134220019E+00 -0.98142663081E-02  0.12913000547E+00  0.20019236074E-01 0.  0.
         14    1    1    2    0    0 -0.56999661602E-02  0.14689495709E-01  0.17083776059E-01  0.23240617523E-01  0.00000000000E+00 0.  1.
     999901    1    3    3    0    0  0.43825274403E-01 -0.13603169590E+00 -0.72695097509E-02  0.89155937701E+00  0.88000000000E+00 0.  1.
        -11    1    4    4    0    0 -0.34664735355E-01  0.81711497463E-01 -0.33631394884E-02  0.88825584846E-01  0.51100000000E-03 0.  1.
         11    1    4    4    0    0 -0.34605728876E-02  0.39630702726E-01 -0.64511268197E-02  0.40304420620E-01  0.51100000000E-03 0. -1.
</event>
<event>
 8    1  0.1111182E+005  0.1043930E+01  0.7957747E-01            NaN
         13   -1    0    0    0    0  0.00000000000E+00  0.00000000000E+00  0.74505805969E-08  0.10566000000E+00  0.10566000000E+00 0.  1.
     999900   -1    0    0    0    0 -0.00000000000E+00 -0.00000000000E+00 -0.74505805969E-08  0.93827000000E+00  0.93827000000E+00 0. -1.
     999902    2    1    2    0    0  0.49017085898E-02  0.13882032817E-03 -0.20906178491E-01  0.10224564275E+01  0.10222309092E+01 0.  0.
     999903    2    3    3    0    0  0.66315142359E-01 -0.11330704068E+00 -0.63667601059E-02  0.13293241547E+00  0.19857186998E-01 0.  0.
         14    1    1    2    0    0 -0.49017085898E-02 -0.13882032817E-03  0.20906178491E-01  0.21473572532E-01  0.00000000000E+00 0.  1.
     999901    1    3    3    0    0 -0.61413433769E-01  0.11344586101E+00 -0.14539418385E-01  0.88952401199E+00  0.88000000000E+00 0.  1.
        -11    1    4    4    0    0  0.38844718059E-01 -0.49526050853E-01  0.20455084208E-02  0.62977671121E-01  0.51100000000E-03 0.  1.
         11    1    4    4    0    0  0.27470424301E-01 -0.63780989828E-01 -0.84122685267E-02  0.69954744353E-01  0.51100000000E-03 0. -1.
</event>
<event>
 8    1  0.1111182E+005  0.1043930E+01  0.7957747E-01            NaN
         13   -1    0    0    0    0  0.00000000000E+00  0.00000000000E+00  0.74505805969E-08  0.10566000000E+00  0.10566000000E+00 0.  1.
     999900   -1    0    0    0    0 -0.00000000000E+00 -0.00000000000E+00 -0.74505805969E-08  0.93827000000E+00  0.93827000000E+00 0.  1.
     999902    2    1    2    0    0  0.49383630329E-02  0.80295503264E-02 -0.18761105755E-01  0.10229338052E+01  0.10227183041E+01 0.  0.
     999903    2    3    3    0    0  0.39152670903E-01 -0.12466559972E+00  0.20290568388E-02  0.13208541596E+00  0.19183238684E-01 0.  0.
         14    1    1    2    0    0 -0.49383630329E-02 -0.80295503264E-02  0.18761105755E-01  0.20996194823E-01  0.00000000000E+00 0.  1.
     999901    1    3    3    0    0 -0.34214307870E-01  0.13269515004E+00 -0.20790162594E-01  0.89084838922E+00  0.88000000000E+00 0. -1.
        -11    1    4    4    0    0  0.25767746733E-01 -0.82299245116E-01  0.10417016440E-01  0.86867242795E-01  0.51100000000E-03 0. -1.
         11    1    4    4    0    0  0.13384924169E-01 -0.42366354601E-01 -0.83879596009E-02  0.45218173166E-01  0.51100000000E-03 0.  1.
</event>
<event>
 8    1  0.1111182E+005  0.1043930E+01  0.7957747E-01            NaN
         13   -1    0    0    0    0  0.00000000000E+00  0.00000000000E+00  0.74505805969E-08  0.10566000000E+00  0.10566000000E+00 0.  1.
     999900   -1    0    0    0    0 -0.00000000000E+00 -0.00000000000E+00 -0.74505805969E-08  0.93827000000E+00  0.93827000000E+00 0.  1.
     999902    2    1    2    0    0 -0.31999724073E-02 -0.40585902608E-02  0.22892387982E-01  0.10204614379E+01  0.10201915374E+01 0.  0.
     999903    2    3    3    0    0  0.13556858365E-01  0.61421906415E-01  0.11531407512E+00  0.13304369240E+00  0.21138807200E-01 0.  0.
         14    1    1    2    0    0  0.31999724073E-02  0.40585902608E-02 -0.22892387982E-01  0.23468562074E-01  0.00000000000E+00 0. -1.
     999901    1    3    3    0    0 -0.16756830772E-01 -0.65480496676E-01 -0.92421687138E-01  0.88741774553E+00  0.88000000000E+00 0.  1.
        -11    1    4    4    0    0  0.47873441283E-02  0.22730269250E-01  0.64612693032E-01  0.68663272758E-01  0.51100000000E-03 0.  1.
         11    1    4    4    0    0  0.87695142368E-02  0.38691637165E-01  0.50701382089E-01  0.64380419641E-01  0.51100000000E-03 0. -1.
</event>
<event>
 8    1  0.1111182E+005  0.1043930E+01  0.7957747E-01            NaN
         13   -1    0    0    0    0  0.00000000000E+00  0.00000000000E+00  0.74505805969E-08  0.10566000000E+00  0.10566000000E+00 0.  1.
     999900   -1    0    0    0    0 -0.00000000000E+00 -0.00000000000E+00 -0.74505805969E-08  0.93827000000E+00  0.93827000000E+00 0. -1.
     999902    2    1    2    0    0 -0.80136654874E-02 -0.12564333487E-01  0.17952631400E-01  0.10205980844E+01  0.10203313538E+01 0.  0.
     999903    2    3    3    0    0  0.89420586868E-01  0.90855796716E-01  0.18859627635E-02  0.12905599640E+00  0.20026886911E-01 0.  0.
         14    1    1    2    0    0  0.80136654874E-02  0.12564333487E-01 -0.17952631400E-01  0.23331915581E-01  0.00000000000E+00 0. -1.
     999901    1    3    3    0    0 -0.97434252355E-01 -0.10342013020E+00  0.16066668636E-01  0.89154208802E+00  0.88000000000E+00 0. -1.
        -11    1    4    4    0    0  0.17333534739E-01  0.11619471833E-01 -0.57806244210E-02  0.21659646625E-01  0.51100000000E-03 0. -1.
         11    1    4    4    0    0  0.72087052128E-01  0.79236324883E-01  0.76665871845E-02  0.10739634978E+00  0.51100000000E-03 0.  1.
</event>
<event>
 8    1  0.1111182E+005  0.1043930E+01  0.7957747E-01            NaN
         13   -1    0    0    0    0  0.00000000000E+00  0.00000000000E+00  0.74505805969E-08  0.10566000000E+00  0.10566000000E+00 0.  1.
     999900   -1    0    0    0    0 -0.00000000000E+00 -0.00000000000E+00 -0.74505805969E-08  0.93827000000E+00  0.93827000000E+00 0.  1.
     999902    2    1    2    0    0  0.52702333996E-02  0.20876770146E-01  0.97452225659E-02  0.10202956129E+01  0.10200218397E+01 0.  0.
     999903    2    3    3    0    0 -0.45846158611E-01  0.10344100502E+00 -0.64553815851E-01  0.13184185183E+00  0.20326509112E-01 0.  0.
         14    1    1    2    0    0 -0.52702333996E-02 -0.20876770146E-01 -0.97452225659E-02  0.23634387123E-01  0.00000000000E+00 0. -1.
     999901    1    3    3    0    0  0.51116392011E-01 -0.82564234877E-01  0.74299038417E-01  0.88845376105E+00  0.88000000000E+00 0. -1.
        -11    1    4    4    0    0 -0.29077762849E-01  0.50639074500E-01 -0.42438525546E-01  0.72188099643E-01  0.51100000000E-03 0. -1.
         11    1    4    4    0    0 -0.16768395763E-01  0.52801930523E-01 -0.22115290305E-01  0.59653752185E-01  0.51100000000E-03 0.  1.
</event>
<event>
 8    1  0.1111182E+005  0.1043930E+01  0.7957747E-01            NaN
         13   -1    0    0    0    0  0.00000000000E+00  0.00000000000E+00  0.74505805969E-08  0.10566000000E+00  0.10566000000E+00 0. -1.
     999900   -1    0    0    0    0 -0.00000000000E+00 -0.00000000000E+00 -0.74505805969E-08  0.93827000000E+00  0.93827000000E+00 0.  1.
     999902    2    1    2    0    0 -0.42705820635E-02  0.20889152544E-01 -0.10792233367E-01  0.10200329946E+01  0.10197530305E+01 0.  0.
     999903    2    3    3    0    0  0.12380047726E+00  0.26523622012E-01  0.20664186913E-01  0.13018837343E+00  0.22179794002E-01 0.  0.
         14    1    1    2    0    0  0.42705820635E-02 -0.20889152544E-01  0.10792233367E-01  0.23897005382E-01  0.00000000000E+00 0.  1.
     999901    1    3    3    0    0 -0.12807105932E+00 -0.56344694686E-02 -0.31456420281E-01  0.88984462119E+00  0.88000000000E+00 0. -1.
        -11    1    4    4    0    0  0.98095934633E-01  0.11745634908E-01  0.17890584746E-01  0.10040471341E+00  0.51100000000E-03 0. -1.
         11    1    4    4    0    0  0.25704542623E-01  0.14777987104E-01  0.27736021675E-02  0.29783660022E-01  0.51100000000E-03 0.  1.
</event>
<event>
 8    1  0.1111182E+005  0.1043930E+01  0.7957747E-01            NaN
         13   -1    0    0    0    0  0.00000000000E+00  0.00000000000E+00  0.74505805969E-08  0.10566000000E+00  0.10566000000E+00 0.  1.
     999900   -1    0    0    0    0 -0.00000000000E+00 -0.00000000000E+00 -0.74505805969E-08  0.93827000000E+00  0.93827000000E+00 0.  1.
     999902    2    1    2    0    0  0.16142448110E-01  0.13022178467E-01  0.77506235776E-02  0.10217889086E+01  0.10215489933E+01 0.  0.
     999903    2    3    3    0    0 -0.94254451028E-01  0.51710336141E-02 -0.86905334491E-01  0.12981981371E+00  0.19748563055E-01 0.  0.
         14    1    1    2    0    0 -0.16142448110E-01 -0.13022178467E-01 -0.77506235776E-02  0.22141091410E-01  0.00000000000E+00 0. -1.
     999901    1    3    3    0    0  0.11039689914E+00  0.78511448525E-02  0.94655958069E-01  0.89196909488E+00  0.88000000000E+00 0. -1.
        -11    1    4    4    0    0 -0.55561301815E-01  0.74213029093E-02 -0.62772872105E-01  0.84159542475E-01  0.51100000000E-03 0.  1.
         11    1    4    4    0    0 -0.38693149212E-01 -0.22502692953E-02 -0.24132462386E-01  0.45660271240E-01  0.51100000000E-03 0. -1.
</event>
<event>
 8    1  0.1111182E+005  0.1043930E+01  0.7957747E-01            NaN
         13   -1    0    0    0    0  0.00000000000E+00  0.00000000000E+00  0.74505805969E-08  0.10566000000E+00  0.10566000000E+00 0. -1.
     999900   -1    0    0    0    0 -0.00000000000E+00 -0.00000000000E+00 -0.74505805969E-08  0.93827000000E+00  0.93827000000E+00 0.  1.
     999902    2    1    2    0    0  0.17752471466E-01  0.15369699567E-01 -0.53105350409E-02  0.10198555386E+01  0.10195713511E+01 0.  0.
     999903    2    3    3    0    0 -0.86068235100E-01  0.46321865644E-02 -0.94357081766E-01  0.12922468312E+00  0.19145798566E-01 0.  0.
         14    1    1    2    0    0 -0.17752471466E-01 -0.15369699567E-01  0.53105350409E-02  0.24074461372E-01  0.00000000000E+00 0.  1.
     999901    1    3    3    0    0  0.10382070657E+00  0.10737513002E-01  0.89046546725E-01  0.89063085551E+00  0.88000000000E+00 0. -1.
        -11    1    4    4    0    0 -0.74302696364E-01 -0.19129282014E-02 -0.84446816123E-01  0.11249922602E+00  0.51100000000E-03 0. -1.
         11    1    4    4    0    0 -0.11765538736E-01  0.65451147659E-02 -0.99102656424E-02  0.16725457098E-01  0.51100000000E-03 0.  1.
</event>
<event>
 8    1  0.1111182E+005  0.1043930E+01  0.7957747E-01            NaN
         13   -1    0    0    0    0  0.00000000000E+00  0.00000000000E+00  0.74505805969E-08  0.10566000000E+00  0.10566000000E+00 0.  1.
     999900   -1    0    0    0    0 -0.00000000000E+00 -0.00000000000E+00 -0.74505805969E-08  0.93827000000E+00  0.93827000000E+00 0.  1.
     999902    2    1    2    0    0 -0.15819439687E-02  0.17461604816E-01  0.15878479600E-01  0.10202754803E+01  0.10200012350E+01 0.  0.
     999903    2    3    3    0    0  0.50335161910E-02  0.99590960274E-01  0.86042962240E-01  0.13364587893E+00  0.22674522051E-01 0.  0.
         14    1    1    2    0    0  0.15819439687E-02 -0.17461604816E-01 -0.15878479600E-01  0.23654519735E-01  0.00000000000E+00 0.  1.
     999901    1    3    3    0    0 -0.66154601597E-02 -0.82129355458E-01 -0.70164482640E-01  0.88662960134E+00  0.88000000000E+00 0.  1.
        -11    1    4    4    0    0  0.12005814854E-01  0.35604371120E-01  0.26699585405E-01  0.46097069484E-01  0.51100000000E-03 0. -1.
         11    1    4    4    0    0 -0.69722986633E-02  0.63986589154E-01  0.59343376835E-01  0.87548809445E-01  0.51100000000E-03 0.  1.
</event>
<event>
 8    1  0.1111182E+005  0.1043930E+01  0.7957747E-01            NaN
         13   -1    0    0    0    0  0.00000000000E+00  0.00000000000E+00  0.74505805969E-08  0.10566000000E+00  0.10566000000E+00 0.  1.
     999900   -1    0    0    0    0 -0.00000000000E+00 -0.00000000000E+00 -0.74505805969E-08  0.93827000000E+00  0.93827000000E+00 0. -1.
     999902    2    1    2    0    0  0.23232557766E-01 -0.99344033049E-02  0.45057258870E-03  0.10186585314E+01  0.10183450086E+01 0.  0.
     999903    2    3    3    0    0  0.11866708514E+00 -0.54514736233E-01  0.76023879878E-02  0.13234803075E+00  0.20111473783E-01 0.  0.
         14    1    1    2    0    0 -0.23232557766E-01  0.99344033049E-02 -0.45057258870E-03  0.25271468597E-01  0.00000000000E+00 0.  1.
     999901    1    3    3    0    0 -0.95434527379E-01  0.44580332928E-01 -0.71518153991E-02  0.88631050065E+00  0.88000000000E+00 0. -1.
        -11    1    4    4    0    0  0.82803556021E-01 -0.33817913864E-01 -0.33721812777E-02  0.89508172338E-01  0.51100000000E-03 0. -1.
         11    1    4    4    0    0  0.35863529124E-01 -0.20696822369E-01  0.10974569266E-01  0.42839858414E-01  0.51100000000E-03 0.  1.
</event>
<event>
 8    1  0.1111182E+005  0.1043930E+01  0.7957747E-01            NaN
         13   -1    0    0    0    0  0.00000000000E+00  0.00000000000E+00  0.74505805969E-08  0.10566000000E+00  0.10566000000E+00 0.  1.
     999900   -1    0    0    0    0 -0.00000000000E+00 -0.00000000000E+00 -0.74505805969E-08  0.93827000000E+00  0.93827000000E+00 0.  1.
     999902    2    1    2    0    0  0.18320369194E-01  0.35382696605E-02 -0.12722955372E-01  0.10213461812E+01  0.10210964660E+01 0.  0.
     999903    2    3    3    0    0  0.10278965999E+00  0.38849203298E-01 -0.74924801657E-01  0.13441270407E+00  0.19444133114E-01 0.  0.
         14    1    1    2    0    0 -0.18320369194E-01 -0.35382696605E-02  0.12722955372E-01  0.22583818831E-01  0.00000000000E+00 0. -1.
     999901    1    3    3    0    0 -0.84469290800E-01 -0.35310933638E-01  0.62201846285E-01  0.88693347710E+00  0.88000000000E+00 0. -1.
        -11    1    4    4    0    0  0.30391622880E-01  0.40454228977E-02 -0.14653839750E-01  0.33985472310E-01  0.51100000000E-03 0.  1.
         11    1    4    4    0    0  0.72398037114E-01  0.34803780401E-01 -0.60270961907E-01  0.10042723176E+00  0.51100000000E-03 0. -1.
</event>
<event>
 8    1  0.1111182E+005  0.1043930E+01  0.7957747E-01            NaN
         13   -1    0    0    0    0  0.00000000000E+00  0.00000000000E+00  0.74505805969E-08  0.10566000000E+00  0.10566000000E+00 0. -1.
     999900   -1    0    0    0    0 -0.00000000000E+00 -0.00000000000E+00 -0.74505805969E-08  0.93827000000E+00  0.93827000000E+00 0.  1.
     999902    2    1    2    0    0 -0.83598475576E-02 -0.14458685904E-01  0.58488877985E-03  0.10272182453E+01  0.10270822950E+01 0.  0.
     999903    2    3    3    0    0 -0.11661449667E+00 -0.58336793329E-02 -0.70343616394E-01  0.13771034057E+00  0.19568875352E-01 0.  0.
         14    1    1    2    0    0  0.83598475576E-02  0.14458685904E-01 -0.58488877985E-03  0.16711754669E-01  0.00000000000E+00 0. -1.
     999901    1    3    3    0    0  0.10825464911E+00 -0.86250065709E-02  0.70928505174E-01  0.88950790477E+00  0.88000000000E+00 0. -1.
        -11    1    4    4    0    0 -0.15775020339E-01  0.33900964568E-02 -0.39375043755E-02  0.16616530395E-01  0.51100000000E-03 0. -1.
         11    1    4    4    0    0 -0.10083947633E+00 -0.92237757897E-02 -0.66406112019E-01  0.12109381017E+00  0.51100000000E-03 0.  1.
</event>
<event>
 8    1  0.1111182E+005  0.1043930E+01  0.7957747E-01            NaN
         13   -1    0    0    0    0  0.00000000000E+00  0.00000000000E+00  0.74505805969E-08  0.10566000000E+00  0.10566000000E+00 0. -1.
     999900   -1    0    0    0    0 -0.00000000000E+00 -0.00000000000E+00 -0.74505805969E-08  0.93827000000E+00  0.93827000000E+00 0.  1.
     999902    2    1    2    0    0  0.26127910922E-02  0.20160857017E-01 -0.12295836001E-01  0.10201713297E+01  0.10198946355E+01 0.  0.
     999903    2    3    3    0    0  0.17157995888E-01  0.96431971063E-01  0.85028713945E-01  0.13140763000E+00  0.21084619085E-01 0.  0.
         14    1    1    2    0    0 -0.26127910922E-02 -0.20160857017E-01  0.12295836001E-01  0.23758670332E-01  0.00000000000E+00 0.  1.
     999901    1    3    3    0    0 -0.14545204796E-01 -0.76271114046E-01 -0.97324549946E-01  0.88876369967E+00  0.88000000000E+00 0.  1.
        -11    1    4    4    0    0  0.16856468986E-01  0.85121489018E-01  0.65083180090E-01  0.10847068678E+00  0.51100000000E-03 0. -1.
         11    1    4    4    0    0  0.30152690164E-03  0.11310482045E-01  0.19945533856E-01  0.22936943221E-01  0.51100000000E-03 0.  1.
</event>
<event>
 8    1  0.1111182E+005  0.1043930E+01  0.7957747E-01            NaN
         13   -1    0    0    0    0  0.00000000000E+00  0.00000000000E+00  0.74505805969E-08  0.10566000000E+00  0.10566000000E+00 0. -1.
     999900   -1    0    0    0    0 -0.00000000000E+00 -0.00000000000E+00 -0.74505805969E-08  0.93827000000E+00  0.93827000000E+00 0. -1.
     999902    2    1    2    0    0 -0.14651067466E-01  0.19559365681E-01  0.85633855663E-02  0.10180349399E+01  0.10177055492E+01 0.  0.
     999903    2    3    3    0    0 -0.59827876117E-01 -0.94730420349E-01  0.58471031144E-01  0.12809456422E+00  0.20883692185E-01 0.  0.
         14    1    1    2    0    0  0.14651067466E-01 -0.19559365681E-01 -0.85633855663E-02  0.25895060072E-01  0.00000000000E+00 0. -1.
     999901    1    3    3    0    0  0.45176808651E-01  0.11428978603E+00 -0.49907645578E-01  0.88994037571E+00  0.88000000000E+00 0. -1.
        -11    1    4    4    0    0 -0.56984935254E-01 -0.81555116394E-01  0.45578266895E-01  0.10943564040E+00  0.51100000000E-03 0. -1.
         11    1    4    4    0    0 -0.28429408634E-02 -0.13175303955E-01  0.12892764249E-01  0.18658923818E-01  0.51100000000E-03 0.  1.
</event>
<event>
 8    1  0.1111182E+005  0.1043930E+01  0.7957747E-01            NaN
         13   -1    0    0    0    0  0.00000000000E+00  0.00000000000E+00  0.74505805969E-08  0.10566000000E+00  0.10566000000E+00 0. -1.
     999900   -1    0    0    0    0 -0.00000000000E+00 -0.00000000000E+00 -0.74505805969E-08  0.93827000000E+00  0.93827000000E+00 0. -1.
     999902    2    1    2    0    0  0.16841370461E-01 -0.64423791869E-04  0.17098142281E-01  0.10199303671E+01  0.10196479644E+01 0.  0.
     999903    2    3    3    0    0 -0.55873154593E-01 -0.59266366002E-01  0.10087558213E+00  0.13099227503E+00  0.18675692916E-01 0.  0.
         14    1    1    2    0    0 -0.16841370461E-01  0.64423791869E-04 -0.17098142281E-01  0.23999632890E-01  0.00000000000E+00 0.  1.
     999901    1    3    3    0    0  0.72714525054E-01  0.59201942210E-01 -0.83777439847E-01  0.88893809208E+00  0.88000000000E+00 0. -1.
        -11    1    4    4    0    0 -0.36662565612E-01 -0.48505793903E-01  0.65959389603E-01  0.89709854293E-01  0.51100000000E-03 0. -1.
         11    1    4    4    0    0 -0.19210588981E-01 -0.10760572099E-01  0.34916192524E-01  0.41282420741E-01  0.51100000000E-03 0.  1.
</event>
<event>
 8    1  0.1111182E+005  0.1043930E+01  0.7957747E-01            NaN
         13   -1    0    0    0    0  0.00000000000E+00  0.00000000000E+00  0.74505805969E-08  0.10566000000E+00  0.10566000000E+00 0.  1.
     999900   -1    0    0    0    0 -0.00000000000E+00 -0.00000000000E+00 -0.74505805969E-08  0.93827000000E+00  0.93827000000E+00 0.  1.
     999902    2    1    2    0    0  0.17276365382E-01  0.12897641218E-01 -0.95819745967E-02  0.10203368614E+01  0.10200640542E+01 0.  0.
     999903    2    3    3    0    0 -0.99174783300E-01  0.54538173406E-01  0.58503396780E-01  0.12908469637E+00  0.20740332715E-01 0.  0.
         14    1    1    2    0    0 -0.17276365382E-01 -0.12897641218E-01  0.95819745967E-02  0.23593138557E-01  0.00000000000E+00 0.  1.
     999901    1    3    3    0    0  0.11645114868E+00 -0.41640532188E-01 -0.68085371377E-01  0.89125216507E+00  0.88000000000E+00 0.  1.
        -11    1    4    4    0    0 -0.77884586312E-01  0.50985494153E-01  0.51501933495E-01  0.10638721574E+00  0.51100000000E-03 0.  1.
         11    1    4    4    0    0 -0.21290196988E-01  0.35526792537E-02  0.70014632850E-02  0.22697480626E-01  0.51100000000E-03 0. -1.
</event>
<event>
 8    1  0.1111182E+005  0.1043930E+01  0.7957747E-01            NaN
         13   -1    0    0    0    0  0.00000000000E+00  0.00000000000E+00  0.74505805969E-08  0.10566000000E+00  0.10566000000E+00 0. -1.
     999900   -1    0    0    0    0 -0.00000000000E+00 -0.00000000000E+00 -0.74505805969E-08  0.93827000000E+00  0.93827000000E+00 0.  1.
     999902    2    1    2    0    0  0.25414483715E-01  0.37940176558E-02 -0.18005658107E-01  0.10125533482E+01  0.10120670871E+01 0.  0.
     999903    2    3    3    0    0 -0.70633664632E-01 -0.73429314324E-01  0.59317557992E-01  0.12060740281E+00  0.25428215527E-01 0.  0.
         14    1    1    2    0    0 -0.25414483715E-01 -0.37940176558E-02  0.18005658107E-01  0.31376651771E-01  0.00000000000E+00 0. -1.
     999901    1    3    3    0    0  0.96048148347E-01  0.77223331980E-01 -0.77323216099E-01  0.89194594542E+00  0.88000000000E+00 0. -1.
        -11    1    4    4    0    0 -0.41597228875E-01 -0.59280763290E-01  0.45076417839E-01  0.85303475384E-01  0.51100000000E-03 0.  1.
         11    1    4    4    0    0 -0.29036435757E-01 -0.14148551034E-01  0.14241140152E-01  0.35303927426E-01  0.51100000000E-03 0. -1.
</event>
<event>
 8    1  0.1111182E+005  0.1043930E+01  0.7957747E-01            NaN
         13   -1    0    0    0    0  0.00000000000E+00  0.00000000000E+00  0.74505805969E-08  0.10566000000E+00  0.10566000000E+00 0.  1.
     999900   -1    0    0    0    0 -0.00000000000E+00 -0.00000000000E+00 -0.74505805969E-08  0.93827000000E+00  0.93827000000E+00 0.  1.
     999902    2    1    2    0    0 -0.59127364839E-02 -0.99321696335E-03 -0.22600316192E-01  0.10205479294E+01  0.10202800375E+01 0.  0.
     999903    2    3    3    0    0 -0.11677309095E+00  0.33401040222E-01 -0.48967180550E-01  0.13253430641E+00  0.20395424657E-01 0.  0.
         14    1    1    2    0    0  0.59127364839E-02  0.99321696335E-03  0.22600316192E-01  0.23382070581E-01  0.00000000000E+00 0.  1.
     999901    1    3    3    0    0  0.11086035446E+00 -0.34394257186E-01  0.26366864358E-01  0.88801362301E+00  0.88000000000E+00 0.  1.
        -11    1    4    4    0    0 -0.80848648515E-01  0.20627516333E-01 -0.23520136085E-01  0.86691731550E-01  0.51100000000E-03 0.  1.
         11    1    4    4    0    0 -0.35924442431E-01  0.12773523889E-01 -0.25447044465E-01  0.45842574857E-01  0.51100000000E-03 0. -1.
</event>
<event>
 8    1  0.1111182E+005  0.1043930E+01  0.7957747E-01            NaN
         13   -1    0    0    0    0  0.00000000000E+00  0.00000000000E+00  0.74505805969E-08  0.10566000000E+00  0.10566000000E+00 0. -1.
     999900   -1    0    0    0    0 -0.00000000000E+00 -0.00000000000E+00 -0.74505805969E-08  0.93827000000E+00  0.93827000000E+00 0.  1.
     999902    2    1    2    0    0  0.70536923419E-02  0.39497041070E-02 -0.22390493203E-01  0.10201247711E+01  0.10198469785E+01 0.  0.
     999903    2    3    3    0    0 -0.73759353174E-01  0.61640063393E-01  0.82644309886E-01  0.12833374413E+00  0.19988204788E-01 0.  0.
         14    1    1    2    0    0 -0.70536923419E-02 -0.39497041070E-02  0.22390493203E-01  0.23805228923E-01  0.00000000000E+00 0. -1.
     999901    1    3    3    0    0  0.80813045516E-01 -0.57690359286E-01 -0.10503480309E+00  0.89179102695E+00  0.88000000000E+00 0.  1.
        -11    1    4    4    0    0 -0.13839758965E-01  0.21401315548E-01  0.16025703571E-01  0.30110455516E-01  0.51100000000E-03 0.  1.
         11    1    4    4    0    0 -0.59919594209E-01  0.40238747845E-01  0.66618606315E-01  0.98223288616E-01  0.51100000000E-03 0. -1.
</event>
<event>
 8    1  0.1111182E+005  0.1043930E+01  0.7957747E-01            NaN
         13   -1    0    0    0    0  0.00000000000E+00  0.00000000000E+00  0.74505805969E-08  0.10566000000E+00  0.10566000000E+00 0.  1.
     999900   -1    0    0    0    0 -0.00000000000E+00 -0.00000000000E+00 -0.74505805969E-08  0.93827000000E+00  0.93827000000E+00 0.  1.
     999902    2    1    2    0    0  0.12931201356E-01 -0.55954630968E-02  0.18264119897E-01  0.10208626367E+01  0.10206019889E+01 0.  0.
     999903    2    3    3    0    0 -0.10751414100E+00 -0.39579873536E-01 -0.55683485650E-01  0.12893760113E+00  0.19959897440E-01 0.  0.
         14    1    1    2    0    0 -0.12931201356E-01  0.55954630968E-02 -0.18264119897E-01  0.23067363339E-01  0.00000000000E+00 0. -1.
     999901    1    3    3    0    0  0.12044534236E+00  0.33984410440E-01  0.73947605548E-01  0.89192503554E+00  0.88000000000E+00 0. -1.
        -11    1    4    4    0    0 -0.88638022658E-01 -0.40354739180E-01 -0.46388157266E-01  0.10787643992E+00  0.51100000000E-03 0.  1.
         11    1    4    4    0    0 -0.18876118341E-01  0.77486564393E-03 -0.92953283843E-02  0.21061161202E-01  0.51100000000E-03 0. -1.
</event>
<event>
 8    1  0.1111182E+005  0.1043930E+01  0.7957747E-01            NaN
         13   -1    0    0    0    0  0.00000000000E+00  0.00000000000E+00  0.74505805969E-08  0.10566000000E+00  0.10566000000E+00 0. -1.
     999900   -1    0    0    0    0 -0.00000000000E+00 -0.00000000000E+00 -0.74505805969E-08  0.93827000000E+00  0.93827000000E+00 0. -1.
     999902    2    1    2    0    0 -0.19424722416E-01 -0.76448634074E-02  0.10116938672E-01  0.10207326677E+01  0.10204690405E+01 0.  0.
     999903    2    3    3    0    0 -0.77995928826E-01  0.68473871963E-01 -0.77471623283E-01  0.13118424054E+00  0.20866635952E-01 0.  0.
         14    1    1    2    0    0  0.19424722416E-01  0.76448634074E-02 -0.10116938672E-01  0.23197332294E-01  0.00000000000E+00 0.  1.
     999901    1    3    3    0    0  0.58571206410E-01 -0.76118735370E-01  0.87588561955E-01  0.88954842717E+00  0.88000000000E+00 0.  1.
        -11    1    4    4    0    0 -0.52001183271E-01  0.55354280440E-01 -0.48557904407E-01  0.90146273500E-01  0.51100000000E-03 0. -1.
         11    1    4    4    0    0 -0.25994745555E-01  0.13119591523E-01 -0.28913718876E-01  0.41037967036E-01  0.51100000000E-03 0.  1.
</event>
<event>
 8    1  0.1111182E+005  0.1043930E+01  0.7957747E-01            NaN
         13   -1    0    0    0    0  0.00000000000E+00  0.00000000000E+00  0.74505805969E-08  0.10566000000E+00  0.10566000000E+00 0. -1.
     999900   -1    0    0    0    0 -0.00000000000E+00 -0.00000000000E+00 -0.74505805969E-08  0.93827000000E+00  0.93827000000E+00 0.  1.
     999902    2    1    2    0    0  0.20086058530E-01 -0.39487705009E-02 -0.40075879981E-03  0.10234555490E+01  0.10232507306E+01 0.  0.
     999903    2    3    3    0    0  0.60546791943E-02  0.50781467191E-01  0.12156648682E+00  0.13324866995E+00  0.19010017740E-01 0.  0.
         14    1    1    2    0    0 -0.20086058530E-01  0.39487705009E-02  0.40075879981E-03  0.20474450991E-01  0.00000000000E+00 0.  1.
     999901    1    3    3    0    0  0.14031379336E-01 -0.54730237692E-01 -0.12196724562E+00  0.89020687906E+00  0.88000000000E+00 0.  1.
        -11    1    4    4    0    0  0.67825775204E-02  0.23517290257E-01  0.78868626282E-01  0.82580794568E-01  0.51100000000E-03 0.  1.
         11    1    4    4    0    0 -0.72789832606E-03  0.27264176934E-01  0.42697860540E-01  0.50667875380E-01  0.51100000000E-03 0. -1.
</event>
<event>
 8    1  0.1111182E+005  0.1043930E+01  0.7957747E-01            NaN
         13   -1    0    0    0    0  0.00000000000E+00  0.00000000000E+00  0.74505805969E-08  0.10566000000E+00  0.10566000000E+00 0. -1.
     999900   -1    0    0    0    0 -0.00000000000E+00 -0.00000000000E+00 -0.74505805969E-08  0.93827000000E+00  0.93827000000E+00 0.  1.
     999902    2    1    2    0    0  0.44245921886E-02  0.21316609510E-02  0.19231734627E-01  0.10240810552E+01  0.10238886790E+01 0.  0.
     999903    2    3    3    0    0  0.22079924097E-01 -0.50200386330E-01 -0.11813068257E+00  0.13171409725E+00  0.19650532164E-01 0.  0.
         14    1    1    2    0    0 -0.44245921886E-02 -0.21316609510E-02 -0.19231734627E-01  0.19848944839E-01  0.00000000000E+00 0.  1.
     999901    1    3    3    0    0 -0.17655331909E-01  0.52332047281E-01  0.13736241719E+00  0.89236695791E+00  0.88000000000E+00 0. -1.
        -11    1    4    4    0    0  0.10474495878E-01 -0.92793158352E-02 -0.44814103804E-01  0.46950886967E-01  0.51100000000E-03 0.  1.
         11    1    4    4    0    0  0.11605428220E-01 -0.40921070495E-01 -0.73316578763E-01  0.84763210281E-01  0.51100000000E-03 0. -1.
</event>
<event>
 8    1  0.1111182E+005  0.1043930E+01  0.7957747E-01            NaN
         13   -1    0    0    0    0  0.00000000000E+00  0.00000000000E+00  0.74505805969E-08  0.10566000000E+00  0.10566000000E+00 0. -1.
     999900   -1    0    0    0    0 -0.00000000000E+00 -0.00000000000E+00 -0.74505805969E-08  0.93827000000E+00  0.93827000000E+00 0. -1.
     999902    2    1    2    0    0  0.15018982468E-01 -0.18142539714E-01  0.26139546953E-02  0.10202328622E+01  0.10199576161E+01 0.  0.
     999903    2    3    3    0    0  0.12908008093E+00  0.20242640100E-01 -0.66038884968E-02  0.13199397267E+00  0.17531848341E-01 0.  0.
         14    1    1    2    0    0 -0.15018982468E-01  0.18142539714E-01 -0.26139546953E-02  0.23697137818E-01  0.00000000000E+00 0.  1.
     999901    1    3    3    0    0 -0.11406109846E+00 -0.38385179814E-01  0.92178431921E-02  0.88823888951E+00  0.88000000000E+00 0. -1.
        -11    1    4    4    0    0  0.57420030636E-01  0.22276765071E-03 -0.29774233072E-02  0.57499875775E-01  0.51100000000E-03 0. -1.
         11    1    4    4    0    0  0.71660050294E-01  0.20019872449E-01 -0.36264651896E-02  0.74494096893E-01  0.51100000000E-03 0.  1.
</event>
<event>
 8    1  0.1111182E+005  0.1043930E+01  0.7957747E-01            NaN
         13   -1    0    0    0    0  0.00000000000E+00  0.00000000000E+00  0.74505805969E-08  0.10566000000E+00  0.10566000000E+00 0. -1.
     999900   -1    0    0    0    0 -0.00000000000E+00 -0.00000000000E+00 -0.74505805969E-08  0.93827000000E+00  0.93827000000E+00 0.  1.
     999902    2    1    2    0    0 -0.15642856925E-01 -0.11862234987E-01 -0.48444205442E-02  0.10237092186E+01  0.10235094939E+01 0.  0.
     999903    2    3    3    0    0  0.10795824823E+00 -0.25206617709E-01  0.68669578720E-01  0.13193592123E+00  0.20030460097E-01 0.  0.
         14    1    1    2    0    0  0.15642856925E-01  0.11862234987E-01  0.48444205442E-02  0.20220781441E-01  0.00000000000E+00 0. -1.
     999901    1    3    3    0    0 -0.12360110515E+00  0.13344382722E-01 -0.73513999264E-01  0.89177329733E+00  0.88000000000E+00 0.  1.
        -11    1    4    4    0    0  0.40355221660E-01  0.28532587587E-03  0.26426770255E-01  0.48241689784E-01  0.51100000000E-03 0. -1.
         11    1    4    4    0    0  0.67603026569E-01 -0.25491943585E-01  0.42242808464E-01  0.83694231444E-01  0.51100000000E-03 0.  1.
</event>
<event>
 8    1  0.1111182E+005  0.1043930E+01  0.7957747E-01            NaN
         13   -1    0    0    0    0  0.00000000000E+00  0.00000000000E+00  0.74505805969E-08  0.10566000000E+00  0.10566000000E+00 0.  1.
     999900   -1    0    0    0    0 -0.00000000000E+00 -0.00000000000E+00 -0.74505805969E-08  0.93827000000E+00  0.93827000000E+00 0. -1.
     999902    2    1    2    0    0 -0.69336646756E-02 -0.22086448207E-01 -0.85751175063E-02  0.10192435758E+01  0.10189445752E+01 0.  0.
     999903    2    3    3    0    0 -0.26822185356E-01 -0.12244931325E+00 -0.39152591449E-01  0.13278813988E+00  0.19659621875E-01 0.  0.
         14    1    1    2    0    0  0.69336646756E-02  0.22086448207E-01  0.85751175063E-02  0.24686424214E-01  0.00000000000E+00 0.  1.
     999901    1    3    3    0    0  0.19888520681E-01  0.10036286505E+00  0.30577473943E-01  0.88645543591E+00  0.88000000000E+00 0.  1.
        -11    1    4    4    0    0 -0.21683777596E-01 -0.80417121614E-01 -0.34615742982E-01  0.90197618831E-01  0.51100000000E-03 0. -1.
         11    1    4    4    0    0 -0.51384077606E-02 -0.42032191638E-01 -0.45368484679E-02  0.42590521049E-01  0.51100000000E-03 0.  1.
</event>
<event>
 8    1  0.1111182E+005  0.1043930E+01  0.7957747E-01            NaN
         13   -1    0    0    0    0  0.00000000000E+00  0.00000000000E+00  0.74505805969E-08  0.10566000000E+00  0.10566000000E+00 0. -1.
     999900   -1    0    0    0    0 -0.00000000000E+00 -0.00000000000E+00 -0.74505805969E-08  0.93827000000E+00  0.93827000000E+00 0. -1.
     999902    2    1    2    0    0 -0.18034641490E-02  0.17852011412E-01 -0.18088458803E-01  0.10184517910E+01  0.10181330519E+01 0.  0.
     999903    2    3    3    0    0  0.10290228307E+00  0.39553046167E-01  0.62396080020E-01  0.12833270375E+00  0.20559395128E-01 0.  0.
         14    1    1    2    0    0  0.18034641490E-02 -0.17852011412E-01  0.18088458803E-01  0.25478209047E-01  0.00000000000E+00 0. -1.
     999901    1    3    3    0    0 -0.10470574722E+00 -0.21701034755E-01 -0.80484538823E-01  0.89011908720E+00  0.88000000000E+00 0. -1.
        -11    1    4    4    0    0  0.52400943622E-01  0.30910396067E-01  0.36030505979E-01  0.70709051469E-01  0.51100000000E-03 0. -1.
         11    1    4    4    0    0  0.50501339450E-01  0.86426500994E-02  0.26365574041E-01  0.57623652283E-01  0.51100000000E-03 0.  1.
</event>
<event>
 8    1  0.1111182E+005  0.1043930E+01  0.7957747E-01            NaN
         13   -1    0    0    0    0  0.00000000000E+00  0.00000000000E+00  0.74505805969E-08  0.10566000000E+00  0.10566000000E+00 0.  1.
     999900   -1    0    0    0    0 -0.00000000000E+00 -0.00000000000E+00 -0.74505805969E-08  0.93827000000E+00  0.93827000000E+00 0. -1.
     999902    2    1    2    0    0  0.22150696832E-01 -0.59193684503E-02 -0.94649159376E-02  0.10191252237E+01  0.10188233138E+01 0.  0.
     999903    2    3    3    0    0  0.20118829452E-01  0.12307015297E+00  0.26445337985E-01  0.12899491221E+00  0.19730727879E-01 0.  0.
         14    1    1    2    0    0 -0.22150696832E-01  0.59193684503E-02  0.94649159376E-02  0.24804776288E-01  0.00000000000E+00 0.  1.
     999901    1    3    3    0    0  0.20318673802E-02 -0.12898952142E+00 -0.35910253923E-01  0.89013031150E+00  0.88000000000E+00 0. -1.
        -11    1    4    4    0    0  0.51034708307E-02  0.60124880435E-01  0.21629228177E-01  0.64102506148E-01  0.51100000000E-03 0.  1.
         11    1    4    4    0    0  0.15015358621E-01  0.62945272539E-01  0.48161098079E-02  0.64892406060E-01  0.51100000000E-03 0. -1.
</event>
<event>
 8    1  0.1111182E+005  0.1043930E+01  0.7957747E-01            NaN
         13   -1    0    0    0    0  0.00000000000E+00  0.00000000000E+00  0.74505805969E-08  0.10566000000E+00  0.10566000000E+00 0. -1.
     999900   -1    0    0    0    0 -0.00000000000E+00 -0.00000000000E+00 -0.74505805969E-08  0.93827000000E+00  0.93827000000E+00 0.  1.
     999902    2    1    2    0    0  0.27127246859E-01  0.13052644660E-01  0.11682412963E-02  0.10138032039E+01  0.10133554719E+01 0.  0.
     999903    2    3    3    0    0  0.23529097166E-01  0.62891303419E-01 -0.10482970968E+00  0.12603498855E+00  0.19662549419E-01 0.  0.
         14    1    1    2    0    0 -0.27127246859E-01 -0.13052644660E-01 -0.11682412963E-02  0.30126796088E-01  0.00000000000E+00 0.  1.
     999901    1    3    3    0    0  0.35981496937E-02 -0.49838658759E-01  0.10599795097E+00  0.88776821536E+00  0.88000000000E+00 0. -1.
        -11    1    4    4    0    0  0.13971328867E-01  0.12767379775E-01 -0.27674494121E-01  0.33531220713E-01  0.51100000000E-03 0.  1.
         11    1    4    4    0    0  0.95577682983E-02  0.50123923644E-01 -0.77155215556E-01  0.92503767841E-01  0.51100000000E-03 0. -1.
</event>
<event>
 8    1  0.1111182E+005  0.1043930E+01  0.7957747E-01            NaN
         13   -1    0    0    0    0  0.00000000000E+00  0.00000000000E+00  0.74505805969E-08  0.10566000000E+00  0.10566000000E+00 0.  1.
     999900   -1    0    0    0    0 -0.00000000000E+00 -0.00000000000E+00 -0.74505805969E-08  0.93827000000E+00  0.93827000000E+00 0. -1.
     999902    2    1    2    0    0 -0.22937149992E-01  0.39073701122E-02 -0.31171009859E-02  0.10204545509E+01  0.10201844901E+01 0.  0.
     999903    2    3    3    0    0  0.63926064914E-01 -0.20753183336E-01 -0.10865429276E+00  0.12956092099E+00  0.21518376317E-01 0.  0.
         14    1    1    2    0    0  0.22937149992E-01 -0.39073701122E-02  0.31171009859E-02  0.23475449080E-01  0.00000000000E+00 0.  1.
     999901    1    3    3    0    0 -0.86863214906E-01  0.24660553449E-01  0.10553719177E+00  0.89089362993E+00  0.88000000000E+00 0.  1.
        -11    1    4    4    0    0  0.32718331692E-01 -0.17984880797E-01 -0.73692467327E-01  0.82612263180E-01  0.51100000000E-03 0.  1.
         11    1    4    4    0    0  0.31207733222E-01 -0.27683025392E-02 -0.34961825432E-01  0.46948657812E-01  0.51100000000E-03 0. -1.
</event>
<event>
 8    1  0.1111182E+005  0.1043930E+01  0.7957747E-01            NaN
         13   -1    0    0    0    0  0.00000000000E+00  0.00000000000E+00  0.74505805969E-08  0.10566000000E+00  0.10566000000E+00 0. -1.
     999900   -1    0    0    0    0 -0.00000000000E+00 -0.00000000000E+00 -0.74505805969E-08  0.93827000000E+00  0.93827000000E+00 0. -1.
     999902    2    1    2    0    0 -0.19202680023E-02 -0.21389616410E-01 -0.12077490781E-01  0.10192912317E+01  0.10189933985E+01 0.  0.
     999903    2    3    3    0    0  0.11673518769E+00 -0.51948784336E-01 -0.19925807483E-01  0.13076741324E+00  0.19424168495E-01 0.  0.
         14    1    1    2    0    0  0.19202680023E-02  0.21389616410E-01  0.12077490781E-01  0.24638768291E-01  0.00000000000E+00 0. -1.
     999901    1    3    3    0    0 -0.11865545570E+00  0.30559167927E-01  0.78483167021E-02  0.88852381847E+00  0.88000000000E+00 0. -1.
        -11    1    4    4    0    0  0.62383305264E-01 -0.28914821989E-01 -0.97730396787E-03  0.68767433792E-01  0.51100000000E-03 0. -1.
         11    1    4    4    0    0  0.54351882430E-01 -0.23033962347E-01 -0.18948503515E-01  0.61999979448E-01  0.51100000000E-03 0.  1.
</event>
<event>
 8    1  0.1111182E+005  0.1043930E+01  0.7957747E-01            NaN
         13   -1    0    0    0    0  0.00000000000E+00  0.00000000000E+00  0.74505805969E-08  0.10566000000E+00  0.10566000000E+00 0.  1.
     999900   -1    0    0    0    0 -0.00000000000E+00 -0.00000000000E+00 -0.74505805969E-08  0.93827000000E+00  0.93827000000E+00 0. -1.
     999902    2    1    2    0    0 -0.11422391760E-01  0.20389034238E-01 -0.57958019735E-02  0.10198514811E+01  0.10195671966E+01 0.  0.
     999903    2    3    3    0    0 -0.11594154321E+00 -0.46667847873E-01  0.31127461987E-01  0.13036612100E+00  0.20151355978E-01 0.  0.
         14    1    1    2    0    0  0.11422391760E-01 -0.20389034238E-01  0.57958019735E-02  0.24078518874E-01  0.00000000000E+00 0. -1.
     999901    1    3    3    0    0  0.10451915145E+00  0.67056882111E-01 -0.36923263960E-01  0.88948536013E+00  0.88000000000E+00 0. -1.
        -11    1    4    4    0    0 -0.10211135909E+00 -0.44556738449E-01  0.21743824767E-01  0.11351249990E+00  0.51100000000E-03 0.  1.
         11    1    4    4    0    0 -0.13830184120E-01 -0.21111094240E-02  0.93836372199E-02  0.16853621103E-01  0.51100000000E-03 0. -1.
</event>
<event>
 8    1  0.1111182E+005  0.1043930E+01  0.7957747E-01            NaN
         13   -1    0    0    0    0  0.00000000000E+00  0.00000000000E+00  0.74505805969E-08  0.10566000000E+00  0.10566000000E+00 0.  1.
     999900   -1    0    0    0    0 -0.00000000000E+00 -0.00000000000E+00 -0.74505805969E-08  0.93827000000E+00  0.93827000000E+00 0. -1.
     999902    2    1    2    0    0  0.86047299286E-02 -0.57629052535E-02 -0.20955389454E-01  0.10205552101E+01  0.10202874870E+01 0.  0.
     999903    2    3    3    0    0 -0.11548480483E+00  0.55139691570E-01 -0.29390699418E-02  0.12958274888E+00  0.20147579078E-01 0.  0.
         14    1    1    2    0    0 -0.86047299286E-02  0.57629052535E-02  0.20955389454E-01  0.23374789866E-01  0.00000000000E+00 0.  1.
     999901    1    3    3    0    0  0.12408953476E+00 -0.60902596824E-01 -0.18016319513E-01  0.89097246125E+00  0.88000000000E+00 0.  1.
        -11    1    4    4    0    0 -0.75982516114E-01  0.34873396020E-01 -0.11414726775E-01  0.84380410128E-01  0.51100000000E-03 0.  1.
         11    1    4    4    0    0 -0.39502288718E-01  0.20266295550E-01  0.84756568334E-02  0.45202338756E-01  0.51100000000E-03 0. -1.
</event>
<event>
 8    1  0.1111182E+005  0.1043930E+01  0.7957747E-01            NaN
         13   -1    0    0    0    0  0.00000000000E+00  0.00000000000E+00  0.74505805969E-08  0.10566000000E+00  0.10566000000E+00 0.  1.
     999900   -1    0    0    0    0 -0.00000000000E+00 -0.00000000000E+00 -0.74505805969E-08  0.93827000000E+00  0.93827000000E+00 0.  1.
     999902    2    1    2    0    0 -0.16596198574E-01 -0.19723130164E-02 -0.16766617500E-01  0.10202563165E+01  0.10199816215E+01 0.  0.
     999903    2    3    3    0    0  0.12597158918E+00  0.87212684806E-02  0.10748734172E-01  0.12829386142E+00  0.19971924945E-01 0.  0.
         14    1    1    2    0    0  0.16596198574E-01  0.19723130164E-02  0.16766617500E-01  0.23673683451E-01  0.00000000000E+00 0.  1.
     999901    1    3    3    0    0 -0.14256778775E+00 -0.10693581497E-01 -0.27515351672E-01  0.89196245513E+00  0.88000000000E+00 0. -1.
        -11    1    4    4    0    0  0.10861934660E+00  0.63956532220E-03  0.76004849267E-02  0.10888801583E+00  0.51100000000E-03 0.  1.
         11    1    4    4    0    0  0.17352242579E-01  0.80817031584E-02  0.31482492454E-02  0.19405845583E-01  0.51100000000E-03 0. -1.
</event>
<event>
 8    1  0.1111182E+005  0.1043930E+01  0.7957747E-01            NaN
         13   -1    0    0    0    0  0.00000000000E+00  0.00000000000E+00  0.74505805969E-08  0.10566000000E+00  0.10566000000E+00 0.  1.
     999900   -1    0    0    0    0 -0.00000000000E+00 -0.00000000000E+00 -0.74505805969E-08  0.93827000000E+00  0.93827000000E+00 0. -1.
     999902    2    1    2    0    0 -0.18430946331E-01 -0.13688185995E-01  0.49731795595E-02  0.10204396034E+01  0.10201691945E+01 0.  0.
     999903    2    3    3    0    0  0.13986161666E-01  0.11691219351E+00 -0.47372346200E-01  0.12867316418E+00  0.21179477918E-01 0.  0.
         14    1    1    2    0    0  0.18430946331E-01  0.13688185995E-01 -0.49731795595E-02  0.23490396621E-01  0.00000000000E+00 0.  1.
     999901    1    3    3    0    0 -0.32417107997E-01 -0.13060037951E+00  0.52345525760E-01  0.89176643920E+00  0.88000000000E+00 0.  1.
        -11    1    4    4    0    0  0.16925843496E-01  0.62577499878E-01 -0.20564836530E-01  0.68011773184E-01  0.51100000000E-03 0. -1.
         11    1    4    4    0    0 -0.29396818306E-02  0.54334693635E-01 -0.26807509670E-01  0.60661390994E-01  0.51100000000E-03 0.  1.
</event>
<event>
 8    1  0.1111182E+005  0.1043930E+01  0.7957747E-01            NaN
         13   -1    0    0    0    0  0.00000000000E+00  0.00000000000E+00  0.74505805969E-08  0.10566000000E+00  0.10566000000E+00 0. -1.
     999900   -1    0    0    0    0 -0.00000000000E+00 -0.00000000000E+00 -0.74505805969E-08  0.93827000000E+00  0.93827000000E+00 0.  1.
     999902    2    1    2    0    0  0.21467800638E-01 -0.44735727876E-02  0.83099639760E-02  0.10204793109E+01  0.10202098260E+01 0.  0.
     999903    2    3    3    0    0 -0.64244807914E-01  0.90205190177E-01  0.63901957152E-01  0.12952409928E+00  0.20704117636E-01 0.  0.
         14    1    1    2    0    0 -0.21467800638E-01  0.44735727876E-02 -0.83099639760E-02  0.23450689095E-01  0.00000000000E+00 0.  1.
     999901    1    3    3    0    0  0.85712608552E-01 -0.94678762965E-01 -0.55591993176E-01  0.89095521163E+00  0.88000000000E+00 0.  1.
        -11    1    4    4    0    0 -0.29586626515E-01  0.38157239630E-01  0.39549604596E-01  0.62416149748E-01  0.51100000000E-03 0.  1.
         11    1    4    4    0    0 -0.34658181398E-01  0.52047950547E-01  0.24352352556E-01  0.67107949529E-01  0.51100000000E-03 0. -1.
</event>
<event>
 8    1  0.1111182E+005  0.1043930E+01  0.7957747E-01            NaN
         13   -1    0    0    0    0  0.00000000000E+00  0.00000000000E+00  0.74505805969E-08  0.10566000000E+00  0.10566000000E+00 0.  1.
     999900   -1    0    0    0    0 -0.00000000000E+00 -0.00000000000E+00 -0.74505805969E-08  0.93827000000E+00  0.93827000000E+00 0. -1.
     999902    2    1    2    0    0  0.26990555801E-02  0.87256210090E-02  0.21991252574E-01  0.10201174707E+01  0.10198395057E+01 0.  0.
     999903    2    3    3    0    0  0.41850886311E-01  0.11041002563E+00  0.56993160262E-01  0.13270678924E+00  0.20518312477E-01 0.  0.
         14    1    1    2    0    0 -0.26990555801E-02 -0.87256210090E-02 -0.21991252574E-01  0.23812529324E-01  0.00000000000E+00 0. -1.
     999901    1    3    3    0    0 -0.39151830731E-01 -0.10168440463E+00 -0.35001907688E-01  0.88741068144E+00  0.88000000000E+00 0.  1.
        -11    1    4    4    0    0  0.21704993568E-01  0.31872327376E-01  0.14831699039E-01  0.41318185047E-01  0.51100000000E-03 0. -1.
         11    1    4    4    0    0  0.20145892743E-01  0.78537698258E-01  0.42161461223E-01  0.91388604188E-01  0.51100000000E-03 0.  1.
</event>
<event>
 8    1  0.1111182E+005  0.1043930E+01  0.7957747E-01            NaN
         13   -1    0    0    0    0  0.00000000000E+00  0.00000000000E+00  0.74505805969E-08  0.10566000000E+00  0.10566000000E+00 0.  1.
     999900   -1    0    0    0    0 -0.00000000000E+00 -0.00000000000E+00 -0.74505805969E-08  0.93827000000E+00  0.93827000000E+00 0.  1.
     999902    2    1    2    0    0  0.13134027428E-01 -0.11676213480E-02 -0.19927010713E-01  0.10200354029E+01  0.10197554959E+01 0.  0.
     999903    2    3    3    0    0  0.45203613007E-01  0.56039806285E-01 -0.10892340283E+00  0.13311854887E+00  0.25930943909E-01 0.  0.
         14    1    1    2    0    0 -0.13134027428E-01  0.11676213480E-02  0.19927010713E-01  0.23894597131E-01  0.00000000000E+00 0.  1.
     999901    1    3    3    0    0 -0.32069585579E-01 -0.57207427633E-01  0.88996392118E-01  0.88691685400E+00  0.88000000000E+00 0. -1.
        -11    1    4    4    0    0  0.19984635539E-01  0.37139261808E-01 -0.44012445131E-01  0.60959551120E-01  0.51100000000E-03 0.  1.
         11    1    4    4    0    0  0.25218977468E-01  0.18900544477E-01 -0.64910957699E-01  0.72158997752E-01  0.51100000000E-03 0. -1.
</event>
<event>
 8    1  0.1111182E+005  0.1043930E+01  0.7957747E-01            NaN
         13   -1    0    0    0    0  0.00000000000E+00  0.00000000000E+00  0.74505805969E-08  0.10566000000E+00  0.10566000000E+00 0.  1.
     999900   -1    0    0    0    0 -0.00000000000E+00 -0.00000000000E+00 -0.74505805969E-08  0.93827000000E+00  0.93827000000E+00 0. -1.
     999902    2    1    2    0    0 -0.36842218380E-02  0.20851651379E-01 -0.10650673566E-01  0.10202276435E+01  0.10199522748E+01 0.  0.
     999903    2    3    3    0    0  0.11478839972E-01  0.14917405876E-01  0.12648738029E+00  0.12945720197E+00  0.20144900207E-01 0.  0.
         14    1    1    2    0    0  0.36842218380E-02 -0.20851651379E-01  0.10650673566E-01  0.23702356490E-01  0.00000000000E+00 0.  1.
     999901    1    3    3    0    0 -0.15163061810E-01  0.59342455025E-02 -0.13713805385E+00  0.89077044154E+00  0.88000000000E+00 0. -1.
        -11    1    4    4    0    0  0.81549917521E-02 -0.45860309004E-03  0.79145274517E-01  0.79567265924E-01  0.51100000000E-03 0. -1.
         11    1    4    4    0    0  0.33238482197E-02  0.15376008966E-01  0.47342105769E-01  0.49889936043E-01  0.51100000000E-03 0.  1.
</event>
<event>
 8    1  0.1111182E+005  0.1043930E+01  0.7957747E-01            NaN
         13   -1    0    0    0    0  0.00000000000E+00  0.00000000000E+00  0.74505805969E-08  0.10566000000E+00  0.10566000000E+00 0. -1.
     999900   -1    0    0    0    0 -0.00000000000E+00 -0.00000000000E+00 -0.74505805969E-08  0.93827000000E+00  0.93827000000E+00 0. -1.
     999902    2    1    2    0    0 -0.37048677351E-02 -0.17743858050E-01 -0.11949055278E-01  0.10222193928E+01  0.10219888143E+01 0.  0.
     999903    2    3    3    0    0  0.11597687141E+00  0.47179013650E-01  0.31432916880E-01  0.13069222357E+00  0.20394484705E-01 0.  0.
         14    1    1    2    0    0  0.37048677351E-02  0.17743858050E-01  0.11949055278E-01  0.21710607211E-01  0.00000000000E+00 0. -1.
     999901    1    3    3    0    0 -0.11968173914E+00 -0.64922871700E-01 -0.43381972158E-01  0.89152716922E+00  0.88000000000E+00 0.  1.
        -11    1    4    4    0    0  0.38103370956E-01  0.81279195173E-02  0.16455248529E-01  0.42296173338E-01  0.51100000000E-03 0.  1.
         11    1    4    4    0    0  0.77873500452E-01  0.39051094133E-01  0.14977668350E-01  0.88396050228E-01  0.51100000000E-03 0. -1.
</event>
<event>
 7    1  0.1111182E+005  0.1043930E+01  0.7957747E-01            NaN
         13   -1    0    0    0    0  0.00000000000E+00  0.00000000000E+00  0.74505805969E-08  0.10566000000E+00  0.10566000000E+00 0. -1.
     999900   -1    0    0    0    0 -0.00000000000E+00 -0.00000000000E+00 -0.74505805969E-08  0.93827000000E+00  0.93827000000E+00 0.  1.
     999903    2    1    2    0    0 -0.41638297268E-01 -0.32038764376E-01  0.50503625172E-01  0.75807860578E-01  0.20880262157E-01 0.  0.
         14    1    1    2    0    0 -0.20384604048E-01 -0.75395987824E-01 -0.39525184831E-02  0.78203001634E-01  0.00000000000E+00 0.  1.
     999901    1    1    2    0    0  0.62022901316E-01  0.10743475220E+00 -0.46551106689E-01  0.88991913779E+00  0.88000000000E+00 0.  1.
        -11    1    3    3    0    0 -0.25947097269E-02 -0.77530602600E-02  0.10162328269E-02  0.82544722497E-02  0.51100000000E-03 0. -1.
         11    1    3    3    0    0 -0.39043587541E-01 -0.24285704116E-01  0.49487392346E-01  0.67553388328E-01  0.51100000000E-03 0.  1.
</event>
<event>
 8    1  0.1111182E+005  0.1043930E+01  0.7957747E-01            NaN
         13   -1    0    0    0    0  0.00000000000E+00  0.00000000000E+00  0.74505805969E-08  0.10566000000E+00  0.10566000000E+00 0.  1.
     999900   -1    0    0    0    0 -0.00000000000E+00 -0.00000000000E+00 -0.74505805969E-08  0.93827000000E+00  0.93827000000E+00 0.  1.
     999902    2    1    2    0    0  0.22058750918E-02 -0.18416768104E-01  0.15705624576E-01  0.10196254762E+01  0.10193357650E+01 0.  0.
     999903    2    3    3    0    0 -0.46255679137E-01  0.10339645354E+00 -0.54843297579E-01  0.12712105965E+00  0.17932151563E-01 0.  0.
         14    1    1    2    0    0 -0.22058750918E-02  0.18416768104E-01 -0.15705624576E-01  0.24304523769E-01  0.00000000000E+00 0. -1.
     999901    1    3    3    0    0  0.48461554228E-01 -0.12181322164E+00  0.70548922155E-01  0.89250441658E+00  0.88000000000E+00 0.  1.
        -11    1    4    4    0    0 -0.90049289265E-02  0.33296960734E-01 -0.23665180991E-01  0.41833936600E-01  0.51100000000E-03 0. -1.
         11    1    4    4    0    0 -0.37250750210E-01  0.70099492804E-01 -0.31178116587E-01  0.85287123047E-01  0.51100000000E-03 0.  1.
</event>
<event>
 8    1  0.1111182E+005  0.1043930E+01  0.7957747E-01            NaN
         13   -1    0    0    0    0  0.00000000000E+00  0.00000000000E+00  0.74505805969E-08  0.10566000000E+00  0.10566000000E+00 0. -1.
     999900   -1    0    0    0    0 -0.00000000000E+00 -0.00000000000E+00 -0.74505805969E-08  0.93827000000E+00  0.93827000000E+00 0.  1.
     999902    2    1    2    0    0  0.12121868972E-02  0.18591074382E-01 -0.12213806333E-01  0.10216527805E+01  0.10214098734E+01 0.  0.
     999903    2    3    3    0    0 -0.11591733572E+00  0.37627428910E-01  0.46428001710E-01  0.13175358985E+00  0.18729574717E-01 0.  0.
         14    1    1    2    0    0 -0.12121868972E-02 -0.18591074382E-01  0.12213806333E-01  0.22277219505E-01  0.00000000000E+00 0. -1.
     999901    1    3    3    0    0  0.11712952261E+00 -0.19036354529E-01 -0.58641808043E-01  0.88989919065E+00  0.88000000000E+00 0.  1.
        -11    1    4    4    0    0 -0.49896887698E-01  0.15705017649E-01  0.29883535798E-01  0.60246442335E-01  0.51100000000E-03 0.  1.
         11    1    4    4    0    0 -0.66020448020E-01  0.21922411261E-01  0.16544465912E-01  0.71507147514E-01  0.51100000000E-03 0. -1.
</event>
<event>
 8    1  0.1111182E+005  0.1043930E+01  0.7957747E-01            NaN
         13   -1    0    0    0    0  0.00000000000E+00  0.00000000000E+00  0.74505805969E-08  0.10566000000E+00  0.10566000000E+00 0.  1.
     999900   -1    0    0    0    0 -0.00000000000E+00 -0.00000000000E+00 -0.74505805969E-08  0.93827000000E+00  0.93827000000E+00 0. -1.
     999902    2    1    2    0    0  0.12805436798E-01  0.14234055388E-01  0.12851557170E-01  0.10208702935E+01  0.10206098206E+01 0.  0.
     999903    2    3    3    0    0  0.42068638020E-01 -0.10050332289E+00  0.70015194429E-01  0.13110140079E+00  0.20365697166E-01 0.  0.
         14    1    1    2    0    0 -0.12805436798E-01 -0.14234055388E-01 -0.12851557170E-01  0.23059706548E-01  0.00000000000E+00 0. -1.
     999901    1    3    3    0    0 -0.29263201222E-01  0.11473737828E+00 -0.57163637259E-01  0.88976889266E+00  0.88000000000E+00 0. -1.
        -11    1    4    4    0    0  0.30332132174E-01 -0.46812491366E-01  0.32538603081E-01  0.64579171577E-01  0.51100000000E-03 0. -1.
         11    1    4    4    0    0  0.11736505847E-01 -0.53690831529E-01  0.37476591348E-01  0.66522229216E-01  0.51100000000E-03 0.  1.
</event>
<event>
 8    1  0.1111182E+005  0.1043930E+01  0.7957747E-01            NaN
         13   -1    0    0    0    0  0.00000000000E+00  0.00000000000E+00  0.74505805969E-08  0.10566000000E+00  0.10566000000E+00 0.  1.
     999900   -1    0    0    0    0 -0.00000000000E+00 -0.00000000000E+00 -0.74505805969E-08  0.93827000000E+00  0.93827000000E+00 0. -1.
     999902    2    1    2    0    0  0.17790250479E-01 -0.95496763026E-02  0.79938653687E-02  0.10222138490E+01  0.10219831515E+01 0.  0.
     999903    2    3    3    0    0  0.70529450480E-01 -0.38579458412E-01  0.10717047436E+00  0.13459898252E+00  0.12984510988E-01 0.  0.
         14    1    1    2    0    0 -0.17790250479E-01  0.95496763026E-02 -0.79938653687E-02  0.21716150974E-01  0.00000000000E+00 0. -1.
     999901    1    3    3    0    0 -0.52739200000E-01  0.29029782109E-01 -0.99176608991E-01  0.88761486650E+00  0.88000000000E+00 0. -1.
        -11    1    4    4    0    0  0.19043412230E-01 -0.63909432425E-02  0.34222196798E-01  0.39685206054E-01  0.51100000000E-03 0.  1.
         11    1    4    4    0    0  0.51486038250E-01 -0.32188515169E-01  0.72948277562E-01  0.94913776469E-01  0.51100000000E-03 0. -1.
</event>
<event>
 8    1  0.1111182E+005  0.1043930E+01  0.7957747E-01            NaN
         13   -1    0    0    0    0  0.00000000000E+00  0.00000000000E+00  0.74505805969E-08  0.10566000000E+00  0.10566000000E+00 0.  1.
     999900   -1    0    0    0    0 -0.00000000000E+00 -0.00000000000E+00 -0.74505805969E-08  0.93827000000E+00  0.93827000000E+00 0. -1.
     999902    2    1    2    0    0  0.50790402314E-02  0.22233376657E-01  0.50537654417E-02  0.10205706286E+01  0.10203032626E+01 0.  0.
     999903    2    3    3    0    0 -0.94298458847E-01 -0.51118549967E-01  0.70705831709E-01  0.12952260168E+00  0.16476778117E-01 0.  0.
         14    1    1    2    0    0 -0.50790402314E-02 -0.22233376657E-01 -0.50537654417E-02  0.23359371404E-01  0.00000000000E+00 0. -1.
     999901    1    3    3    0    0  0.99377499078E-01  0.73351926624E-01 -0.65652066267E-01  0.89104802691E+00  0.88000000000E+00 0. -1.
        -11    1    4    4    0    0 -0.80791006748E-01 -0.39459370445E-01  0.64372336798E-01  0.11058158777E+00  0.51100000000E-03 0.  1.
         11    1    4    4    0    0 -0.13507452099E-01 -0.11659179522E-01  0.63334949112E-02  0.18941013915E-01  0.51100000000E-03 0. -1.
</event>
<event>
 8    1  0.1111182E+005  0.1043930E+01  0.7957747E-01            NaN
         13   -1    0    0    0    0  0.00000000000E+00  0.00000000000E+00  0.74505805969E-08  0.10566000000E+00  0.10566000000E+00 0.  1.
     999900   -1    0    0    0    0 -0.00000000000E+00 -0.00000000000E+00 -0.74505805969E-08  0.93827000000E+00  0.93827000000E+00 0. -1.
     999902    2    1    2    0    0 -0.12453050951E-01 -0.16116940865E-01  0.12204280145E-01  0.10201859752E+01  0.10199096260E+01 0.  0.
     999903    2    3    3    0    0  0.42268508382E-01 -0.11375493075E+00 -0.45793511469E-01  0.13120264015E+00  0.19755404777E-01 0.  0.
         14    1    1    2    0    0  0.12453050951E-01  0.16116940865E-01 -0.12204280145E-01  0.23744024822E-01  0.00000000000E+00 0. -1.
     999901    1    3    3    0    0 -0.54721559333E-01  0.97637989889E-01  0.57997791615E-01  0.88898333503E+00  0.88000000000E+00 0. -1.
        -11    1    4    4    0    0  0.30210656595E-01 -0.80634503747E-01 -0.22667738223E-01  0.89043216718E-01  0.51100000000E-03 0. -1.
         11    1    4    4    0    0  0.12057851787E-01 -0.33120427008E-01 -0.23125773246E-01  0.42159423432E-01  0.51100000000E-03 0.  1.
</event>
<event>
 8    1  0.1111182E+005  0.1043930E+01  0.7957747E-01            NaN
         13   -1    0    0    0    0  0.00000000000E+00  0.00000000000E+00  0.74505805969E-08  0.10566000000E+00  0.10566000000E+00 0.  1.
     999900   -1    0    0    0    0 -0.00000000000E+00 -0.00000000000E+00 -0.74505805969E-08  0.93827000000E+00  0.93827000000E+00 0.  1.
     999902    2    1    2    0    0  0.61500583082E-02 -0.22733349398E-01 -0.28145946637E-02  0.10202118564E+01  0.10199361164E+01 0.  0.
     999903    2    3    3    0    0 -0.39729892152E-01  0.28022670527E-01 -0.11878413895E+00  0.12997027200E+00  0.20466204936E-01 0.  0.
         14    1    1    2    0    0 -0.61500583082E-02  0.22733349398E-01  0.28145946637E-02  0.23718143586E-01  0.00000000000E+00 0. -1.
     999901    1    3    3    0    0  0.45879950460E-01 -0.50756019925E-01  0.11596954429E+00  0.89024158441E+00  0.88000000000E+00 0. -1.
        -11    1    4    4    0    0 -0.11870905761E-01 -0.11108626205E-02 -0.35295226291E-01  0.37258107028E-01  0.51100000000E-03 0.  1.
         11    1    4    4    0    0 -0.27858986391E-01  0.29133533148E-01 -0.83488912659E-01  0.92712164975E-01  0.51100000000E-03 0. -1.
</event>
<event>
 8    1  0.1111182E+005  0.1043930E+01  0.7957747E-01            NaN
         13   -1    0    0    0    0  0.00000000000E+00  0.00000000000E+00  0.74505805969E-08  0.10566000000E+00  0.10566000000E+00 0. -1.
     999900   -1    0    0    0    0 -0.00000000000E+00 -0.00000000000E+00 -0.74505805969E-08  0.93827000000E+00  0.93827000000E+00 0. -1.
     999902    2    1    2    0    0  0.12875612001E-01 -0.19637127340E-01 -0.37785888258E-02  0.10201460582E+01  0.10198687681E+01 0.  0.
     999903    2    3    3    0    0 -0.12389443756E+00 -0.81656174075E-02 -0.29476359906E-01  0.12913650861E+00  0.19770510767E-01 0.  0.
         14    1    1    2    0    0 -0.12875612001E-01  0.19637127340E-01  0.37785888258E-02  0.23783941811E-01  0.00000000000E+00 0.  1.
     999901    1    3    3    0    0  0.13677004957E+00 -0.11471509932E-01  0.25697771080E-01  0.89100954958E+00  0.88000000000E+00 0. -1.
        -11    1    4    4    0    0 -0.90426472393E-01 -0.11210684835E-01 -0.14209203676E-01  0.92221412665E-01  0.51100000000E-03 0. -1.
         11    1    4    4    0    0 -0.33467965172E-01  0.30450674273E-02 -0.15267156230E-01  0.36915095947E-01  0.51100000000E-03 0.  1.
</event>
<event>
 8    1  0.1111182E+005  0.1043930E+01  0.7957747E-01            NaN
         13   -1    0    0    0    0  0.00000000000E+00  0.00000000000E+00  0.74505805969E-08  0.10566000000E+00  0.10566000000E+00 0. -1.
     999900   -1    0    0    0    0 -0.00000000000E+00 -0.00000000000E+00 -0.74505805969E-08  0.93827000000E+00  0.93827000000E+00 0.  1.
     999902    2    1    2    0    0  0.76762064085E-02  0.23267796014E-01  0.79279264563E-02  0.10181779808E+01  0.10178522653E+01 0.  0.
     999903    2    3    3    0    0 -0.97197216259E-01  0.82451545039E-01  0.15794332171E-01  0.12994207108E+00  0.19746513128E-01 0.  0.
         14    1    1    2    0    0 -0.76762064085E-02 -0.23267796014E-01 -0.79279264563E-02  0.25752019223E-01  0.00000000000E+00 0.  1.
     999901    1    3    3    0    0  0.10487342267E+00 -0.59183749026E-01 -0.78664057151E-02  0.88823590969E+00  0.88000000000E+00 0.  1.
        -11    1    4    4    0    0 -0.57173926562E-01  0.57021127133E-01  0.29149678667E-02  0.80802382246E-01  0.51100000000E-03 0. -1.
         11    1    4    4    0    0 -0.40023289697E-01  0.25430417906E-01  0.12879364305E-01  0.49139688837E-01  0.51100000000E-03 0.  1.
</event>
<event>
 8    1  0.1111182E+005  0.1043930E+01  0.7957747E-01            NaN
         13   -1    0    0    0    0  0.00000000000E+00  0.00000000000E+00  0.74505805969E-08  0.10566000000E+00  0.10566000000E+00 0. -1.
     999900   -1    0    0    0    0 -0.00000000000E+00 -0.00000000000E+00 -0.74505805969E-08  0.93827000000E+00  0.93827000000E+00 0.  1.
     999902    2    1    2    0    0 -0.29851708381E-02  0.13918153590E-01 -0.14118569752E-01  0.10238810535E+01  0.10236847422E+01 0.  0.
     999903    2    3    3    0    0 -0.73247313023E-01 -0.42211140322E-01 -0.10312574631E+00  0.13483125526E+00  0.19939874854E-01 0.  0.
         14    1    1    2    0    0  0.29851708381E-02 -0.13918153590E-01  0.14118569752E-01  0.20048946509E-01  0.00000000000E+00 0. -1.
     999901    1    3    3    0    0  0.70262142185E-01  0.56129293912E-01  0.89007176562E-01  0.88904979823E+00  0.88000000000E+00 0.  1.
        -11    1    4    4    0    0 -0.15263176817E-01 -0.22125550359E-02 -0.11442900287E-01  0.19210961826E-01  0.51100000000E-03 0.  1.
         11    1    4    4    0    0 -0.57984136206E-01 -0.39998585286E-01 -0.91682846027E-01  0.11562029343E+00  0.51100000000E-03 0. -1.
</event>
<event>
 8    1  0.1111182E+005  0.1043930E+01  0.7957747E-01            NaN
         13   -1    0    0    0    0  0.00000000000E+00  0.00000000000E+00  0.74505805969E-08  0.10566000000E+00  0.10566000000E+00 0.  1.
     999900   -1    0    0    0    0 -0.00000000000E+00 -0.00000000000E+00 -0.74505805969E-08  0.93827000000E+00  0.93827000000E+00 0.  1.
     999902    2    1    2    0    0 -0.19669206735E-02 -0.88512228237E-02  0.21354685717E-01  0.10207300965E+01  0.10204664102E+01 0.  0.
     999903    2    3    3    0    0 -0.59056992687E-01  0.11404285249E+00  0.92444529675E-02  0.13027578106E+00  0.19819652613E-01 0.  0.
         14    1    1    2    0    0  0.19669206735E-02  0.88512228237E-02 -0.21354685717E-01  0.23199903545E-01  0.00000000000E+00 0. -1.
     999901    1    3    3    0    0  0.57090072013E-01 -0.12289407532E+00  0.12110232750E-01  0.89045431540E+00  0.88000000000E+00 0.  1.
        -11    1    4    4    0    0 -0.34063248387E-01  0.83191592329E-01  0.10761723207E-01  0.90538509664E-01  0.51100000000E-03 0.  1.
         11    1    4    4    0    0 -0.24993744300E-01  0.30851260165E-01 -0.15172702393E-02  0.39737271394E-01  0.51100000000E-03 0. -1.
</event>
<event>
 8    1  0.1111182E+005  0.1043930E+01  0.7957747E-01            NaN
         13   -1    0    0    0    0  0.00000000000E+00  0.00000000000E+00  0.74505805969E-08  0.10566000000E+00  0.10566000000E+00 0. -1.
     999900   -1    0    0    0    0 -0.00000000000E+00 -0.00000000000E+00 -0.74505805969E-08  0.93827000000E+00  0.93827000000E+00 0. -1.
     999902    2    1    2    0    0 -0.86033408742E-02 -0.85230643924E-02  0.20278684405E-01  0.10203104077E+01  0.10200369811E+01 0.  0.
     999903    2    3    3    0    0  0.24563513525E-01 -0.12696028447E+00 -0.10580533001E-01  0.13122115083E+00  0.19615369365E-01 0.  0.
         14    1    1    2    0    0  0.86033408742E-02  0.85230643924E-02 -0.20278684405E-01  0.23619592334E-01  0.00000000000E+00 0.  1.
     999901    1    3    3    0    0 -0.33166854399E-01  0.11843722008E+00  0.30859217406E-01  0.88908925684E+00  0.88000000000E+00 0. -1.
        -11    1    4    4    0    0  0.18367461667E-01 -0.68109999669E-01  0.26016462339E-02  0.70592955648E-01  0.51100000000E-03 0.  1.
         11    1    4    4    0    0  0.61960518579E-02 -0.58850284803E-01 -0.13182179235E-01  0.60628195177E-01  0.51100000000E-03 0. -1.
</event>
<event>
 8    1  0.1111182E+005  0.1043930E+01  0.7957747E-01            NaN
         13   -1    0    0    0    0  0.00000000000E+00  0.00000000000E+00  0.74505805969E-08  0.10566000000E+00  0.10566000000E+00 0. -1.
     999900   -1    0    0    0    0 -0.00000000000E+00 -0.00000000000E+00 -0.74505805969E-08  0.93827000000E+00  0.93827000000E+00 0.  1.
     999902    2    1    2    0    0 -0.38229244107E-02  0.94811349712E-02 -0.21061200246E-01  0.10205188739E+01  0.10202503080E+01 0.  0.
     999903    2    3    3    0    0  0.69511239618E-01 -0.14548771360E-01  0.10488421571E+00  0.12820862299E+00  0.19831114989E-01 0.  0.
         14    1    1    2    0    0  0.38229244107E-02 -0.94811349712E-02  0.21061200246E-01  0.23411126141E-01  0.00000000000E+00 0.  1.
     999901    1    3    3    0    0 -0.73334164028E-01  0.24029906331E-01 -0.12594541596E+00  0.89231025087E+00  0.88000000000E+00 0.  1.
        -11    1    4    4    0    0  0.54682744084E-02  0.42738070876E-02  0.90188725375E-02  0.11391603701E-01  0.51100000000E-03 0. -1.
         11    1    4    4    0    0  0.64042965209E-01 -0.18822578448E-01  0.95865343172E-01  0.11681701929E+00  0.51100000000E-03 0.  1.
</event>
<event>
 8    1  0.1111182E+005  0.1043930E+01  0.7957747E-01            NaN
         13   -1    0    0    0    0  0.00000000000E+00  0.00000000000E+00  0.74505805969E-08  0.10566000000E+00  0.10566000000E+00 0.  1.
     999900   -1    0    0    0    0 -0.00000000000E+00 -0.00000000000E+00 -0.74505805969E-08  0.93827000000E+00  0.93827000000E+00 0.  1.
     999902    2    1    2    0    0 -0.12595012448E-02 -0.15957674635E-01  0.18004484459E-01  0.10198386077E+01  0.10195540155E+01 0.  0.
     999903    2    3    3    0    0  0.10396149527E+00 -0.23076470657E-01  0.75048617352E-01  0.13170789182E+00  0.19343159070E-01 0.  0.
         14    1    1    2    0    0  0.12595012448E-02  0.15957674635E-01 -0.18004484459E-01  0.24091392318E-01  0.00000000000E+00 0. -1.
     999901    1    3    3    0    0 -0.10522099652E+00  0.71187960214E-02 -0.57044132893E-01  0.88813071586E+00  0.88000000000E+00 0.  1.
        -11    1    4    4    0    0  0.77163440057E-01 -0.24410127724E-01  0.50922029504E-01  0.95620944498E-01  0.51100000000E-03 0.  1.
         11    1    4    4    0    0  0.26798055218E-01  0.13336570674E-02  0.24126587848E-01  0.36086947319E-01  0.51100000000E-03 0. -1.
</event>
<event>
 7    1  0.1111182E+005  0.1043930E+01  0.7957747E-01            NaN
         13   -1    0    0    0    0  0.00000000000E+00  0.00000000000E+00  0.74505805969E-08  0.10566000000E+00  0.10566000000E+00 0. -1.
     999900   -1    0    0    0    0 -0.00000000000E+00 -0.00000000000E+00 -0.74505805969E-08  0.93827000000E+00  0.93827000000E+00 0.  1.
     999902    2    1    2    0    0  0.70822714124E-02  0.15124433414E-01 -0.16754045809E-01  0.10202740260E+01  0.10199997466E+01 0.  0.
         14    1    1    2    0    0 -0.70822714124E-02 -0.15124433414E-01  0.16754045809E-01  0.23655973990E-01  0.00000000000E+00 0. -1.
     999901    1    3    3    0    0 -0.58461047821E-01 -0.28510440182E-01  0.84480507068E-01  0.88643527422E+00  0.88000000000E+00 0. -1.
        -11    1    3    3    0    0  0.26168237845E-01  0.17550707793E-01 -0.13676405798E-01  0.34352717687E-01  0.51100000000E-03 0. -1.
         11    1    3    3    0    0  0.39375081388E-01  0.26084165803E-01 -0.87558147079E-01  0.99486034100E-01  0.51100000000E-03 0.  1.
</event>
<event>
 8    1  0.1111182E+005  0.1043930E+01  0.7957747E-01            NaN
         13   -1    0    0    0    0  0.00000000000E+00  0.00000000000E+00  0.74505805969E-08  0.10566000000E+00  0.10566000000E+00 0. -1.
     999900   -1    0    0    0    0 -0.00000000000E+00 -0.00000000000E+00 -0.74505805969E-08  0.93827000000E+00  0.93827000000E+00 0.  1.
     999902    2    1    2    0    0 -0.38977716070E-02  0.19885714012E-01  0.12441949199E-01  0.10201510945E+01  0.10198739233E+01 0.  0.
     999903    2    3    3    0    0  0.34678992942E-01  0.71918693635E-01  0.10446978899E+00  0.13298441289E+00  0.19899402351E-01 0.  0.
         14    1    1    2    0    0  0.38977716070E-02 -0.19885714012E-01 -0.12441949199E-01  0.23778905466E-01  0.00000000000E+00 0.  1.
     999901    1    3    3    0    0 -0.38576764549E-01 -0.52032979623E-01 -0.92027839787E-01  0.88716668165E+00  0.88000000000E+00 0.  1.
        -11    1    4    4    0    0  0.36357994690E-01  0.60138574343E-01  0.86945906425E-01  0.11179625963E+00  0.51100000000E-03 0. -1.
         11    1    4    4    0    0 -0.16790017479E-02  0.11780119292E-01  0.17523882562E-01  0.21188153257E-01  0.51100000000E-03 0.  1.
</event>
<event>
 8    1  0.1111182E+005  0.1043930E+01  0.7957747E-01            NaN
         13   -1    0    0    0    0  0.00000000000E+00  0.00000000000E+00  0.74505805969E-08  0.10566000000E+00  0.10566000000E+00 0. -1.
     999900   -1    0    0    0    0 -0.00000000000E+00 -0.00000000000E+00 -0.74505805969E-08  0.93827000000E+00  0.93827000000E+00 0.  1.
     999902    2    1    2    0    0 -0.15062788091E-01 -0.44628551497E-02 -0.13980890661E-01  0.10228997845E+01  0.10226835772E+01 0.  0.
     999903    2    3    3    0    0  0.81732480865E-01  0.99282322447E-01 -0.18883578349E-01  0.13152084020E+00  0.20098853088E-01 0.  0.
         14    1    1    2    0    0  0.15062788091E-01  0.44628551497E-02  0.13980890661E-01  0.21030215521E-01  0.00000000000E+00 0. -1.
     999901    1    3    3    0    0 -0.96795268956E-01 -0.10374517760E+00  0.49026876873E-02  0.89137894428E+00  0.88000000000E+00 0.  1.
        -11    1    4    4    0    0  0.35915730671E-01  0.33982025024E-01 -0.14927553888E-01  0.51650854014E-01  0.51100000000E-03 0. -1.
         11    1    4    4    0    0  0.45816750194E-01  0.65300297423E-01 -0.39560244608E-02  0.79869986181E-01  0.51100000000E-03 0.  1.
</event>
<event>
 8    1  0.1111182E+005  0.1043930E+01  0.7957747E-01            NaN
         13   -1    0    0    0    0  0.00000000000E+00  0.00000000000E+00  0.74505805969E-08  0.10566000000E+00  0.10566000000E+00 0. -1.
     999900   -1    0    0    0    0 -0.00000000000E+00 -0.00000000000E+00 -0.74505805969E-08  0.93827000000E+00  0.93827000000E+00 0. -1.
     999902    2    1    2    0    0  0.22691425361E-01  0.60243932906E-02  0.50478780042E-02  0.10199159380E+01  0.10196331916E+01 0.  0.
     999903    2    3    3    0    0  0.46413863407E-01 -0.11810820327E+00 -0.22759177903E-01  0.13045267969E+00  0.19902941093E-01 0.  0.
         14    1    1    2    0    0 -0.22691425361E-01 -0.60243932906E-02 -0.50478780042E-02  0.24014061959E-01  0.00000000000E+00 0.  1.
     999901    1    3    3    0    0 -0.23722438046E-01  0.12413259656E+00  0.27807055908E-01  0.88946325835E+00  0.88000000000E+00 0. -1.
        -11    1    4    4    0    0  0.33634115880E-01 -0.10437081136E+00 -0.20335992136E-01  0.11152727789E+00  0.51100000000E-03 0.  1.
         11    1    4    4    0    0  0.12779747527E-01 -0.13737391906E-01 -0.24231857676E-02  0.18925401806E-01  0.51100000000E-03 0. -1.
</event>
<event>
 8    1  0.1111182E+005  0.1043930E+01  0.7957747E-01            NaN
         13   -1    0    0    0    0  0.00000000000E+00  0.00000000000E+00  0.74505805969E-08  0.10566000000E+00  0.10566000000E+00 0.  1.
     999900   -1    0    0    0    0 -0.00000000000E+00 -0.00000000000E+00 -0.74505805969E-08  0.93827000000E+00  0.93827000000E+00 0. -1.
     999902    2    1    2    0    0  0.15751074139E-01 -0.25175630695E-02  0.15030719455E-01  0.10220129521E+01  0.10217779198E+01 0.  0.
     999903    2    3    3    0    0  0.53926504900E-02  0.12741538166E+00  0.24774558315E-01  0.13235863192E+00  0.25323280617E-01 0.  0.
         14    1    1    2    0    0 -0.15751074139E-01  0.25175630695E-02 -0.15030719455E-01  0.21917047878E-01  0.00000000000E+00 0. -1.
     999901    1    3    3    0    0  0.10358423649E-01 -0.12993294473E+00 -0.97438388601E-02  0.88965432021E+00  0.88000000000E+00 0. -1.
        -11    1    4    4    0    0  0.11817807852E-01  0.50993223367E-01  0.18046379795E-01  0.55370591080E-01  0.51100000000E-03 0. -1.
         11    1    4    4    0    0 -0.64251573621E-02  0.76422158289E-01  0.67281785194E-02  0.76988040837E-01  0.51100000000E-03 0.  1.
</event>
<event>
 8    1  0.1111182E+005  0.1043930E+01  0.7957747E-01            NaN
         13   -1    0    0    0    0  0.00000000000E+00  0.00000000000E+00  0.74505805969E-08  0.10566000000E+00  0.10566000000E+00 0. -1.
     999900   -1    0    0    0    0 -0.00000000000E+00 -0.00000000000E+00 -0.74505805969E-08  0.93827000000E+00  0.93827000000E+00 0.  1.
     999902    2    1    2    0    0 -0.80713538380E-02  0.20026881086E-01 -0.17981472820E-02  0.10222630655E+01  0.10220334236E+01 0.  0.
     999903    2    3    3    0    0 -0.70702557408E-01  0.11263510803E+00 -0.13289553205E-01  0.13511538679E+00  0.19850348526E-01 0.  0.
         14    1    1    2    0    0  0.80713538380E-02 -0.20026881086E-01  0.17981472820E-02  0.21666934542E-01  0.00000000000E+00 0. -1.
     999901    1    3    3    0    0  0.62631203570E-01 -0.92608226948E-01  0.11491405924E-01  0.88714767867E+00  0.88000000000E+00 0.  1.
        -11    1    4    4    0    0 -0.46005805194E-01  0.59388182940E-01 -0.13974718075E-01  0.76413639167E-01  0.51100000000E-03 0. -1.
         11    1    4    4    0    0 -0.24696752215E-01  0.53246925094E-01  0.68516486943E-03  0.58701747621E-01  0.51100000000E-03 0.  1.
</event>
<event>
 8    1  0.1111182E+005  0.1043930E+01  0.7957747E-01            NaN
         13   -1    0    0    0    0  0.00000000000E+00  0.00000000000E+00  0.74505805969E-08  0.10566000000E+00  0.10566000000E+00 0.  1.
     999900   -1    0    0    0    0 -0.00000000000E+00 -0.00000000000E+00 -0.74505805969E-08  0.93827000000E+00  0.93827000000E+00 0. -1.
     999902    2    1    2    0    0  0.91366071743E-02 -0.15991947534E-01 -0.16255572382E-01  0.10193645037E+01  0.10190684608E+01 0.  0.
     999903    2    3    3    0    0 -0.51858615203E-01  0.76841317004E-01 -0.88353165123E-01  0.12945636513E+00  0.18941085385E-01 0.  0.
         14    1    1    2    0    0 -0.91366071743E-02  0.15991947534E-01  0.16255572382E-01  0.24565496333E-01  0.00000000000E+00 0.  1.
     999901    1    3    3    0    0  0.60995222377E-01 -0.92833264538E-01  0.72097592741E-01  0.88990813854E+00  0.88000000000E+00 0.  1.
        -11    1    4    4    0    0 -0.18538965910E-01  0.43391348512E-01 -0.48513099453E-01  0.67677797853E-01  0.51100000000E-03 0.  1.
         11    1    4    4    0    0 -0.33319649293E-01  0.33449968492E-01 -0.39840065670E-01  0.61778567277E-01  0.51100000000E-03 0. -1.
</event>
<event>
 8    1  0.1111182E+005  0.1043930E+01  0.7957747E-01            NaN
         13   -1    0    0    0    0  0.00000000000E+00  0.00000000000E+00  0.74505805969E-08  0.10566000000E+00  0.10566000000E+00 0. -1.
     999900   -1    0    0    0    0 -0.00000000000E+00 -0.00000000000E+00 -0.74505805969E-08  0.93827000000E+00  0.93827000000E+00 0.  1.
     999902    2    1    2    0    0 -0.45129942580E-02  0.23647071374E-01  0.49213779145E-02  0.10193582467E+01  0.10190620511E+01 0.  0.
     999903    2    3    3    0    0 -0.10373716172E+00  0.58485794636E-01  0.52661236543E-01  0.13181204158E+00  0.20474901097E-01 0.  0.
         14    1    1    2    0    0  0.45129942580E-02 -0.23647071374E-01 -0.49213779145E-02  0.24571753342E-01  0.00000000000E+00 0. -1.
     999901    1    3    3    0    0  0.99224167463E-01 -0.34838723262E-01 -0.47739858628E-01  0.88754620508E+00  0.88000000000E+00 0.  1.
        -11    1    4    4    0    0 -0.68575540773E-01  0.27224661787E-01  0.32142101987E-01  0.80480822827E-01  0.51100000000E-03 0.  1.
         11    1    4    4    0    0 -0.35161620948E-01  0.31261132849E-01  0.20519134555E-01  0.51331218752E-01  0.51100000000E-03 0. -1.
</event>
<event>
 8    1  0.1111182E+005  0.1043930E+01  0.7957747E-01            NaN
         13   -1    0    0    0    0  0.00000000000E+00  0.00000000000E+00  0.74505805969E-08  0.10566000000E+00  0.10566000000E+00 0. -1.
     999900   -1    0    0    0    0 -0.00000000000E+00 -0.00000000000E+00 -0.74505805969E-08  0.93827000000E+00  0.93827000000E+00 0. -1.
     999902    2    1    2    0    0 -0.10493298227E-01 -0.18513012790E-01 -0.96139125570E-02  0.10205790200E+01  0.10203118484E+01 0.  0.
     999903    2    3    3    0    0 -0.45785916560E-01  0.65740610191E-01 -0.10176547273E+00  0.13106446033E+00  0.20087392530E-01 0.  0.
         14    1    1    2    0    0  0.10493298227E-01  0.18513012790E-01  0.96139125570E-02  0.23350979956E-01  0.00000000000E+00 0. -1.
     999901    1    3    3    0    0  0.35292618333E-01 -0.84253622981E-01  0.92151560175E-01  0.88951455971E+00  0.88000000000E+00 0.  1.
        -11    1    4    4    0    0 -0.43681337134E-01  0.63929593156E-01 -0.88896042992E-01  0.11788901423E+00  0.51100000000E-03 0. -1.
         11    1    4    4    0    0 -0.21045794267E-02  0.18110170347E-02 -0.12869429740E-01  0.13175446106E-01  0.51100000000E-03 0.  1.
</event>
<event>
 8    1  0.1111182E+005  0.1043930E+01  0.7957747E-01            NaN
         13   -1    0    0    0    0  0.00000000000E+00  0.00000000000E+00  0.74505805969E-08  0.10566000000E+00  0.10566000000E+00 0.  1.
     999900   -1    0    0    0    0 -0.00000000000E+00 -0.00000000000E+00 -0.74505805969E-08  0.93827000000E+00  0.93827000000E+00 0. -1.
     999902    2    1    2    0    0 -0.32640564230E-03  0.24485583891E-01 -0.28263486514E-02  0.10192796733E+01  0.10189815572E+01 0.  0.
     999903    2    3    3    0    0  0.17171132968E-01 -0.73997150688E-01  0.10062897222E+00  0.12759137784E+00  0.19568943006E-01 0.  0.
         14    1    1    2    0    0  0.32640564230E-03 -0.24485583891E-01  0.28263486514E-02  0.24650326688E-01  0.00000000000E+00 0. -1.
     999901    1    3    3    0    0 -0.17497538611E-01  0.98482734579E-01 -0.10345532088E+00  0.89168829547E+00  0.88000000000E+00 0. -1.
        -11    1    4    4    0    0  0.20668340149E-01 -0.48891309343E-01  0.67298916568E-01  0.85714326143E-01  0.51100000000E-03 0. -1.
         11    1    4    4    0    0 -0.34972071804E-02 -0.25105841345E-01  0.33330055655E-01  0.41877051695E-01  0.51100000000E-03 0.  1.
</event>
<event>
 8    1  0.1111182E+005  0.1043930E+01  0.7957747E-01            NaN
         13   -1    0    0    0    0  0.00000000000E+00  0.00000000000E+00  0.74505805969E-08  0.10566000000E+00  0.10566000000E+00 0.  1.
     999900   -1    0    0    0    0 -0.00000000000E+00 -0.00000000000E+00 -0.74505805969E-08  0.93827000000E+00  0.93827000000E+00 0. -1.
     999902    2    1    2    0    0 -0.13621548790E-03 -0.16748968121E-03 -0.23808819474E-01  0.10201202018E+01  0.10198423013E+01 0.  0.
     999903    2    3    3    0    0  0.95471406734E-01  0.85983245703E-01 -0.15444165964E-01  0.13071999147E+00  0.18473923855E-01 0.  0.
         14    1    1    2    0    0  0.13621548790E-03  0.16748968121E-03  0.23808819474E-01  0.23809798240E-01  0.00000000000E+00 0.  1.
     999901    1    3    3    0    0 -0.95607622222E-01 -0.86150735384E-01 -0.83646535101E-02  0.88940021029E+00  0.88000000000E+00 0. -1.
        -11    1    4    4    0    0  0.34031712588E-01  0.26413792612E-01 -0.13396634243E-01  0.45117367297E-01  0.51100000000E-03 0.  1.
         11    1    4    4    0    0  0.61439694146E-01  0.59569453091E-01 -0.20475317211E-02  0.85602624174E-01  0.51100000000E-03 0. -1.
</event>
<event>
 8    1  0.1111182E+005  0.1043930E+01  0.7957747E-01            NaN
         13   -1    0    0    0    0  0.00000000000E+00  0.00000000000E+00  0.74505805969E-08  0.10566000000E+00  0.10566000000E+00 0. -1.
     999900   -1    0    0    0    0 -0.00000000000E+00 -0.00000000000E+00 -0.74505805969E-08  0.93827000000E+00  0.93827000000E+00 0. -1.
     999902    2    1    2    0    0 -0.12121399716E-02  0.18776759584E-01 -0.12675558600E-01  0.10212428722E+01  0.10209908414E+01 0.  0.
     999903    2    3    3    0    0 -0.13476227139E-01 -0.12391574073E+00  0.24973758005E-01  0.12887017619E+00  0.21145075635E-01 0.  0.
         14    1    1    2    0    0  0.12121399716E-02 -0.18776759584E-01  0.12675558600E-01  0.22687127840E-01  0.00000000000E+00 0. -1.
     999901    1    3    3    0    0  0.12264087168E-01  0.14269250031E+00 -0.37649316605E-01  0.89237269597E+00  0.88000000000E+00 0.  1.
        -11    1    4    4    0    0 -0.11521741897E-01 -0.70195571136E-01  0.42757037620E-02  0.71265079156E-01  0.51100000000E-03 0.  1.
         11    1    4    4    0    0 -0.19544852429E-02 -0.53720169591E-01  0.20698054243E-01  0.57605097031E-01  0.51100000000E-03 0. -1.
</event>
<event>
 8    1  0.1111182E+005  0.1043930E+01  0.7957747E-01            NaN
         13   -1    0    0    0    0  0.00000000000E+00  0.00000000000E+00  0.74505805969E-08  0.10566000000E+00  0.10566000000E+00 0.  1.
     999900   -1    0    0    0    0 -0.00000000000E+00 -0.00000000000E+00 -0.74505805969E-08  0.93827000000E+00  0.93827000000E+00 0. -1.
     999902    2    1    2    0    0 -0.10874282421E-01  0.80643185164E-02  0.19820063312E-01  0.10199275384E+01  0.10196450684E+01 0.  0.
     999903    2    3    3    0    0  0.11194072057E+00 -0.44780915034E-01  0.42564540368E-01  0.12953804226E+00  0.20792042278E-01 0.  0.
         14    1    1    2    0    0  0.10874282421E-01 -0.80643185164E-02 -0.19820063312E-01  0.24002461561E-01  0.00000000000E+00 0. -1.
     999901    1    3    3    0    0 -0.12281500299E+00  0.52845233551E-01 -0.22744477056E-01  0.89038949618E+00  0.88000000000E+00 0. -1.
        -11    1    4    4    0    0  0.24391986181E-01 -0.19392211054E-01  0.97632965784E-02  0.32658994481E-01  0.51100000000E-03 0.  1.
         11    1    4    4    0    0  0.87548734392E-01 -0.25388703980E-01  0.32801243790E-01  0.96879047779E-01  0.51100000000E-03 0. -1.
</event>
<event>
 8    1  0.1111182E+005  0.1043930E+01  0.7957747E-01            NaN
         13   -1    0    0    0    0  0.00000000000E+00  0.00000000000E+00  0.74505805969E-08  0.10566000000E+00  0.10566000000E+00 0. -1.
     999900   -1    0    0    0    0 -0.00000000000E+00 -0.00000000000E+00 -0.74505805969E-08  0.93827000000E+00  0.93827000000E+00 0.  1.
     999902    2    1    2    0    0  0.91544531393E-02 -0.19436253589E-01 -0.13682416876E-01  0.10184588301E+01  0.10181402693E+01 0.  0.
     999903    2    3    3    0    0  0.11643073692E+00 -0.45130581162E-01  0.31052864648E-01  0.13044439047E+00  0.21414311705E-01 0.  0.
         14    1    1    2    0    0 -0.91544531393E-02  0.19436253589E-01  0.13682416876E-01  0.25471169926E-01  0.00000000000E+00 0. -1.
     999901    1    3    3    0    0 -0.10727628378E+00  0.25694327573E-01 -0.44735281524E-01  0.88801443960E+00  0.88000000000E+00 0.  1.
        -11    1    4    4    0    0  0.91356266640E-01 -0.26652992533E-01  0.19011071572E-01  0.97046542590E-01  0.51100000000E-03 0. -1.
         11    1    4    4    0    0  0.25074470283E-01 -0.18477588629E-01  0.12041793076E-01  0.33397847880E-01  0.51100000000E-03 0.  1.
</event>
<event>
 8    1  0.1111182E+005  0.1043930E+01  0.7957747E-01            NaN
         13   -1    0    0    0    0  0.00000000000E+00  0.00000000000E+00  0.74505805969E-08  0.10566000000E+00  0.10566000000E+00 0.  1.
     999900   -1    0    0    0    0 -0.00000000000E+00 -0.00000000000E+00 -0.74505805969E-08  0.93827000000E+00  0.93827000000E+00 0. -1.
     999902    2    1    2    0    0  0.22486094303E-01  0.63569909671E-02 -0.42038813578E-02  0.10201874561E+01  0.10199111418E+01 0.  0.
     999903    2    3    3    0    0 -0.93016008731E-01 -0.37960016416E-01 -0.77590265728E-01  0.12850909799E+00  0.20034924639E-01 0.  0.
         14    1    1    2    0    0 -0.22486094303E-01 -0.63569909671E-02  0.42038813578E-02  0.23742543874E-01  0.00000000000E+00 0. -1.
     999901    1    3    3    0    0  0.11550210303E+00  0.44317007383E-01  0.73386384370E-01  0.89167835813E+00  0.88000000000E+00 0. -1.
        -11    1    4    4    0    0 -0.31820710172E-01 -0.15385129208E-01 -0.16011733602E-01  0.38805882680E-01  0.51100000000E-03 0. -1.
         11    1    4    4    0    0 -0.61195298558E-01 -0.22574887208E-01 -0.61578532126E-01  0.89703215315E-01  0.51100000000E-03 0.  1.
</event>
<event>
 8    1  0.1111182E+005  0.1043930E+01  0.7957747E-01            NaN
         13   -1    0    0    0    0  0.00000000000E+00  0.00000000000E+00  0.74505805969E-08  0.10566000000E+00  0.10566000000E+00 0. -1.
     999900   -1    0    0    0    0 -0.00000000000E+00 -0.00000000000E+00 -0.74505805969E-08  0.93827000000E+00  0.93827000000E+00 0.  1.
     999902    2    1    2    0    0 -0.13901535819E-01 -0.19882721307E-02 -0.18449142155E-01  0.10207442981E+01  0.10204809383E+01 0.  0.
     999903    2    3    3    0    0 -0.63890542187E-01  0.86725431881E-01 -0.73967998661E-01  0.13313438075E+00  0.25498952826E-01 0.  0.
         14    1    1    2    0    0  0.13901535819E-01  0.19882721307E-02  0.18449142155E-01  0.23185701853E-01  0.00000000000E+00 0.  1.
     999901    1    3    3    0    0  0.49989006369E-01 -0.88713704012E-01  0.55518856506E-01  0.88760991740E+00  0.88000000000E+00 0. -1.
        -11    1    4    4    0    0 -0.20050541050E-01  0.33136486685E-01 -0.12936963054E-01  0.40837202160E-01  0.51100000000E-03 0. -1.
         11    1    4    4    0    0 -0.43840001138E-01  0.53588945197E-01 -0.61031035607E-01  0.92297178588E-01  0.51100000000E-03 0.  1.
</event>
<event>
 8    1  0.1111182E+005  0.1043930E+01  0.7957747E-01            NaN
         13   -1    0    0    0    0  0.00000000000E+00  0.00000000000E+00  0.74505805969E-08  0.10566000000E+00  0.10566000000E+00 0.  1.
     999900   -1    0    0    0    0 -0.00000000000E+00 -0.00000000000E+00 -0.74505805969E-08  0.93827000000E+00  0.93827000000E+00 0. -1.
     999902    2    1    2    0    0 -0.12956375996E-01  0.14825698875E-01  0.11749828318E-01  0.10210012519E+01  0.10207437626E+01 0.  0.
     999903    2    3    3    0    0 -0.73267348211E-01 -0.99393904886E-01  0.39186523023E-01  0.13114940830E+00  0.20428682511E-01 0.  0.
         14    1    1    2    0    0  0.12956375996E-01 -0.14825698875E-01 -0.11749828318E-01  0.22928748147E-01  0.00000000000E+00 0. -1.
     999901    1    3    3    0    0  0.60310972215E-01  0.11421960376E+00 -0.27436694705E-01  0.88985184355E+00  0.88000000000E+00 0.  1.
        -11    1    4    4    0    0 -0.29841351584E-01 -0.38619768801E-01  0.25987748054E-01  0.55295722950E-01  0.51100000000E-03 0. -1.
         11    1    4    4    0    0 -0.43425996628E-01 -0.60774136085E-01  0.13198774969E-01  0.75853685354E-01  0.51100000000E-03 0.  1.
</event>
<event>
 8    1  0.1111182E+005  0.1043930E+01  0.7957747E-01            NaN
         13   -1    0    0    0    0  0.00000000000E+00  0.00000000000E+00  0.74505805969E-08  0.10566000000E+00  0.10566000000E+00 0.  1.
     999900   -1    0    0    0    0 -0.00000000000E+00 -0.00000000000E+00 -0.74505805969E-08  0.93827000000E+00  0.93827000000E+00 0. -1.
     999902    2    1    2    0    0 -0.56261170119E-02  0.21091438248E-01  0.12921137138E-01  0.10185635311E+01  0.10182476168E+01 0.  0.
     999903    2    3    3    0    0  0.11777335965E+00  0.47739243976E-01 -0.12291042305E-01  0.12919679550E+00  0.19777325092E-01 0.  0.
         14    1    1    2    0    0  0.56261170119E-02 -0.21091438248E-01 -0.12921137138E-01  0.25366468910E-01  0.00000000000E+00 0.  1.
     999901    1    3    3    0    0 -0.12339947666E+00 -0.26647805728E-01  0.25212179443E-01  0.88936673559E+00  0.88000000000E+00 0. -1.
        -11    1    4    4    0    0  0.81319606939E-01  0.25346368034E-01 -0.20566127363E-02  0.85204504706E-01  0.51100000000E-03 0.  1.
         11    1    4    4    0    0  0.36453752707E-01  0.22392875942E-01 -0.10234429568E-01  0.43992290790E-01  0.51100000000E-03 0. -1.
</event>
<event>
 8    1  0.1111182E+005  0.1043930E+01  0.7957747E-01            NaN
         13   -1    0    0    0    0  0.00000000000E+00  0.00000000000E+00  0.74505805969E-08  0.10566000000E+00  0.10566000000E+00 0. -1.
     999900   -1    0    0    0    0 -0.00000000000E+00 -0.00000000000E+00 -0.74505805969E-08  0.93827000000E+00  0.93827000000E+00 0.  1.
     999902    2    1    2    0    0  0.16639220209E-01  0.16604455745E-01 -0.24215311382E-02  0.10202987619E+01  0.10200250625E+01 0.  0.
     999903    2    3    3    0    0  0.92322031765E-01  0.13748098890E-01 -0.91987741445E-01  0.13251604484E+00  0.19656800110E-01 0.  0.
         14    1    1    2    0    0 -0.16639220209E-01 -0.16604455745E-01  0.24215311382E-02  0.23631238071E-01  0.00000000000E+00 0.  1.
     999901    1    3    3    0    0 -0.75682811556E-01  0.28563568549E-02  0.89566210306E-01  0.88778271709E+00  0.88000000000E+00 0. -1.
        -11    1    4    4    0    0  0.21679827608E-01  0.11808273567E-01 -0.22516913164E-01  0.33417401891E-01  0.51100000000E-03 0. -1.
         11    1    4    4    0    0  0.70642204157E-01  0.19398253232E-02 -0.69470828281E-01  0.99098642945E-01  0.51100000000E-03 0.  1.
</event>
<event>
 8    1  0.1111182E+005  0.1043930E+01  0.7957747E-01            NaN
         13   -1    0    0    0    0  0.00000000000E+00  0.00000000000E+00  0.74505805969E-08  0.10566000000E+00  0.10566000000E+00 0. -1.
     999900   -1    0    0    0    0 -0.00000000000E+00 -0.00000000000E+00 -0.74505805969E-08  0.93827000000E+00  0.93827000000E+00 0. -1.
     999902    2    1    2    0    0 -0.23355338397E-01 -0.60192880210E-03 -0.58698185820E-03  0.10205595336E+01  0.10202919107E+01 0.  0.
     999903    2    3    3    0    0  0.11552949206E+00  0.54415985604E-01 -0.57804456730E-02  0.12795495204E+00  0.55581629178E-02 0.  0.
         14    1    1    2    0    0  0.23355338397E-01  0.60192880210E-03  0.58698185820E-03  0.23370466355E-01  0.00000000000E+00 0. -1.
     999901    1    3    3    0    0 -0.13888483046E+00 -0.55017914406E-01  0.51934638148E-02  0.89260458161E+00  0.88000000000E+00 0. -1.
        -11    1    4    4    0    0  0.69864256498E-01  0.30042234489E-01 -0.27559794537E-02  0.76101292583E-01  0.51100000000E-03 0. -1.
         11    1    4    4    0    0  0.45665235560E-01  0.24373751115E-01 -0.30244662194E-02  0.51853659457E-01  0.51100000000E-03 0.  1.
</event>
<event>
 8    1  0.1111182E+005  0.1043930E+01  0.7957747E-01            NaN
         13   -1    0    0    0    0  0.00000000000E+00  0.00000000000E+00  0.74505805969E-08  0.10566000000E+00  0.10566000000E+00 0. -1.
     999900   -1    0    0    0    0 -0.00000000000E+00 -0.00000000000E+00 -0.74505805969E-08  0.93827000000E+00  0.93827000000E+00 0.  1.
     999902    2    1    2    0    0  0.73859901512E-02  0.16343980060E-01  0.11458275696E-01  0.10226468936E+01  0.10224253999E+01 0.  0.
     999903    2    3    3    0    0  0.46323747964E-01 -0.73210265765E-01  0.98467807775E-01  0.13298023100E+00  0.21959053481E-01 0.  0.
         14    1    1    2    0    0 -0.73859901512E-02 -0.16343980060E-01 -0.11458275696E-01  0.21283106367E-01  0.00000000000E+00 0.  1.
     999901    1    3    3    0    0 -0.38937757813E-01  0.89554245825E-01 -0.87009532078E-01  0.88966666263E+00  0.88000000000E+00 0.  1.
        -11    1    4    4    0    0  0.33600636582E-02 -0.63525222927E-02  0.20160048557E-01  0.21408718927E-01  0.51100000000E-03 0. -1.
         11    1    4    4    0    0  0.42963684306E-01 -0.66857743472E-01  0.78307759217E-01  0.11157151207E+00  0.51100000000E-03 0.  1.
</event>
<event>
 8    1  0.1111182E+005  0.1043930E+01  0.7957747E-01            NaN
         13   -1    0    0    0    0  0.00000000000E+00  0.00000000000E+00  0.74505805969E-08  0.10566000000E+00  0.10566000000E+00 0.  1.
     999900   -1    0    0    0    0 -0.00000000000E+00 -0.00000000000E+00 -0.74505805969E-08  0.93827000000E+00  0.93827000000E+00 0. -1.
     999902    2    1    2    0    0 -0.14748525444E-01  0.56929456568E-02  0.16503877688E-01  0.10210759717E+01  0.10208201768E+01 0.  0.
     999903    2    3    3    0    0 -0.59378084142E-02  0.69232774531E-01  0.11230894002E+00  0.13355495863E+00  0.19879495156E-01 0.  0.
         14    1    1    2    0    0  0.14748525444E-01 -0.56929456568E-02 -0.16503877688E-01  0.22854028348E-01  0.00000000000E+00 0. -1.
     999901    1    3    3    0    0 -0.88107170295E-02 -0.63539828874E-01 -0.95805062334E-01  0.88752101302E+00  0.88000000000E+00 0. -1.
        -11    1    4    4    0    0  0.42432712393E-02  0.48059975427E-01  0.82800576326E-01  0.95832996143E-01  0.51100000000E-03 0.  1.
         11    1    4    4    0    0 -0.10181079653E-01  0.21172799104E-01  0.29508363696E-01  0.37721962486E-01  0.51100000000E-03 0. -1.
</event>
<event>
 8    1  0.1111182E+005  0.1043930E+01  0.7957747E-01            NaN
         13   -1    0    0    0    0  0.00000000000E+00  0.00000000000E+00  0.74505805969E-08  0.10566000000E+00  0.10566000000E+00 0.  1.
     999900   -1    0    0    0    0 -0.00000000000E+00 -0.00000000000E+00 -0.74505805969E-08  0.93827000000E+00  0.93827000000E+00 0.  1.
     999902    2    1    2    0    0  0.10096022054E-01 -0.72580493708E-02  0.17146147829E-01  0.10227498365E+01  0.10225305026E+01 0.  0.
     999903    2    3    3    0    0  0.11565205701E+00  0.33845230788E-01 -0.52306867206E-01  0.13277496185E+00  0.19294667641E-01 0.  0.
         14    1    1    2    0    0 -0.10096022054E-01  0.72580493708E-02 -0.17146147829E-01  0.21180163535E-01  0.00000000000E+00 0. -1.
     999901    1    3    3    0    0 -0.10555603495E+00 -0.41103280159E-01  0.69453015035E-01  0.88997487462E+00  0.88000000000E+00 0. -1.
        -11    1    4    4    0    0  0.31299973825E-01  0.16270585450E-01 -0.93620972726E-02  0.36501099965E-01  0.51100000000E-03 0. -1.
         11    1    4    4    0    0  0.84352083182E-01  0.17574645338E-01 -0.42944769933E-01  0.96273861881E-01  0.51100000000E-03 0.  1.
</event>
<event>
 8    1  0.1111182E+005  0.1043930E+01  0.7957747E-01            NaN
         13   -1    0    0    0    0  0.00000000000E+00  0.00000000000E+00  0.74505805969E-08  0.10566000000E+00  0.10566000000E+00 0. -1.
     999900   -1    0    0    0    0 -0.00000000000E+00 -0.00000000000E+00 -0.74505805969E-08  0.93827000000E+00  0.93827000000E+00 0.  1.
     999902    2    1    2    0    0 -0.63835018112E-02  0.27469393049E-02 -0.21526090779E-01  0.10213099347E+01  0.10210594083E+01 0.  0.
     999903    2    3    3    0    0 -0.83805277620E-01 -0.89624280491E-01  0.40991266931E-01  0.13089711265E+00  0.19948281259E-01 0.  0.
         14    1    1    2    0    0  0.63835018112E-02 -0.27469393049E-02  0.21526090779E-01  0.22620065321E-01  0.00000000000E+00 0. -1.
     999901    1    3    3    0    0  0.77421775809E-01  0.92371219796E-01 -0.62517357710E-01  0.89041282203E+00  0.88000000000E+00 0.  1.
        -11    1    4    4    0    0 -0.50469521854E-01 -0.47228576151E-01  0.32184368602E-01  0.76248316340E-01  0.51100000000E-03 0.  1.
         11    1    4    4    0    0 -0.33335755766E-01 -0.42395704341E-01  0.88068983285E-02  0.54648796311E-01  0.51100000000E-03 0. -1.
</event>
<event>
 8    1  0.1111182E+005  0.1043930E+01  0.7957747E-01            NaN
         13   -1    0    0    0    0  0.00000000000E+00  0.00000000000E+00  0.74505805969E-08  0.10566000000E+00  0.10566000000E+00 0.  1.
     999900   -1    0    0    0    0 -0.00000000000E+00 -0.00000000000E+00 -0.74505805969E-08  0.93827000000E+00  0.93827000000E+00 0.  1.
     999902    2    1    2    0    0  0.57782063126E-02  0.53941575906E-02  0.22315869709E-01  0.10202554853E+01  0.10199807707E+01 0.  0.
     999903    2    3    3    0    0  0.37288334241E-01 -0.81107067768E-01  0.95900436307E-01  0.13239849313E+00  0.19070683945E-01 0.  0.
         14    1    1    2    0    0 -0.57782063126E-02 -0.53941575906E-02 -0.22315869709E-01  0.23674514677E-01  0.00000000000E+00 0. -1.
     999901    1    3    3    0    0 -0.31510127928E-01  0.86501225358E-01 -0.73584566598E-01  0.88785699220E+00  0.88000000000E+00 0.  1.
        -11    1    4    4    0    0  0.32229294907E-01 -0.48341634715E-01  0.62454866656E-01  0.85302477029E-01  0.51100000000E-03 0. -1.
         11    1    4    4    0    0  0.50590393338E-02 -0.32765433052E-01  0.33445569651E-01  0.47096016098E-01  0.51100000000E-03 0.  1.
</event>
<event>
 8    1  0.1111182E+005  0.1043930E+01  0.7957747E-01            NaN
         13   -1    0    0    0    0  0.00000000000E+00  0.00000000000E+00  0.74505805969E-08  0.10566000000E+00  0.10566000000E+00 0.  1.
     999900   -1    0    0    0    0 -0.00000000000E+00 -0.00000000000E+00 -0.74505805969E-08  0.93827000000E+00  0.93827000000E+00 0. -1.
     999902    2    1    2    0    0  0.61833682699E-02 -0.21397567261E-01  0.51614517461E-02  0.10210666995E+01  0.10208106946E+01 0.  0.
     999903    2    3    3    0    0  0.70569960845E-01  0.10252848261E+00  0.30570909646E-01  0.12969195239E+00  0.19829596024E-01 0.  0.
         14    1    1    2    0    0 -0.61833682699E-02  0.21397567261E-01 -0.51614517461E-02  0.22863300548E-01  0.00000000000E+00 0.  1.
     999901    1    3    3    0    0 -0.64386592575E-01 -0.12392604987E+00 -0.25409457900E-01  0.89137474706E+00  0.88000000000E+00 0.  1.
        -11    1    4    4    0    0  0.44309778875E-01  0.56711785327E-01  0.26608108642E-01  0.76732233550E-01  0.51100000000E-03 0.  1.
         11    1    4    4    0    0  0.26260181970E-01  0.45816697287E-01  0.39628010044E-02  0.52959718845E-01  0.51100000000E-03 0. -1.
</event>
<event>
 8    1  0.1111182E+005  0.1043930E+01  0.7957747E-01            NaN
         13   -1    0    0    0    0  0.00000000000E+00  0.00000000000E+00  0.74505805969E-08  0.10566000000E+00  0.10566000000E+00 0. -1.
     999900   -1    0    0    0    0 -0.00000000000E+00 -0.00000000000E+00 -0.74505805969E-08  0.93827000000E+00  0.93827000000E+00 0.  1.
     999902    2    1    2    0    0  0.30205284822E-02  0.16296034201E-01 -0.17069687786E-01  0.10201380147E+01  0.10198605348E+01 0.  0.
     999903    2    3    3    0    0 -0.12770338731E+00  0.16315900197E-01 -0.90234087864E-02  0.13044509849E+00  0.18977304477E-01 0.  0.
         14    1    1    2    0    0 -0.30205284822E-02 -0.16296034201E-01  0.17069687786E-01  0.23791985292E-01  0.00000000000E+00 0. -1.
     999901    1    3    3    0    0  0.13072391579E+00 -0.19865995381E-04 -0.80462789997E-02  0.88969291621E+00  0.88000000000E+00 0. -1.
        -11    1    4    4    0    0 -0.97354336911E-01  0.20305451103E-01 -0.51141284362E-02  0.99582095231E-01  0.51100000000E-03 0.  1.
         11    1    4    4    0    0 -0.30349050400E-01 -0.39895509059E-02 -0.39092803502E-02  0.30863003264E-01  0.51100000000E-03 0. -1.
</event>
<event>
 8    1  0.1111182E+005  0.1043930E+01  0.7957747E-01            NaN
         13   -1    0    0    0    0  0.00000000000E+00  0.00000000000E+00  0.74505805969E-08  0.10566000000E+00  0.10566000000E+00 0. -1.
     999900   -1    0    0    0    0 -0.00000000000E+00 -0.00000000000E+00 -0.74505805969E-08  0.93827000000E+00  0.93827000000E+00 0.  1.
     999902    2    1    2    0    0  0.44316836853E-02  0.11636820420E-01 -0.20104416683E-01  0.10202816812E+01  0.10200075814E+01 0.  0.
     999903    2    3    3    0    0  0.35998306213E-01 -0.11986477612E+00  0.23629508756E-01  0.12887729614E+00  0.19686573394E-01 0.  0.
         14    1    1    2    0    0 -0.44316836853E-02 -0.11636820420E-01  0.20104416683E-01  0.23648318755E-01  0.00000000000E+00 0. -1.
     999901    1    3    3    0    0 -0.31566622528E-01  0.13150159654E+00 -0.43733925438E-01  0.89140438511E+00  0.88000000000E+00 0. -1.
        -11    1    4    4    0    0  0.16025320424E-01 -0.47948289672E-01 -0.92588622739E-04  0.50558076217E-01  0.51100000000E-03 0. -1.
         11    1    4    4    0    0  0.19972985790E-01 -0.71916486448E-01  0.23722097378E-01  0.78319219923E-01  0.51100000000E-03 0.  1.
</event>
<event>
 8    1  0.1111182E+005  0.1043930E+01  0.7957747E-01            NaN
         13   -1    0    0    0    0  0.00000000000E+00  0.00000000000E+00  0.74505805969E-08  0.10566000000E+00  0.10566000000E+00 0.  1.
     999900   -1    0    0    0    0 -0.00000000000E+00 -0.00000000000E+00 -0.74505805969E-08  0.93827000000E+00  0.93827000000E+00 0.  1.
     999902    2    1    2    0    0 -0.10633998135E-01 -0.19939649938E-01 -0.65180085343E-02  0.10204107315E+01  0.10201396497E+01 0.  0.
     999903    2    3    3    0    0 -0.78174407330E-01  0.10107760026E+00 -0.66553162474E-02  0.12956456038E+00  0.20365727041E-01 0.  0.
         14    1    1    2    0    0  0.10633998135E-01  0.19939649938E-01  0.65180085343E-02  0.23519268510E-01  0.00000000000E+00 0.  1.
     999901    1    3    3    0    0  0.67540409195E-01 -0.12101725020E+00  0.13730771302E-03  0.89084617111E+00  0.88000000000E+00 0. -1.
        -11    1    4    4    0    0 -0.13439024540E-01  0.20247377162E-01 -0.91593471050E-02  0.25975342595E-01  0.51100000000E-03 0.  1.
         11    1    4    4    0    0 -0.64735382789E-01  0.80830223097E-01  0.25040308576E-02  0.10358921779E+00  0.51100000000E-03 0. -1.
</event>
<event>
 8    1  0.1111182E+005  0.1043930E+01  0.7957747E-01            NaN
         13   -1    0    0    0    0  0.00000000000E+00  0.00000000000E+00  0.74505805969E-08  0.10566000000E+00  0.10566000000E+00 0. -1.
     999900   -1    0    0    0    0 -0.00000000000E+00 -0.00000000000E+00 -0.74505805969E-08  0.93827000000E+00  0.93827000000E+00 0. -1.
     999902    2    1    2    0    0  0.49926282922E-02 -0.12757185361E-01 -0.20866265119E-01  0.10189685670E+01  0.10186627840E+01 0.  0.
     999903    2    3    3    0    0  0.55513357523E-01 -0.29645302814E-01  0.10938579707E+00  0.12778780406E+00  0.20097099896E-01 0.  0.
         14    1    1    2    0    0 -0.49926282922E-02  0.12757185361E-01  0.20866265119E-01  0.24961432964E-01  0.00000000000E+00 0. -1.
     999901    1    3    3    0    0 -0.50520729230E-01  0.16888117453E-01 -0.13025206219E+00  0.89118076298E+00  0.88000000000E+00 0. -1.
        -11    1    4    4    0    0  0.23537409330E-01 -0.87825835140E-02  0.62227119519E-01  0.67109007859E-01  0.51100000000E-03 0. -1.
         11    1    4    4    0    0  0.31975948193E-01 -0.20862719300E-01  0.47158677549E-01  0.60678796203E-01  0.51100000000E-03 0.  1.
</event>
<event>
 8    1  0.1111182E+005  0.1043930E+01  0.7957747E-01            NaN
         13   -1    0    0    0    0  0.00000000000E+00  0.00000000000E+00  0.74505805969E-08  0.10566000000E+00  0.10566000000E+00 0.  1.
     999900   -1    0    0    0    0 -0.00000000000E+00 -0.00000000000E+00 -0.74505805969E-08  0.93827000000E+00  0.93827000000E+00 0. -1.
     999902    2    1    2    0    0 -0.15134529849E-01 -0.13232693703E-01  0.13998140612E-01  0.10194329366E+01  0.10191385608E+01 0.  0.
     999903    2    3    3    0    0 -0.11873331052E-01 -0.87305481203E-01  0.96768753597E-01  0.13244455578E+00  0.20350568683E-01 0.  0.
         14    1    1    2    0    0  0.15134529849E-01  0.13232693703E-01 -0.13998140612E-01  0.24497063436E-01  0.00000000000E+00 0. -1.
     999901    1    3    3    0    0 -0.32611987977E-02  0.74072787499E-01 -0.82770612985E-01  0.88698838078E+00  0.88000000000E+00 0.  1.
        -11    1    4    4    0    0  0.72657500964E-03 -0.58308818942E-01  0.69189212245E-01  0.90486764169E-01  0.51100000000E-03 0.  1.
         11    1    4    4    0    0 -0.12599906061E-01 -0.28996662261E-01  0.27579541352E-01  0.41957791615E-01  0.51100000000E-03 0. -1.
</event>
<event>
 8    1  0.1111182E+005  0.1043930E+01  0.7957747E-01            NaN
         13   -1    0    0    0    0  0.00000000000E+00  0.00000000000E+00  0.74505805969E-08  0.10566000000E+00  0.10566000000E+00 0.  1.
     999900   -1    0    0    0    0 -0.00000000000E+00 -0.00000000000E+00 -0.74505805969E-08  0.93827000000E+00  0.93827000000E+00 0.  1.
     999902    2    1    2    0    0 -0.34509789027E-02 -0.96228340916E-02  0.19235035305E-01  0.10221470990E+01  0.10219149658E+01 0.  0.
     999903    2    3    3    0    0 -0.49268332299E-01 -0.12182169024E+00  0.15380222265E-01  0.13383258673E+00  0.20167232137E-01 0.  0.
         14    1    1    2    0    0  0.34509789027E-02  0.96228340916E-02 -0.19235035305E-01  0.21782900967E-01  0.00000000000E+00 0. -1.
     999901    1    3    3    0    0  0.45817353396E-01  0.11219885615E+00  0.38548130405E-02  0.88831451231E+00  0.88000000000E+00 0.  1.
        -11    1    4    4    0    0 -0.36572711934E-01 -0.93819097119E-01  0.20211028261E-01  0.10270507790E+00  0.51100000000E-03 0.  1.
         11    1    4    4    0    0 -0.12695620365E-01 -0.28002593121E-01 -0.48308059965E-02  0.31127508823E-01  0.51100000000E-03 0. -1.
</event>
<event>
 8    1  0.1111182E+005  0.1043930E+01  0.7957747E-01            NaN
         13   -1    0    0    0    0  0.00000000000E+00  0.00000000000E+00  0.74505805969E-08  0.10566000000E+00  0.10566000000E+00 0.  1.
     999900   -1    0    0    0    0 -0.00000000000E+00 -0.00000000000E+00 -0.74505805969E-08  0.93827000000E+00  0.93827000000E+00 0. -1.
     999902    2    1    2    0    0  0.17487994668E-02  0.22330887094E-01 -0.72340772418E-02  0.10203915487E+01  0.10201200194E+01 0.  0.
     999903    2    3    3    0    0 -0.87490280782E-01 -0.16087363966E-01  0.91838469932E-01  0.12951841231E+00  0.20672737074E-01 0.  0.
         14    1    1    2    0    0 -0.17487994668E-02 -0.22330887094E-01  0.72340772418E-02  0.23538451341E-01  0.00000000000E+00 0.  1.
     999901    1    3    3    0    0  0.89239080249E-01  0.38418251060E-01 -0.99072547174E-01  0.89087313635E+00  0.88000000000E+00 0. -1.
        -11    1    4    4    0    0 -0.17040886509E-01  0.43409273418E-02  0.13315401489E-01  0.22063465300E-01  0.51100000000E-03 0. -1.
         11    1    4    4    0    0 -0.70449394273E-01 -0.20428291308E-01  0.78523068443E-01  0.10745494701E+00  0.51100000000E-03 0.  1.
</event>
<event>
 8    1  0.1111182E+005  0.1043930E+01  0.7957747E-01            NaN
         13   -1    0    0    0    0  0.00000000000E+00  0.00000000000E+00  0.74505805969E-08  0.10566000000E+00  0.10566000000E+00 0.  1.
     999900   -1    0    0    0    0 -0.00000000000E+00 -0.00000000000E+00 -0.74505805969E-08  0.93827000000E+00  0.93827000000E+00 0. -1.
     999902    2    1    2    0    0  0.77600562831E-02 -0.21778071665E-01 -0.61505310886E-02  0.10200065406E+01  0.10197259489E+01 0.  0.
     999903    2    3    3    0    0 -0.20089237540E-01 -0.30163329980E-02  0.12623739805E+00  0.12947066268E+00  0.20349351315E-01 0.  0.
         14    1    1    2    0    0 -0.77600562831E-02  0.21778071665E-01  0.61505310886E-02  0.23923459441E-01  0.00000000000E+00 0.  1.
     999901    1    3    3    0    0  0.27849293823E-01 -0.18761738667E-01 -0.13238792914E+00  0.89053587788E+00  0.88000000000E+00 0. -1.
        -11    1    4    4    0    0 -0.20561647303E-01  0.63683597890E-03  0.66346659375E-01  0.69464575368E-01  0.51100000000E-03 0.  1.
         11    1    4    4    0    0  0.47240976246E-03 -0.36531689769E-02  0.59890738676E-01  0.60006087314E-01  0.51100000000E-03 0. -1.
</event>
<event>
 8    1  0.1111182E+005  0.1043930E+01  0.7957747E-01            NaN
         13   -1    0    0    0    0  0.00000000000E+00  0.00000000000E+00  0.74505805969E-08  0.10566000000E+00  0.10566000000E+00 0. -1.
     999900   -1    0    0    0    0 -0.00000000000E+00 -0.00000000000E+00 -0.74505805969E-08  0.93827000000E+00  0.93827000000E+00 0.  1.
     999902    2    1    2    0    0 -0.83782250542E-02  0.20760918519E-01  0.72813491488E-02  0.10203879432E+01  0.10201163297E+01 0.  0.
     999903    2    3    3    0    0 -0.98085544340E-01 -0.30100527833E-01  0.79684530439E-01  0.13141296576E+00  0.19822396278E-01 0.  0.
         14    1    1    2    0    0  0.83782250542E-02 -0.20760918519E-01 -0.72813491488E-02  0.23542056797E-01  0.00000000000E+00 0. -1.
     999901    1    3    3    0    0  0.89707319286E-01  0.50861446352E-01 -0.72403181290E-01  0.88897497744E+00  0.88000000000E+00 0.  1.
        -11    1    4    4    0    0 -0.64881873888E-01 -0.99256437154E-02  0.49562829960E-01  0.82249080220E-01  0.51100000000E-03 0.  1.
         11    1    4    4    0    0 -0.33203670452E-01 -0.20174884117E-01  0.30121700479E-01  0.49163885540E-01  0.51100000000E-03 0. -1.
</event>
<event>
 8    1  0.1111182E+005  0.1043930E+01  0.7957747E-01            NaN
         13   -1    0    0    0    0  0.00000000000E+00  0.00000000000E+00  0.74505805969E-08  0.10566000000E+00  0.10566000000E+00 0. -1.
     999900   -1    0    0    0    0 -0.00000000000E+00 -0.00000000000E+00 -0.74505805969E-08  0.93827000000E+00  0.93827000000E+00 0. -1.
     999902    2    1    2    0    0 -0.23976727096E-02  0.20863418313E-01 -0.11710604941E-01  0.10198848482E+01  0.10196013604E+01 0.  0.
     999903    2    3    3    0    0 -0.54066279982E-01 -0.49243244057E-01  0.10379810463E+00  0.12807385303E+00  0.16757254797E-01 0.  0.
         14    1    1    2    0    0  0.23976727096E-02 -0.20863418313E-01  0.11710604941E-01  0.24045151823E-01  0.00000000000E+00 0. -1.
     999901    1    3    3    0    0  0.51668607273E-01  0.70106662369E-01 -0.11550870957E+00  0.89181099515E+00  0.88000000000E+00 0. -1.
        -11    1    4    4    0    0 -0.43108998388E-01 -0.34532173518E-01  0.66059244192E-01  0.86110055244E-01  0.51100000000E-03 0.  1.
         11    1    4    4    0    0 -0.10957281594E-01 -0.14711070538E-01  0.37738860435E-01  0.41963797782E-01  0.51100000000E-03 0. -1.
</event>
<event>
 8    1  0.1111182E+005  0.1043930E+01  0.7957747E-01            NaN
         13   -1    0    0    0    0  0.00000000000E+00  0.00000000000E+00  0.74505805969E-08  0.10566000000E+00  0.10566000000E+00 0.  1.
     999900   -1    0    0    0    0 -0.00000000000E+00 -0.00000000000E+00 -0.74505805969E-08  0.93827000000E+00  0.93827000000E+00 0. -1.
     999902    2    1    2    0    0  0.21429591862E-01  0.92562278206E-02 -0.69484900740E-02  0.10195745761E+01  0.10192836354E+01 0.  0.
     999903    2    3    3    0    0 -0.37790778341E-01 -0.30174230916E-01 -0.11846346108E+00  0.12968840240E+00  0.21139133558E-01 0.  0.
         14    1    1    2    0    0 -0.21429591862E-01 -0.92562278206E-02  0.69484900740E-02  0.24355423937E-01  0.00000000000E+00 0.  1.
     999901    1    3    3    0    0  0.59220370203E-01  0.39430458736E-01  0.11151497100E+00  0.88988617367E+00  0.88000000000E+00 0.  1.
        -11    1    4    4    0    0  0.23490822372E-02 -0.44324436481E-02 -0.97907146460E-02  0.11012899633E-01  0.51100000000E-03 0.  1.
         11    1    4    4    0    0 -0.40139860578E-01 -0.25741787268E-01 -0.10867274643E+00  0.11867550276E+00  0.51100000000E-03 0. -1.
</event>
<event>
 8    1  0.1111182E+005  0.1043930E+01  0.7957747E-01            NaN
         13   -1    0    0    0    0  0.00000000000E+00  0.00000000000E+00  0.74505805969E-08  0.10566000000E+00  0.10566000000E+00 0. -1.
     999900   -1    0    0    0    0 -0.00000000000E+00 -0.00000000000E+00 -0.74505805969E-08  0.93827000000E+00  0.93827000000E+00 0.  1.
     999902    2    1    2    0    0  0.17535868300E-01  0.12923177293E-01  0.21736047874E-01  0.10131571066E+01  0.10126896621E+01 0.  0.
     999903    2    3    3    0    0 -0.98545283103E-01  0.71217600060E-01 -0.31371528462E-02  0.12327410897E+00  0.20088425366E-01 0.  0.
         14    1    1    2    0    0 -0.17535868300E-01 -0.12923177293E-01 -0.21736047874E-01  0.30772893357E-01  0.00000000000E+00 0.  1.
     999901    1    3    3    0    0  0.11608115140E+00 -0.58294422766E-01  0.24873200721E-01  0.88988299767E+00  0.88000000000E+00 0.  1.
        -11    1    4    4    0    0 -0.76923947369E-01  0.48759252636E-01 -0.90989869297E-02  0.91530383375E-01  0.51100000000E-03 0.  1.
         11    1    4    4    0    0 -0.21621335734E-01  0.22458347423E-01  0.59618340835E-02  0.31743725593E-01  0.51100000000E-03 0. -1.
</event>
<event>
 8    1  0.1111182E+005  0.1043930E+01  0.7957747E-01            NaN
         13   -1    0    0    0    0  0.00000000000E+00  0.00000000000E+00  0.74505805969E-08  0.10566000000E+00  0.10566000000E+00 0. -1.
     999900   -1    0    0    0    0 -0.00000000000E+00 -0.00000000000E+00 -0.74505805969E-08  0.93827000000E+00  0.93827000000E+00 0. -1.
     999902    2    1    2    0    0  0.16077756464E-03 -0.23421977155E-01 -0.58665391900E-03  0.10205001254E+01  0.10202311242E+01 0.  0.
     999903    2    3    3    0    0  0.11823352018E+00  0.35956512350E-01  0.34666567736E-01  0.12993302108E+00  0.20218382130E-01 0.  0.
         14    1    1    2    0    0 -0.16077756464E-03  0.23421977155E-01  0.58665391900E-03  0.23429874650E-01  0.00000000000E+00 0.  1.
     999901    1    3    3    0    0 -0.11807274261E+00 -0.59378489506E-01 -0.35253221655E-01  0.89056710427E+00  0.88000000000E+00 0.  1.
        -11    1    4    4    0    0  0.32411485729E-01  0.35880362066E-02  0.24119019878E-02  0.32702550407E-01  0.51100000000E-03 0.  1.
         11    1    4    4    0    0  0.85822034447E-01  0.32368476144E-01  0.32254665748E-01  0.97230470677E-01  0.51100000000E-03 0. -1.
</event>
<event>
 8    1  0.1111182E+005  0.1043930E+01  0.7957747E-01            NaN
         13   -1    0    0    0    0  0.00000000000E+00  0.00000000000E+00  0.74505805969E-08  0.10566000000E+00  0.10566000000E+00 0. -1.
     999900   -1    0    0    0    0 -0.00000000000E+00 -0.00000000000E+00 -0.74505805969E-08  0.93827000000E+00  0.93827000000E+00 0.  1.
     999902    2    1    2    0    0  0.17804385435E-01 -0.19936949945E-02 -0.44652772270E-02  0.10254662609E+01  0.10253000257E+01 0.  0.
     999903    2    3    3    0    0 -0.93699763502E-01 -0.19765090292E-01 -0.91528041386E-01  0.13399056151E+00  0.20144074535E-01 0.  0.
         14    1    1    2    0    0 -0.17804385435E-01  0.19936949945E-02  0.44652772270E-02  0.18463739090E-01  0.00000000000E+00 0.  1.
     999901    1    3    3    0    0  0.11150414894E+00  0.17771395298E-01  0.87062764159E-01  0.89147569940E+00  0.88000000000E+00 0. -1.
        -11    1    4    4    0    0 -0.13188441778E-01 -0.95637442624E-02 -0.11016238328E-01  0.19672794127E-01  0.51100000000E-03 0.  1.
         11    1    4    4    0    0 -0.80511321724E-01 -0.10201346030E-01 -0.80511803058E-01  0.11431776738E+00  0.51100000000E-03 0. -1.
</event>
<event>
 8    1  0.1111182E+005  0.1043930E+01  0.7957747E-01            NaN
         13   -1    0    0    0    0  0.00000000000E+00  0.00000000000E+00  0.74505805969E-08  0.10566000000E+00  0.10566000000E+00 0.  1.
     999900   -1    0    0    0    0 -0.00000000000E+00 -0.00000000000E+00 -0.74505805969E-08  0.93827000000E+00  0.93827000000E+00 0.  1.
     999902    2    1    2    0    0  0.22576063563E-02 -0.19524404239E-01  0.14108270140E-01  0.10197361488E+01  0.10194491016E+01 0.  0.
     999903    2    3    3    0    0  0.92728632588E-01 -0.49854548449E-01 -0.73774228551E-01  0.13022602647E+00  0.20787156344E-01 0.  0.
         14    1    1    2    0    0 -0.22576063563E-02  0.19524404239E-01 -0.14108270140E-01  0.24193851154E-01  0.00000000000E+00 0.  1.
     999901    1    3    3    0    0 -0.90471026232E-01  0.30330144210E-01  0.87882498691E-01  0.88951012238E+00  0.88000000000E+00 0. -1.
        -11    1    4    4    0    0  0.31421579782E-01 -0.14010169590E-01 -0.35953442324E-01  0.49764562330E-01  0.51100000000E-03 0.  1.
         11    1    4    4    0    0  0.61307052807E-01 -0.35844378858E-01 -0.37820786227E-01  0.80461464139E-01  0.51100000000E-03 0. -1.
</event>
<event>
 8    1  0.1111182E+005  0.1043930E+01  0.7957747E-01            NaN
         13   -1    0    0    0    0  0.00000000000E+00  0.00000000000E+00  0.74505805969E-08  0.10566000000E+00  0.10566000000E+00 0.  1.
     999900   -1    0    0    0    0 -0.00000000000E+00 -0.00000000000E+00 -0.74505805969E-08  0.93827000000E+00  0.93827000000E+00 0. -1.
     999902    2    1    2    0    0  0.84289183314E-02  0.22341413665E-01  0.32982353967E-02  0.10198247353E+01  0.10195398114E+01 0.  0.
     999903    2    3    3    0    0 -0.79735208611E-01  0.96058972161E-01 -0.36001975198E-01  0.13148262877E+00  0.20162088807E-01 0.  0.
         14    1    1    2    0    0 -0.84289183314E-02 -0.22341413665E-01 -0.32982353967E-02  0.24105264685E-01  0.00000000000E+00 0.  1.
     999901    1    3    3    0    0  0.88164126942E-01 -0.73717558495E-01  0.39300210594E-01  0.88834210655E+00  0.88000000000E+00 0.  1.
        -11    1    4    4    0    0 -0.24985728272E-01  0.43736014965E-01 -0.19205717533E-01  0.53909612587E-01  0.51100000000E-03 0.  1.
         11    1    4    4    0    0 -0.54749480338E-01  0.52322957196E-01 -0.16796257665E-01  0.77573016182E-01  0.51100000000E-03 0. -1.
</event>
<event>
 8    1  0.1111182E+005  0.1043930E+01  0.7957747E-01            NaN
         13   -1    0    0    0    0  0.00000000000E+00  0.00000000000E+00  0.74505805969E-08  0.10566000000E+00  0.10566000000E+00 0. -1.
     999900   -1    0    0    0    0 -0.00000000000E+00 -0.00000000000E+00 -0.74505805969E-08  0.93827000000E+00  0.93827000000E+00 0.  1.
     999902    2    1    2    0    0  0.10203816323E-01  0.72282334914E-02  0.20634978922E-01  0.10198018508E+01  0.10195163792E+01 0.  0.
     999903    2    3    3    0    0  0.11521130655E+00 -0.32720490088E-01 -0.46626085685E-01  0.13011284656E+00  0.20275239690E-01 0.  0.
         14    1    1    2    0    0 -0.10203816323E-01 -0.72282334914E-02 -0.20634978922E-01  0.24128149164E-01  0.00000000000E+00 0.  1.
     999901    1    3    3    0    0 -0.10500749023E+00  0.39948723580E-01  0.67261064607E-01  0.88968900428E+00  0.88000000000E+00 0. -1.
        -11    1    4    4    0    0  0.38819894200E-01 -0.21094195986E-01 -0.17948992964E-01  0.47690426287E-01  0.51100000000E-03 0. -1.
         11    1    4    4    0    0  0.76391412351E-01 -0.11626294102E-01 -0.28677092721E-01  0.82422420271E-01  0.51100000000E-03 0.  1.
</event>
<event>
 8    1  0.1111182E+005  0.1043930E+01  0.7957747E-01            NaN
         13   -1    0    0    0    0  0.00000000000E+00  0.00000000000E+00  0.74505805969E-08  0.10566000000E+00  0.10566000000E+00 0.  1.
     999900   -1    0    0    0    0 -0.00000000000E+00 -0.00000000000E+00 -0.74505805969E-08  0.93827000000E+00  0.93827000000E+00 0. -1.
     999902    2    1    2    0    0  0.17217559015E-02 -0.36082781725E-02  0.28025849993E-01  0.10156204189E+01  0.10152257891E+01 0.  0.
     999903    2    3    3    0    0 -0.87106781922E-01 -0.86288914750E-01  0.23159711274E-01  0.12727911280E+00  0.25104423194E-01 0.  0.
         14    1    1    2    0    0 -0.17217559015E-02  0.36082781725E-02 -0.28025849993E-01  0.28309581110E-01  0.00000000000E+00 0. -1.
     999901    1    3    3    0    0  0.88828537824E-01  0.82680636577E-01  0.48661387192E-02  0.88834130609E+00  0.88000000000E+00 0.  1.
        -11    1    4    4    0    0 -0.27379725073E-01 -0.42226781394E-01  0.32586122922E-02  0.50434413717E-01  0.51100000000E-03 0. -1.
         11    1    4    4    0    0 -0.59727056849E-01 -0.44062133356E-01  0.19901098982E-01  0.76844699085E-01  0.51100000000E-03 0.  1.
</event>
<event>
 8    1  0.1111182E+005  0.1043930E+01  0.7957747E-01            NaN
         13   -1    0    0    0    0  0.00000000000E+00  0.00000000000E+00  0.74505805969E-08  0.10566000000E+00  0.10566000000E+00 0.  1.
     999900   -1    0    0    0    0 -0.00000000000E+00 -0.00000000000E+00 -0.74505805969E-08  0.93827000000E+00  0.93827000000E+00 0. -1.
     999902    2    1    2    0    0 -0.75156272877E-02 -0.14445462691E-01  0.16523350228E-01  0.10207313546E+01  0.10204676972E+01 0.  0.
     999903    2    3    3    0    0 -0.59638116082E-01 -0.12501427779E-01  0.11672340174E+00  0.13351064731E+00  0.22085059317E-01 0.  0.
         14    1    1    2    0    0  0.75156272877E-02  0.14445462691E-01 -0.16523350228E-01  0.23198645406E-01  0.00000000000E+00 0. -1.
     999901    1    3    3    0    0  0.52122488794E-01 -0.19440349128E-02 -0.10020005151E+00  0.88722070728E+00  0.88000000000E+00 0. -1.
        -11    1    4    4    0    0 -0.22507740426E-01 -0.56474592764E-03  0.23971290355E-01  0.32890746409E-01  0.51100000000E-03 0. -1.
         11    1    4    4    0    0 -0.37130375656E-01 -0.11936681851E-01  0.92752111386E-01  0.10061990090E+00  0.51100000000E-03 0.  1.
</event>
<event>
 8    1  0.1111182E+005  0.1043930E+01  0.7957747E-01            NaN
         13   -1    0    0    0    0  0.00000000000E+00  0.00000000000E+00  0.74505805969E-08  0.10566000000E+00  0.10566000000E+00 0.  1.
     999900   -1    0    0    0    0 -0.00000000000E+00 -0.00000000000E+00 -0.74505805969E-08  0.93827000000E+00  0.93827000000E+00 0. -1.
     999902    2    1    2    0    0 -0.70046371963E-02  0.21357286721E-01 -0.24040146818E-02  0.10213251792E+01  0.10210749941E+01 0.  0.
     999903    2    3    3    0    0 -0.51274803215E-01  0.51012991516E-01 -0.10993601089E+00  0.13317967384E+00  0.20480924909E-01 0.  0.
         14    1    1    2    0    0  0.70046371963E-02 -0.21357286721E-01  0.24040146818E-02  0.22604820834E-01  0.00000000000E+00 0.  1.
     999901    1    3    3    0    0  0.44270166019E-01 -0.29655704795E-01  0.10753199621E+00  0.88814550533E+00  0.88000000000E+00 0.  1.
        -11    1    4    4    0    0 -0.37619226005E-01  0.26900724280E-01 -0.56787884475E-01  0.73239197676E-01  0.51100000000E-03 0. -1.
         11    1    4    4    0    0 -0.13655577210E-01  0.24112267236E-01 -0.53148126415E-01  0.59940476162E-01  0.51100000000E-03 0.  1.
</event>
<event>
 8    1  0.1111182E+005  0.1043930E+01  0.7957747E-01            NaN
         13   -1    0    0    0    0  0.00000000000E+00  0.00000000000E+00  0.74505805969E-08  0.10566000000E+00  0.10566000000E+00 0. -1.
     999900   -1    0    0    0    0 -0.00000000000E+00 -0.00000000000E+00 -0.74505805969E-08  0.93827000000E+00  0.93827000000E+00 0. -1.
     999902    2    1    2    0    0  0.58109369645E-02  0.22558255458E-01 -0.57863088885E-02  0.10199274325E+01  0.10196449599E+01 0.  0.
     999903    2    3    3    0    0  0.92651095251E-01  0.10580903656E-01 -0.90621917400E-01  0.13151212951E+00  0.19670468281E-01 0.  0.
         14    1    1    2    0    0 -0.58109369645E-02 -0.22558255458E-01  0.57863088885E-02  0.24002567535E-01  0.00000000000E+00 0. -1.
     999901    1    3    3    0    0 -0.86840158287E-01  0.11977351802E-01  0.84835608512E-01  0.88841530295E+00  0.88000000000E+00 0.  1.
        -11    1    4    4    0    0  0.42644907469E-01  0.12173993087E-01 -0.51732073530E-01  0.68141490983E-01  0.51100000000E-03 0. -1.
         11    1    4    4    0    0  0.50006187782E-01 -0.15930894305E-02 -0.38889843870E-01  0.63370638530E-01  0.51100000000E-03 0.  1.
</event>
<event>
 8    1  0.1111182E+005  0.1043930E+01  0.7957747E-01            NaN
         13   -1    0    0    0    0  0.00000000000E+00  0.00000000000E+00  0.74505805969E-08  0.10566000000E+00  0.10566000000E+00 0. -1.
     999900   -1    0    0    0    0 -0.00000000000E+00 -0.00000000000E+00 -0.74505805969E-08  0.93827000000E+00  0.93827000000E+00 0.  1.
     999902    2    1    2    0    0 -0.20573164549E-01  0.94151238276E-02 -0.10569924128E-01  0.10189575561E+01  0.10186514999E+01 0.  0.
     999903    2    3    3    0    0  0.70707550782E-01  0.47086522003E-01  0.92734682922E-01  0.12742901197E+00  0.20536148208E-01 0.  0.
         14    1    1    2    0    0  0.20573164549E-01 -0.94151238276E-02  0.10569924128E-01  0.24972443860E-01  0.00000000000E+00 0.  1.
     999901    1    3    3    0    0 -0.91280715331E-01 -0.37671398176E-01 -0.10330460705E+00  0.89152854417E+00  0.88000000000E+00 0.  1.
        -11    1    4    4    0    0  0.28853263980E-01  0.29327389596E-01  0.52601751935E-01  0.66781824252E-01  0.51100000000E-03 0. -1.
         11    1    4    4    0    0  0.41854286802E-01  0.17759132407E-01  0.40132930987E-01  0.60647187719E-01  0.51100000000E-03 0.  1.
</event>
<event>
 8    1  0.1111182E+005  0.1043930E+01  0.7957747E-01            NaN
         13   -1    0    0    0    0  0.00000000000E+00  0.00000000000E+00  0.74505805969E-08  0.10566000000E+00  0.10566000000E+00 0. -1.
     999900   -1    0    0    0    0 -0.00000000000E+00 -0.00000000000E+00 -0.74505805969E-08  0.93827000000E+00  0.93827000000E+00 0. -1.
     999902    2    1    2    0    0 -0.55052646629E-03  0.22641090541E-01 -0.63834257737E-02  0.10203998027E+01  0.10201284660E+01 0.  0.
     999903    2    3    3    0    0 -0.79118502452E-01 -0.91849551525E-02  0.10071373037E+00  0.12986309661E+00  0.19418227126E-01 0.  0.
         14    1    1    2    0    0  0.55052646629E-03 -0.22641090541E-01  0.63834257737E-02  0.23530197298E-01  0.00000000000E+00 0. -1.
     999901    1    3    3    0    0  0.78567975986E-01  0.31826045694E-01 -0.10709715615E+00  0.89053670609E+00  0.88000000000E+00 0. -1.
        -11    1    4    4    0    0 -0.48907025991E-01  0.38798080125E-02  0.60350492553E-01  0.77777845007E-01  0.51100000000E-03 0.  1.
         11    1    4    4    0    0 -0.30211476461E-01 -0.13064763165E-01  0.40363237821E-01  0.52085251606E-01  0.51100000000E-03 0. -1.
</event>
<event>
 8    1  0.1111182E+005  0.1043930E+01  0.7957747E-01            NaN
         13   -1    0    0    0    0  0.00000000000E+00  0.00000000000E+00  0.74505805969E-08  0.10566000000E+00  0.10566000000E+00 0. -1.
     999900   -1    0    0    0    0 -0.00000000000E+00 -0.00000000000E+00 -0.74505805969E-08  0.93827000000E+00  0.93827000000E+00 0.  1.
     999902    2    1    2    0    0 -0.17843023209E-01 -0.61262864087E-02  0.15676659073E-01  0.10194011904E+01  0.10191060418E+01 0.  0.
     999903    2    3    3    0    0 -0.32492073651E-01  0.62357731369E-01 -0.10547475469E+00  0.12834433448E+00  0.20077918286E-01 0.  0.
         14    1    1    2    0    0  0.17843023209E-01  0.61262864087E-02 -0.15676659073E-01  0.24528809634E-01  0.00000000000E+00 0. -1.
     999901    1    3    3    0    0  0.14649050442E-01 -0.68484017778E-01  0.12115141377E+00  0.89105685589E+00  0.88000000000E+00 0. -1.
        -11    1    4    4    0    0 -0.22522192337E-01  0.25306481949E-01 -0.59398075164E-01  0.68381720002E-01  0.51100000000E-03 0. -1.
         11    1    4    4    0    0 -0.99698813134E-02  0.37051249420E-01 -0.46076679531E-01  0.59962614474E-01  0.51100000000E-03 0.  1.
</event>
<event>
 8    1  0.1111182E+005  0.1043930E+01  0.7957747E-01            NaN
         13   -1    0    0    0    0  0.00000000000E+00  0.00000000000E+00  0.74505805969E-08  0.10566000000E+00  0.10566000000E+00 0.  1.
     999900   -1    0    0    0    0 -0.00000000000E+00 -0.00000000000E+00 -0.74505805969E-08  0.93827000000E+00  0.93827000000E+00 0.  1.
     999902    2    1    2    0    0  0.83379408251E-02 -0.17653343434E-01 -0.13997788360E-01  0.10199070970E+01  0.10196241398E+01 0.  0.
     999903    2    3    3    0    0 -0.31038543816E-01  0.14937688756E-01 -0.12526657691E+00  0.13142894516E+00  0.19882821401E-01 0.  0.
         14    1    1    2    0    0 -0.83379408251E-02  0.17653343434E-01  0.13997788360E-01  0.24022903042E-01  0.00000000000E+00 0. -1.
     999901    1    3    3    0    0  0.39376484641E-01 -0.32591032190E-01  0.11126878855E+00  0.88847815180E+00  0.88000000000E+00 0. -1.
        -11    1    4    4    0    0 -0.18061920221E-01 -0.13162927780E-02 -0.71977479600E-01  0.74222532154E-01  0.51100000000E-03 0.  1.
         11    1    4    4    0    0 -0.12976623595E-01  0.16253981534E-01 -0.53289097309E-01  0.57206413003E-01  0.51100000000E-03 0. -1.
</event>
<event>
 8    1  0.1111182E+005  0.1043930E+01  0.7957747E-01            NaN
         13   -1    0    0    0    0  0.00000000000E+00  0.00000000000E+00  0.74505805969E-08  0.10566000000E+00  0.10566000000E+00 0.  1.
     999900   -1    0    0    0    0 -0.00000000000E+00 -0.00000000000E+00 -0.74505805969E-08  0.93827000000E+00  0.93827000000E+00 0.  1.
     999902    2    1    2    0    0  0.19157310337E-01  0.39442954192E-02  0.12113592460E-01  0.10209234981E+01  0.10206642396E+01 0.  0.
     999903    2    3    3    0    0 -0.10412227487E+00 -0.53619925865E-01  0.51822654901E-01  0.12958276343E+00  0.19737285622E-01 0.  0.
         14    1    1    2    0    0 -0.19157310337E-01 -0.39442954192E-02 -0.12113592460E-01  0.23006501863E-01  0.00000000000E+00 0.  1.
     999901    1    3    3    0    0  0.12327958521E+00  0.57564221284E-01 -0.39709062441E-01  0.89134073470E+00  0.88000000000E+00 0.  1.
        -11    1    4    4    0    0 -0.77523602775E-01 -0.34221044219E-01  0.45033478065E-01  0.95964910891E-01  0.51100000000E-03 0.  1.
         11    1    4    4    0    0 -0.26598672097E-01 -0.19398881646E-01  0.67891768356E-02  0.33617852542E-01  0.51100000000E-03 0. -1.
</event>
<event>
 8    1  0.1111182E+005  0.1043930E+01  0.7957747E-01            NaN
         13   -1    0    0    0    0  0.00000000000E+00  0.00000000000E+00  0.74505805969E-08  0.10566000000E+00  0.10566000000E+00 0. -1.
     999900   -1    0    0    0    0 -0.00000000000E+00 -0.00000000000E+00 -0.74505805969E-08  0.93827000000E+00  0.93827000000E+00 0. -1.
     999902    2    1    2    0    0  0.13986913299E-01  0.29078189569E-02  0.19338818559E-01  0.10198867253E+01  0.10196032824E+01 0.  0.
     999903    2    3    3    0    0 -0.90936504769E-03 -0.10661416855E+00 -0.69039017684E-01  0.12858004027E+00  0.19975808145E-01 0.  0.
         14    1    1    2    0    0 -0.13986913299E-01 -0.29078189569E-02 -0.19338818559E-01  0.24043274693E-01  0.00000000000E+00 0.  1.
     999901    1    3    3    0    0  0.14896278346E-01  0.10952198751E+00  0.88377836244E-01  0.89130668504E+00  0.88000000000E+00 0.  1.
        -11    1    4    4    0    0 -0.36676921681E-02 -0.10347815002E+00 -0.62948262988E-01  0.12117724387E+00  0.51100000000E-03 0.  1.
         11    1    4    4    0    0  0.27583271204E-02 -0.31360185342E-02 -0.60907546963E-02  0.74027963987E-02  0.51100000000E-03 0. -1.
</event>
<event>
 8    1  0.1111182E+005  0.1043930E+01  0.7957747E-01            NaN
         13   -1    0    0    0    0  0.00000000000E+00  0.00000000000E+00  0.74505805969E-08  0.10566000000E+00  0.10566000000E+00 0.  1.
     999900   -1    0    0    0    0 -0.00000000000E+00 -0.00000000000E+00 -0.74505805969E-08  0.93827000000E+00  0.93827000000E+00 0. -1.
     999902    2    1    2    0    0 -0.14360754083E-01 -0.85584292811E-02 -0.16860110352E-01  0.10201867633E+01  0.10199104327E+01 0.  0.
     999903    2    3    3    0    0  0.10303033923E+00 -0.19740599286E-01 -0.74843984778E-01  0.13042958324E+00  0.20132363622E-01 0.  0.
         14    1    1    2    0    0  0.14360754083E-01  0.85584292811E-02  0.16860110352E-01  0.23743236735E-01  0.00000000000E+00 0.  1.
     999901    1    3    3    0    0 -0.11739109331E+00  0.11182170005E-01  0.57983874426E-01  0.88975718003E+00  0.88000000000E+00 0.  1.
        -11    1    4    4    0    0  0.45921991369E-01 -0.79216384665E-02 -0.45545332317E-01  0.65163026819E-01  0.51100000000E-03 0.  1.
         11    1    4    4    0    0  0.57108347858E-01 -0.11818960820E-01 -0.29298652460E-01  0.65266556420E-01  0.51100000000E-03 0. -1.
</event>
<event>
 8    1  0.1111182E+005  0.1043930E+01  0.7957747E-01            NaN
         13   -1    0    0    0    0  0.00000000000E+00  0.00000000000E+00  0.74505805969E-08  0.10566000000E+00  0.10566000000E+00 0.  1.
     999900   -1    0    0    0    0 -0.00000000000E+00 -0.00000000000E+00 -0.74505805969E-08  0.93827000000E+00  0.93827000000E+00 0. -1.
     999902    2    1    2    0    0  0.51401383021E-02 -0.14384328057E-01  0.19827901441E-01  0.10189005056E+01  0.10185930319E+01 0.  0.
     999903    2    3    3    0    0 -0.52876882612E-01  0.11436921785E+00  0.47702237471E-03  0.12743098461E+00  0.19030123015E-01 0.  0.
         14    1    1    2    0    0 -0.51401383021E-02  0.14384328057E-01 -0.19827901441E-01  0.25029494421E-01  0.00000000000E+00 0. -1.
     999901    1    3    3    0    0  0.58017020915E-01 -0.12875354590E+00  0.19350879067E-01  0.89146952097E+00  0.88000000000E+00 0.  1.
        -11    1    4    4    0    0 -0.18114971830E-01  0.56633188571E-01  0.62473409968E-02  0.59789302076E-01  0.51100000000E-03 0.  1.
         11    1    4    4    0    0 -0.34761910782E-01  0.57736029276E-01 -0.57703186221E-02  0.67641682532E-01  0.51100000000E-03 0. -1.
</event>
<event>
 8    1  0.1111182E+005  0.1043930E+01  0.7957747E-01            NaN
         13   -1    0    0    0    0  0.00000000000E+00  0.00000000000E+00  0.74505805969E-08  0.10566000000E+00  0.10566000000E+00 0.  1.
     999900   -1    0    0    0    0 -0.00000000000E+00 -0.00000000000E+00 -0.74505805969E-08  0.93827000000E+00  0.93827000000E+00 0. -1.
     999902    2    1    2    0    0 -0.42972404433E-02  0.19379915728E-01 -0.98365540063E-02  0.10217758761E+01  0.10215356753E+01 0.  0.
     999903    2    3    3    0    0  0.24333295816E-01 -0.12012298703E+00 -0.38535494573E-01  0.12986534438E+00  0.18930980687E-01 0.  0.
         14    1    1    2    0    0  0.42972404433E-02 -0.19379915728E-01  0.98365540063E-02  0.22154123855E-01  0.00000000000E+00 0.  1.
     999901    1    3    3    0    0 -0.28630536259E-01  0.13950290276E+00  0.28698940567E-01  0.89191053177E+00  0.88000000000E+00 0.  1.
        -11    1    4    4    0    0  0.22678964458E-01 -0.11296528241E+00 -0.30975549804E-01  0.11931150936E+00  0.51100000000E-03 0.  1.
         11    1    4    4    0    0  0.16543313580E-02 -0.71577046199E-02 -0.75599447685E-02  0.10553835017E-01  0.51100000000E-03 0. -1.
</event>
<event>
 8    1  0.1111182E+005  0.1043930E+01  0.7957747E-01            NaN
         13   -1    0    0    0    0  0.00000000000E+00  0.00000000000E+00  0.74505805969E-08  0.10566000000E+00  0.10566000000E+00 0. -1.
     999900   -1    0    0    0    0 -0.00000000000E+00 -0.00000000000E+00 -0.74505805969E-08  0.93827000000E+00  0.93827000000E+00 0. -1.
     999902    2    1    2    0    0  0.26486485206E-01 -0.13484953618E-02 -0.10354990927E-01  0.10154593454E+01  0.10150601479E+01 0.  0.
     999903    2    3    3    0    0 -0.21112262086E-01 -0.10333740416E+00 -0.66885165758E-01  0.12649194499E+00  0.20055922796E-01 0.  0.
         14    1    1    2    0    0 -0.26486485206E-01  0.13484953618E-02  0.10354990927E-01  0.28470654636E-01  0.00000000000E+00 0.  1.
     999901    1    3    3    0    0  0.47598747293E-01  0.10198890880E+00  0.56530174830E-01  0.88896740037E+00  0.88000000000E+00 0. -1.
        -11    1    4    4    0    0 -0.80318122341E-02 -0.45183985925E-01 -0.17624616202E-01  0.49162900740E-01  0.51100000000E-03 0. -1.
         11    1    4    4    0    0 -0.13080449852E-01 -0.58153418237E-01 -0.49260549555E-01  0.77329044249E-01  0.51100000000E-03 0.  1.
</event>
<event>
 8    1  0.1111182E+005  0.1043930E+01  0.7957747E-01            NaN
         13   -1    0    0    0    0  0.00000000000E+00  0.00000000000E+00  0.74505805969E-08  0.10566000000E+00  0.10566000000E+00 0.  1.
     999900   -1    0    0    0    0 -0.00000000000E+00 -0.00000000000E+00 -0.74505805969E-08  0.93827000000E+00  0.93827000000E+00 0.  1.
     999902    2    1    2    0    0  0.15792926999E-02 -0.17600685280E-01  0.15235837454E-01  0.10205974255E+01  0.10203306797E+01 0.  0.
     999903    2    3    3    0    0 -0.12787027619E+00 -0.75681398329E-02 -0.16460684815E-01  0.13050613114E+00  0.18783286334E-01 0.  0.
         14    1    1    2    0    0 -0.15792926999E-02  0.17600685280E-01 -0.15235837454E-01  0.23332574455E-01  0.00000000000E+00 0. -1.
     999901    1    3    3    0    0  0.12944956889E+00 -0.10032545447E-01  0.31696522269E-01  0.89009129441E+00  0.88000000000E+00 0. -1.
        -11    1    4    4    0    0 -0.10165443038E+00 -0.12464970736E-01 -0.90193829696E-02  0.10281346751E+00  0.51100000000E-03 0.  1.
         11    1    4    4    0    0 -0.26215845815E-01  0.48968309030E-02 -0.74413018449E-02  0.27692663629E-01  0.51100000000E-03 0. -1.
</event>
<event>
 8    1  0.1111182E+005  0.1043930E+01  0.7957747E-01            NaN
         13   -1    0    0    0    0  0.00000000000E+00  0.00000000000E+00  0.74505805969E-08  0.10566000000E+00  0.10566000000E+00 0. -1.
     999900   -1    0    0    0    0 -0.00000000000E+00 -0.00000000000E+00 -0.74505805969E-08  0.93827000000E+00  0.93827000000E+00 0.  1.
     999902    2    1    2    0    0  0.87133605067E-02 -0.19231736174E-01  0.10935825788E-01  0.10201523926E+01  0.10198752519E+01 0.  0.
     999903    2    3    3    0    0  0.61149589938E-01 -0.11541673898E+00  0.15366166488E-01  0.13334872728E+00  0.22033338562E-01 0.  0.
         14    1    1    2    0    0 -0.87133605067E-02  0.19231736174E-01 -0.10935825788E-01  0.23777607391E-01  0.00000000000E+00 0.  1.
     999901    1    3    3    0    0 -0.52436229431E-01  0.96185002807E-01 -0.44303407001E-02  0.88680366533E+00  0.88000000000E+00 0.  1.
        -11    1    4    4    0    0  0.32423453236E-01 -0.72862361019E-01 -0.34742664371E-05  0.79752524136E-01  0.51100000000E-03 0.  1.
         11    1    4    4    0    0  0.28726136702E-01 -0.42554377962E-01  0.15369640755E-01  0.53596203144E-01  0.51100000000E-03 0. -1.
</event>
<event>
 8    1  0.1111182E+005  0.1043930E+01  0.7957747E-01            NaN
         13   -1    0    0    0    0  0.00000000000E+00  0.00000000000E+00  0.74505805969E-08  0.10566000000E+00  0.10566000000E+00 0.  1.
     999900   -1    0    0    0    0 -0.00000000000E+00 -0.00000000000E+00 -0.74505805969E-08  0.93827000000E+00  0.93827000000E+00 0. -1.
     999902    2    1    2    0    0  0.57974931276E-03  0.20858325993E-01 -0.11222117458E-01  0.10202373473E+01  0.10199622067E+01 0.  0.
     999903    2    3    3    0    0  0.50202510490E-01 -0.32084368861E-01  0.11232593992E+00  0.12864917450E+00  0.19590674743E-01 0.  0.
         14    1    1    2    0    0 -0.57974931276E-03 -0.20858325993E-01  0.11222117458E-01  0.23692652717E-01  0.00000000000E+00 0.  1.
     999901    1    3    3    0    0 -0.49622761178E-01  0.52942694854E-01 -0.12354805737E+00  0.89158817278E+00  0.88000000000E+00 0. -1.
        -11    1    4    4    0    0  0.46508863519E-01 -0.30984685393E-01  0.89656640056E-01  0.10564894388E+00  0.51100000000E-03 0. -1.
         11    1    4    4    0    0  0.36936469710E-02 -0.10996834673E-02  0.22669299860E-01  0.23000230625E-01  0.51100000000E-03 0.  1.
</event>
<event>
 8    1  0.1111182E+005  0.1043930E+01  0.7957747E-01            NaN
         13   -1    0    0    0    0  0.00000000000E+00  0.00000000000E+00  0.74505805969E-08  0.10566000000E+00  0.10566000000E+00 0.  1.
     999900   -1    0    0    0    0 -0.00000000000E+00 -0.00000000000E+00 -0.74505805969E-08  0.93827000000E+00  0.93827000000E+00 0.  1.
     999902    2    1    2    0    0 -0.12350518249E-01 -0.19187795806E-01 -0.69688811356E-02  0.10200705760E+01  0.10197915022E+01 0.  0.
     999903    2    3    3    0    0 -0.71087634061E-01  0.59299575900E-01 -0.91594594783E-01  0.13059217397E+00  0.97393372133E-02 0.  0.
         14    1    1    2    0    0  0.12350518249E-01  0.19187795806E-01  0.69688811356E-02  0.23859423991E-01  0.00000000000E+00 0.  1.
     999901    1    3    3    0    0  0.58737115812E-01 -0.78487371706E-01  0.84625713647E-01  0.88947840204E+00  0.88000000000E+00 0. -1.
        -11    1    4    4    0    0 -0.37105738078E-01  0.27228516666E-01 -0.39970518301E-01  0.60960080154E-01  0.51100000000E-03 0. -1.
         11    1    4    4    0    0 -0.33981895983E-01  0.32071059234E-01 -0.51624076482E-01  0.69632093812E-01  0.51100000000E-03 0.  1.
</event>
<event>
 8    1  0.1111182E+005  0.1043930E+01  0.7957747E-01            NaN
         13   -1    0    0    0    0  0.00000000000E+00  0.00000000000E+00  0.74505805969E-08  0.10566000000E+00  0.10566000000E+00 0. -1.
     999900   -1    0    0    0    0 -0.00000000000E+00 -0.00000000000E+00 -0.74505805969E-08  0.93827000000E+00  0.93827000000E+00 0. -1.
     999902    2    1    2    0    0  0.22987296390E-01 -0.82098631619E-03 -0.45653295118E-02  0.10204793700E+01  0.10202098865E+01 0.  0.
     999903    2    3    3    0    0  0.10775949434E+00 -0.46978312641E-01 -0.59805299043E-01  0.13347977668E+00  0.20520879865E-01 0.  0.
         14    1    1    2    0    0 -0.22987296390E-01  0.82098631619E-03  0.45653295118E-02  0.23450630000E-01  0.00000000000E+00 0. -1.
     999901    1    3    3    0    0 -0.84772197947E-01  0.46157326325E-01  0.55239969531E-01  0.88699959332E+00  0.88000000000E+00 0.  1.
        -11    1    4    4    0    0  0.83803889471E-01 -0.34089344568E-01 -0.36155663095E-01  0.97430325866E-01  0.51100000000E-03 0.  1.
         11    1    4    4    0    0  0.23955604866E-01 -0.12888968073E-01 -0.23649635947E-01  0.36049450813E-01  0.51100000000E-03 0. -1.
</event>
<event>
 8    1  0.1111182E+005  0.1043930E+01  0.7957747E-01            NaN
         13   -1    0    0    0    0  0.00000000000E+00  0.00000000000E+00  0.74505805969E-08  0.10566000000E+00  0.10566000000E+00 0.  1.
     999900   -1    0    0    0    0 -0.00000000000E+00 -0.00000000000E+00 -0.74505805969E-08  0.93827000000E+00  0.93827000000E+00 0.  1.
     999902    2    1    2    0    0 -0.14294128675E-01  0.87776467294E-02  0.17701546113E-01  0.10195432427E+01  0.10192515439E+01 0.  0.
     999903    2    3    3    0    0 -0.11674985957E+00 -0.26219368673E-01  0.51987191337E-01  0.13224539342E+00  0.21637722033E-01 0.  0.
         14    1    1    2    0    0  0.14294128675E-01 -0.87776467294E-02 -0.17701546113E-01  0.24386757297E-01  0.00000000000E+00 0. -1.
     999901    1    3    3    0    0  0.10245573089E+00  0.34997015402E-01 -0.34285645225E-01  0.88729784929E+00  0.88000000000E+00 0.  1.
        -11    1    4    4    0    0 -0.78932965774E-01 -0.98335079466E-02  0.41477076359E-01  0.89709085096E-01  0.51100000000E-03 0.  1.
         11    1    4    4    0    0 -0.37816893791E-01 -0.16385860726E-01  0.10510114978E-01  0.42536308321E-01  0.51100000000E-03 0. -1.
</event>
<event>
 8    1  0.1111182E+005  0.1043930E+01  0.7957747E-01            NaN
         13   -1    0    0    0    0  0.00000000000E+00  0.00000000000E+00  0.74505805969E-08  0.10566000000E+00  0.10566000000E+00 0.  1.
     999900   -1    0    0    0    0 -0.00000000000E+00 -0.00000000000E+00 -0.74505805969E-08  0.93827000000E+00  0.93827000000E+00 0. -1.
     999902    2    1    2    0    0 -0.22055291850E-01 -0.17476952252E-02  0.89693554980E-02  0.10200565906E+01  0.10197771857E+01 0.  0.
     999903    2    3    3    0    0 -0.31682409651E-01  0.11137062581E+00  0.58737914850E-01  0.13136916219E+00  0.20013064695E-01 0.  0.
         14    1    1    2    0    0  0.22055291850E-01  0.17476952252E-02 -0.89693554980E-02  0.23873409376E-01  0.00000000000E+00 0. -1.
     999901    1    3    3    0    0  0.96271178014E-02 -0.11311832104E+00 -0.49768559352E-01  0.88868742843E+00  0.88000000000E+00 0. -1.
        -11    1    4    4    0    0 -0.84879020243E-02  0.30263601577E-01  0.26304656757E-01  0.40989341898E-01  0.51100000000E-03 0. -1.
         11    1    4    4    0    0 -0.23194507627E-01  0.81107024238E-01  0.32433258094E-01  0.90379820294E-01  0.51100000000E-03 0.  1.
</event>
<event>
 8    1  0.1111182E+005  0.1043930E+01  0.7957747E-01            NaN
         13   -1    0    0    0    0  0.00000000000E+00  0.00000000000E+00  0.74505805969E-08  0.10566000000E+00  0.10566000000E+00 0.  1.
     999900   -1    0    0    0    0 -0.00000000000E+00 -0.00000000000E+00 -0.74505805969E-08  0.93827000000E+00  0.93827000000E+00 0.  1.
     999902    2    1    2    0    0 -0.25513687082E-01 -0.52258647174E-02  0.33890205011E-02  0.10176670346E+01  0.10173280936E+01 0.  0.
     999903    2    3    3    0    0  0.23349228996E-01 -0.95666078450E-01  0.80240202227E-01  0.12835655961E+00  0.18431800814E-01 0.  0.
         14    1    1    2    0    0  0.25513687082E-01  0.52258647174E-02 -0.33890205011E-02  0.26262965379E-01  0.00000000000E+00 0.  1.
     999901    1    3    3    0    0 -0.48862916078E-01  0.90440213733E-01 -0.76851181726E-01  0.88931047501E+00  0.88000000000E+00 0.  1.
        -11    1    4    4    0    0  0.14015211752E-01 -0.28592251849E-01  0.19208247993E-01  0.37190871705E-01  0.51100000000E-03 0. -1.
         11    1    4    4    0    0  0.93340172441E-02 -0.67073826601E-01  0.61031954234E-01  0.91165687907E-01  0.51100000000E-03 0.  1.
</event>
<event>
 8    1  0.1111182E+005  0.1043930E+01  0.7957747E-01            NaN
         13   -1    0    0    0    0  0.00000000000E+00  0.00000000000E+00  0.74505805969E-08  0.10566000000E+00  0.10566000000E+00 0.  1.
     999900   -1    0    0    0    0 -0.00000000000E+00 -0.00000000000E+00 -0.74505805969E-08  0.93827000000E+00  0.93827000000E+00 0. -1.
     999902    2    1    2    0    0  0.46227720461E-02 -0.38867203538E-02 -0.22862337008E-01  0.10202833709E+01  0.10200093106E+01 0.  0.
     999903    2    3    3    0    0  0.40283699913E-01  0.32394514600E-01 -0.12116821802E+00  0.13334928309E+00  0.20690896255E-01 0.  0.
         14    1    1    2    0    0 -0.46227720461E-02  0.38867203538E-02  0.22862337008E-01  0.23646629146E-01  0.00000000000E+00 0.  1.
     999901    1    3    3    0    0 -0.35660927867E-01 -0.36281234954E-01  0.98305881016E-01  0.88693408776E+00  0.88000000000E+00 0.  1.
        -11    1    4    4    0    0  0.85385596538E-02  0.13891412846E-01 -0.58194592949E-01  0.60437985749E-01  0.51100000000E-03 0. -1.
         11    1    4    4    0    0  0.31745140259E-01  0.18503101754E-01 -0.62973625075E-01  0.72911297346E-01  0.51100000000E-03 0.  1.
</event>
<event>
 8    1  0.1111182E+005  0.1043930E+01  0.7957747E-01            NaN
         13   -1    0    0    0    0  0.00000000000E+00  0.00000000000E+00  0.74505805969E-08  0.10566000000E+00  0.10566000000E+00 0.  1.
     999900   -1    0    0    0    0 -0.00000000000E+00 -0.00000000000E+00 -0.74505805969E-08  0.93827000000E+00  0.93827000000E+00 0.  1.
     999902    2    1    2    0    0 -0.13016661752E-01  0.46573374565E-02 -0.33482610881E-01  0.10077055675E+01  0.10070542693E+01 0.  0.
     999903    2    3    3    0    0  0.89669867972E-01  0.72886071041E-01 -0.20064336979E-01  0.11901004401E+00  0.20192780470E-01 0.  0.
         14    1    1    2    0    0  0.13016661752E-01 -0.46573374565E-02  0.33482610881E-01  0.36224432456E-01  0.00000000000E+00 0.  1.
     999901    1    3    3    0    0 -0.10268652972E+00 -0.68228733585E-01 -0.13418273903E-01  0.88869552353E+00  0.88000000000E+00 0.  1.
        -11    1    4    4    0    0  0.29482456855E-01  0.13958026690E-01 -0.96323665603E-03  0.32637872436E-01  0.51100000000E-03 0. -1.
         11    1    4    4    0    0  0.60187411117E-01  0.58928044351E-01 -0.19101100323E-01  0.86372171575E-01  0.51100000000E-03 0.  1.
</event>
<event>
 8    1  0.1111182E+005  0.1043930E+01  0.7957747E-01            NaN
         13   -1    0    0    0    0  0.00000000000E+00  0.00000000000E+00  0.74505805969E-08  0.10566000000E+00  0.10566000000E+00 0.  1.
     999900   -1    0    0    0    0 -0.00000000000E+00 -0.00000000000E+00 -0.74505805969E-08  0.93827000000E+00  0.93827000000E+00 0.  1.
     999902    2    1    2    0    0 -0.70021803833E-02 -0.22136613394E-01 -0.34161355176E-03  0.10207098173E+01  0.10204456646E+01 0.  0.
     999903    2    3    3    0    0 -0.23485073332E-01 -0.12255717275E+00 -0.44759964489E-01  0.13373238561E+00  0.17580878246E-01 0.  0.
         14    1    1    2    0    0  0.70021803833E-02  0.22136613394E-01  0.34161355176E-03  0.23220182654E-01  0.00000000000E+00 0. -1.
     999901    1    3    3    0    0  0.16482892949E-01  0.10042055935E+00  0.44418350937E-01  0.88697743173E+00  0.88000000000E+00 0. -1.
        -11    1    4    4    0    0 -0.17534709063E-01 -0.47466433851E-01 -0.15551890474E-01  0.52940067839E-01  0.51100000000E-03 0.  1.
         11    1    4    4    0    0 -0.59503642687E-02 -0.75090738896E-01 -0.29208074015E-01  0.80792317776E-01  0.51100000000E-03 0. -1.
</event>
<event>
 8    1  0.1111182E+005  0.1043930E+01  0.7957747E-01            NaN
         13   -1    0    0    0    0  0.00000000000E+00  0.00000000000E+00  0.74505805969E-08  0.10566000000E+00  0.10566000000E+00 0. -1.
     999900   -1    0    0    0    0 -0.00000000000E+00 -0.00000000000E+00 -0.74505805969E-08  0.93827000000E+00  0.93827000000E+00 0. -1.
     999902    2    1    2    0    0 -0.20274174903E-01 -0.11089361013E-01  0.39805983370E-02  0.10204808794E+01  0.10202114310E+01 0.  0.
     999903    2    3    3    0    0 -0.37934697051E-01 -0.12569041161E+00  0.47705082127E-02  0.13287403013E+00  0.19890432936E-01 0.  0.
         14    1    1    2    0    0  0.20274174903E-01  0.11089361013E-01 -0.39805983370E-02  0.23449120640E-01  0.00000000000E+00 0.  1.
     999901    1    3    3    0    0  0.17660522148E-01  0.11460105060E+00 -0.78990987576E-03  0.88760684923E+00  0.88000000000E+00 0. -1.
        -11    1    4    4    0    0  0.20202750003E-02 -0.76721647486E-02 -0.16100674352E-02  0.81115387660E-02  0.51100000000E-03 0.  1.
         11    1    4    4    0    0 -0.39954972051E-01 -0.11801824687E+00  0.63805756479E-02  0.12476249136E+00  0.51100000000E-03 0. -1.
</event>
<event>
 8    1  0.1111182E+005  0.1043930E+01  0.7957747E-01            NaN
         13   -1    0    0    0    0  0.00000000000E+00  0.00000000000E+00  0.74505805969E-08  0.10566000000E+00  0.10566000000E+00 0. -1.
     999900   -1    0    0    0    0 -0.00000000000E+00 -0.00000000000E+00 -0.74505805969E-08  0.93827000000E+00  0.93827000000E+00 0.  1.
     999902    2    1    2    0    0  0.13772707195E-01 -0.17341533503E-01  0.13146911471E-01  0.10181762133E+01  0.10178504526E+01 0.  0.
     999903    2    3    3    0    0 -0.45298243782E-01 -0.31106583211E-01 -0.11281564428E+00  0.12714006405E+00  0.20437120193E-01 0.  0.
         14    1    1    2    0    0 -0.13772707195E-01  0.17341533503E-01 -0.13146911471E-01  0.25753786691E-01  0.00000000000E+00 0.  1.
     999901    1    3    3    0    0  0.59070950977E-01  0.13765049708E-01  0.12596255575E+00  0.89103614926E+00  0.88000000000E+00 0. -1.
        -11    1    4    4    0    0 -0.18645218588E-01 -0.81930520923E-02 -0.62689576980E-01  0.65916723688E-01  0.51100000000E-03 0. -1.
         11    1    4    4    0    0 -0.26653025195E-01 -0.22913531119E-01 -0.50126067302E-01  0.61223340357E-01  0.51100000000E-03 0.  1.
</event>
<event>
 8    1  0.1111182E+005  0.1043930E+01  0.7957747E-01            NaN
         13   -1    0    0    0    0  0.00000000000E+00  0.00000000000E+00  0.74505805969E-08  0.10566000000E+00  0.10566000000E+00 0. -1.
     999900   -1    0    0    0    0 -0.00000000000E+00 -0.00000000000E+00 -0.74505805969E-08  0.93827000000E+00  0.93827000000E+00 0. -1.
     999902    2    1    2    0    0 -0.20935571406E-01  0.40158389307E-02 -0.12020095457E-01  0.10194574070E+01  0.10191636262E+01 0.  0.
     999903    2    3    3    0    0  0.91328716206E-01  0.45133740772E-01  0.73385265243E-01  0.12727579560E+00  0.20874434843E-01 0.  0.
         14    1    1    2    0    0  0.20935571406E-01 -0.40158389307E-02  0.12020095457E-01  0.24472592981E-01  0.00000000000E+00 0. -1.
     999901    1    3    3    0    0 -0.11226428761E+00 -0.41117901841E-01 -0.85405360700E-01  0.89218161142E+00  0.88000000000E+00 0. -1.
        -11    1    4    4    0    0  0.73701081439E-01  0.44777371953E-01  0.63088309398E-01  0.10685157157E+00  0.51100000000E-03 0. -1.
         11    1    4    4    0    0  0.17627634766E-01  0.35636881850E-03  0.10296955845E-01  0.20424224021E-01  0.51100000000E-03 0.  1.
</event>
<event>
 8    1  0.1111182E+005  0.1043930E+01  0.7957747E-01            NaN
         13   -1    0    0    0    0  0.00000000000E+00  0.00000000000E+00  0.74505805969E-08  0.10566000000E+00  0.10566000000E+00 0.  1.
     999900   -1    0    0    0    0 -0.00000000000E+00 -0.00000000000E+00 -0.74505805969E-08  0.93827000000E+00  0.93827000000E+00 0. -1.
     999902    2    1    2    0    0  0.83685469731E-02 -0.18157910460E-01  0.14033040584E-01  0.10195032008E+01  0.10192105317E+01 0.  0.
     999903    2    3    3    0    0 -0.23121191490E-01 -0.27158309803E-01 -0.12170350723E+00  0.12849421026E+00  0.20660472207E-01 0.  0.
         14    1    1    2    0    0 -0.83685469731E-02  0.18157910460E-01 -0.14033040584E-01  0.24426799191E-01  0.00000000000E+00 0. -1.
     999901    1    3    3    0    0  0.31489738463E-01  0.90003993424E-02  0.13573654782E+00  0.89100899054E+00  0.88000000000E+00 0.  1.
        -11    1    4    4    0    0 -0.23016520237E-01 -0.17044456336E-01 -0.10604844183E+00  0.10984901835E+00  0.51100000000E-03 0. -1.
         11    1    4    4    0    0 -0.10467125289E-03 -0.10113853466E-01 -0.15655065400E-01  0.18645191919E-01  0.51100000000E-03 0.  1.
</event>
<event>
 8    1  0.1111182E+005  0.1043930E+01  0.7957747E-01            NaN
         13   -1    0    0    0    0  0.00000000000E+00  0.00000000000E+00  0.74505805969E-08  0.10566000000E+00  0.10566000000E+00 0.  1.
     999900   -1    0    0    0    0 -0.00000000000E+00 -0.00000000000E+00 -0.74505805969E-08  0.93827000000E+00  0.93827000000E+00 0.  1.
     999902    2    1    2    0    0 -0.12422767780E-01  0.19875613512E-01  0.51933690407E-02  0.10199229957E+01  0.10196404175E+01 0.  0.
     999903    2    3    3    0    0  0.21929696541E-01 -0.42136529609E-01 -0.11779830884E+00  0.12854622325E+00  0.19781082590E-01 0.  0.
         14    1    1    2    0    0  0.12422767780E-01 -0.19875613512E-01 -0.51933690407E-02  0.24007004265E-01  0.00000000000E+00 0. -1.
     999901    1    3    3    0    0 -0.34352464321E-01  0.62012143121E-01  0.12299167788E+00  0.89137677249E+00  0.88000000000E+00 0. -1.
        -11    1    4    4    0    0  0.42442432470E-02 -0.12760535025E-01 -0.58665505367E-01  0.60189263958E-01  0.51100000000E-03 0. -1.
         11    1    4    4    0    0  0.17685453294E-01 -0.29375994585E-01 -0.59132803472E-01  0.68356959291E-01  0.51100000000E-03 0.  1.
</event>
<event>
 8    1  0.1111182E+005  0.1043930E+01  0.7957747E-01            NaN
         13   -1    0    0    0    0  0.00000000000E+00  0.00000000000E+00  0.74505805969E-08  0.10566000000E+00  0.10566000000E+00 0.  1.
     999900   -1    0    0    0    0 -0.00000000000E+00 -0.00000000000E+00 -0.74505805969E-08  0.93827000000E+00  0.93827000000E+00 0.  1.
     999902    2    1    2    0    0  0.22231990876E-01 -0.25368323985E-02  0.75446261553E-02  0.10203160566E+01  0.10200427624E+01 0.  0.
     999903    2    3    3    0    0  0.12774365941E-01 -0.84474691894E-01 -0.96378415297E-01  0.13037040773E+00  0.20211043501E-01 0.  0.
         14    1    1    2    0    0 -0.22231990876E-01  0.25368323985E-02 -0.75446261553E-02  0.23613943354E-01  0.00000000000E+00 0. -1.
     999901    1    3    3    0    0  0.94576249345E-02  0.81937859496E-01  0.10392304145E+00  0.88994564892E+00  0.88000000000E+00 0. -1.
        -11    1    4    4    0    0  0.95675562211E-02 -0.28239800874E-01 -0.21942940415E-01  0.37024022478E-01  0.51100000000E-03 0.  1.
         11    1    4    4    0    0  0.32068097200E-02 -0.56234891021E-01 -0.74435474882E-01  0.93346385247E-01  0.51100000000E-03 0. -1.
</event>
<event>
 8    1  0.1111182E+005  0.1043930E+01  0.7957747E-01            NaN
         13   -1    0    0    0    0  0.00000000000E+00  0.00000000000E+00  0.74505805969E-08  0.10566000000E+00  0.10566000000E+00 0. -1.
     999900   -1    0    0    0    0 -0.00000000000E+00 -0.00000000000E+00 -0.74505805969E-08  0.93827000000E+00  0.93827000000E+00 0.  1.
     999902    2    1    2    0    0  0.28045039207E-02  0.20824165852E-01 -0.99411822818E-02  0.10206848235E+01  0.10204200952E+01 0.  0.
     999903    2    3    3    0    0 -0.66782947362E-01 -0.96174470705E-01 -0.50893219440E-01  0.12927685647E+00  0.20319816904E-01 0.  0.
         14    1    1    2    0    0 -0.28045039207E-02 -0.20824165852E-01  0.99411822818E-02  0.23245176507E-01  0.00000000000E+00 0. -1.
     999901    1    3    3    0    0  0.69587451283E-01  0.11699863656E+00  0.40952037158E-01  0.89140796703E+00  0.88000000000E+00 0. -1.
        -11    1    4    4    0    0 -0.42671895203E-01 -0.52945571715E-01 -0.19824176680E-01  0.70833490006E-01  0.51100000000E-03 0.  1.
         11    1    4    4    0    0 -0.24111052159E-01 -0.43228898990E-01 -0.31069042760E-01  0.58443366460E-01  0.51100000000E-03 0. -1.
</event>
<event>
 8    1  0.1111182E+005  0.1043930E+01  0.7957747E-01            NaN
         13   -1    0    0    0    0  0.00000000000E+00  0.00000000000E+00  0.74505805969E-08  0.10566000000E+00  0.10566000000E+00 0.  1.
     999900   -1    0    0    0    0 -0.00000000000E+00 -0.00000000000E+00 -0.74505805969E-08  0.93827000000E+00  0.93827000000E+00 0. -1.
     999902    2    1    2    0    0 -0.12140159806E-01 -0.79335653743E-02 -0.48551404938E-02  0.10286362977E+01  0.10285225985E+01 0.  0.
     999903    2    3    3    0    0  0.34246929814E-01  0.10425926046E+00  0.78422688527E-01  0.13640640076E+00  0.20340661228E-01 0.  0.
         14    1    1    2    0    0  0.12140159806E-01  0.79335653743E-02  0.48551404938E-02  0.15293702262E-01  0.00000000000E+00 0.  1.
     999901    1    3    3    0    0 -0.46387089619E-01 -0.11219282584E+00 -0.83277829021E-01  0.89222989698E+00  0.88000000000E+00 0.  1.
        -11    1    4    4    0    0  0.20376338334E-01  0.78427858153E-01  0.66200519065E-01  0.10463696261E+00  0.51100000000E-03 0. -1.
         11    1    4    4    0    0  0.13870591480E-01  0.25831402309E-01  0.12222169463E-01  0.31769438154E-01  0.51100000000E-03 0.  1.
</event>
<event>
 8    1  0.1111182E+005  0.1043930E+01  0.7957747E-01            NaN
         13   -1    0    0    0    0  0.00000000000E+00  0.00000000000E+00  0.74505805969E-08  0.10566000000E+00  0.10566000000E+00 0. -1.
     999900   -1    0    0    0    0 -0.00000000000E+00 -0.00000000000E+00 -0.74505805969E-08  0.93827000000E+00  0.93827000000E+00 0. -1.
     999902    2    1    2    0    0 -0.13637198129E-01  0.20380622003E-01  0.33254108450E-02  0.10191832571E+01  0.10188827755E+01 0.  0.
     999903    2    3    3    0    0  0.36825652422E-01  0.83888033948E-01  0.91609620384E-01  0.13105387898E+00  0.19734886184E-01 0.  0.
         14    1    1    2    0    0  0.13637198129E-01 -0.20380622003E-01 -0.33254108450E-02  0.24746742883E-01  0.00000000000E+00 0.  1.
     999901    1    3    3    0    0 -0.50462850551E-01 -0.63507411945E-01 -0.88284209539E-01  0.88812937814E+00  0.88000000000E+00 0. -1.
        -11    1    4    4    0    0  0.30639364055E-01  0.62918355569E-01  0.57695798301E-01  0.90700365819E-01  0.51100000000E-03 0.  1.
         11    1    4    4    0    0  0.61862883668E-02  0.20969678379E-01  0.33913822083E-01  0.40353513160E-01  0.51100000000E-03 0. -1.
</event>
<event>
 8    1  0.1111182E+005  0.1043930E+01  0.7957747E-01            NaN
         13   -1    0    0    0    0  0.00000000000E+00  0.00000000000E+00  0.74505805969E-08  0.10566000000E+00  0.10566000000E+00 0. -1.
     999900   -1    0    0    0    0 -0.00000000000E+00 -0.00000000000E+00 -0.74505805969E-08  0.93827000000E+00  0.93827000000E+00 0. -1.
     999902    2    1    2    0    0 -0.39629786976E-03  0.15104483676E-01 -0.19803072410E-01  0.10190208821E+01  0.10187163952E+01 0.  0.
     999903    2    3    3    0    0 -0.51862047230E-01 -0.83912641541E-01  0.76977605262E-01  0.12670949359E+00  0.19968492699E-01 0.  0.
         14    1    1    2    0    0  0.39629786976E-03 -0.15104483676E-01  0.19803072410E-01  0.24909117928E-01  0.00000000000E+00 0. -1.
     999901    1    3    3    0    0  0.51465749360E-01  0.99017125217E-01 -0.96780677671E-01  0.89231138848E+00  0.88000000000E+00 0. -1.
        -11    1    4    4    0    0 -0.31581310194E-01 -0.63924770905E-01  0.47224349961E-01  0.85522838114E-01  0.51100000000E-03 0.  1.
         11    1    4    4    0    0 -0.20280737036E-01 -0.19987870636E-01  0.29753255301E-01  0.41186655476E-01  0.51100000000E-03 0. -1.
</event>
<event>
 8    1  0.1111182E+005  0.1043930E+01  0.7957747E-01            NaN
         13   -1    0    0    0    0  0.00000000000E+00  0.00000000000E+00  0.74505805969E-08  0.10566000000E+00  0.10566000000E+00 0.  1.
     999900   -1    0    0    0    0 -0.00000000000E+00 -0.00000000000E+00 -0.74505805969E-08  0.93827000000E+00  0.93827000000E+00 0.  1.
     999902    2    1    2    0    0 -0.42966716828E-02 -0.22723898891E-01 -0.71936241352E-02  0.10197104790E+01  0.10194228150E+01 0.  0.
     999903    2    3    3    0    0  0.40145015677E-01 -0.12367503124E+00 -0.15871474942E-01  0.13278235352E+00  0.21728185711E-01 0.  0.
         14    1    1    2    0    0  0.42966716828E-02  0.22723898891E-01  0.71936241352E-02  0.24219520981E-01  0.00000000000E+00 0. -1.
     999901    1    3    3    0    0 -0.44441687360E-01  0.10095113235E+00  0.86778508065E-02  0.88692812549E+00  0.88000000000E+00 0. -1.
        -11    1    4    4    0    0  0.13627627610E-02 -0.26119882123E-01  0.22119955123E-02  0.26253750391E-01  0.51100000000E-03 0. -1.
         11    1    4    4    0    0  0.38782252916E-01 -0.97555149120E-01 -0.18083470454E-01  0.10652860313E+00  0.51100000000E-03 0.  1.
</event>
<event>
 8    1  0.1111182E+005  0.1043930E+01  0.7957747E-01            NaN
         13   -1    0    0    0    0  0.00000000000E+00  0.00000000000E+00  0.74505805969E-08  0.10566000000E+00  0.10566000000E+00 0. -1.
     999900   -1    0    0    0    0 -0.00000000000E+00 -0.00000000000E+00 -0.74505805969E-08  0.93827000000E+00  0.93827000000E+00 0. -1.
     999902    2    1    2    0    0 -0.14409614211E-01 -0.16833877623E-01  0.75398948293E-02  0.10205234532E+01  0.10202549937E+01 0.  0.
     999903    2    3    3    0    0  0.17896671903E-01 -0.16840555231E-01 -0.12602692778E+00  0.12985864969E+00  0.19405854994E-01 0.  0.
         14    1    1    2    0    0  0.14409614211E-01  0.16833877623E-01 -0.75398948293E-02  0.23406546767E-01  0.00000000000E+00 0.  1.
     999901    1    3    3    0    0 -0.32306286114E-01  0.66776082389E-05  0.13356682261E+00  0.89066480354E+00  0.88000000000E+00 0.  1.
        -11    1    4    4    0    0  0.16054438196E-01 -0.24531297640E-02 -0.54346556673E-01  0.56723647403E-01  0.51100000000E-03 0.  1.
         11    1    4    4    0    0  0.18422337071E-02 -0.14387425467E-01 -0.71680371107E-01  0.73135002288E-01  0.51100000000E-03 0. -1.
</event>
<event>
 8    1  0.1111182E+005  0.1043930E+01  0.7957747E-01            NaN
         13   -1    0    0    0    0  0.00000000000E+00  0.00000000000E+00  0.74505805969E-08  0.10566000000E+00  0.10566000000E+00 0.  1.
     999900   -1    0    0    0    0 -0.00000000000E+00 -0.00000000000E+00 -0.74505805969E-08  0.93827000000E+00  0.93827000000E+00 0. -1.
     999902    2    1    2    0    0 -0.28510601588E-02 -0.22324160757E-01  0.77098104208E-02  0.10201405512E+01  0.10198631312E+01 0.  0.
     999903    2    3    3    0    0  0.71210193646E-01  0.28660219660E-01  0.10346773171E+00  0.13039111689E+00  0.20099054431E-01 0.  0.
         14    1    1    2    0    0  0.28510601588E-02  0.22324160757E-01 -0.77098104208E-02  0.23789448801E-01  0.00000000000E+00 0. -1.
     999901    1    3    3    0    0 -0.74061253805E-01 -0.50984380417E-01 -0.95757921288E-01  0.88974943431E+00  0.88000000000E+00 0. -1.
        -11    1    4    4    0    0  0.18412807788E-01  0.17447681153E-01  0.33237375093E-01  0.41814319226E-01  0.51100000000E-03 0.  1.
         11    1    4    4    0    0  0.52797385858E-01  0.11212538507E-01  0.70230356615E-01  0.88576797665E-01  0.51100000000E-03 0. -1.
</event>
<event>
 8    1  0.1111182E+005  0.1043930E+01  0.7957747E-01            NaN
         13   -1    0    0    0    0  0.00000000000E+00  0.00000000000E+00  0.74505805969E-08  0.10566000000E+00  0.10566000000E+00 0.  1.
     999900   -1    0    0    0    0 -0.00000000000E+00 -0.00000000000E+00 -0.74505805969E-08  0.93827000000E+00  0.93827000000E+00 0.  1.
     999902    2    1    2    0    0  0.16743099313E-01 -0.91966439958E-02 -0.17588571715E-01  0.10179633389E+01  0.10176321004E+01 0.  0.
     999903    2    3    3    0    0 -0.61961089352E-01 -0.79522317234E-01  0.74425502386E-01  0.12689283691E+00  0.19991526236E-01 0.  0.
         14    1    1    2    0    0 -0.16743099313E-01  0.91966439958E-02  0.17588571715E-01  0.25966661132E-01  0.00000000000E+00 0.  1.
     999901    1    3    3    0    0  0.78704188665E-01  0.70325673238E-01 -0.92014074101E-01  0.89107050196E+00  0.88000000000E+00 0.  1.
        -11    1    4    4    0    0 -0.25241030628E-01 -0.48543094029E-01  0.38586854853E-01  0.66953327726E-01  0.51100000000E-03 0.  1.
         11    1    4    4    0    0 -0.36720058724E-01 -0.30979223205E-01  0.35838647533E-01  0.59939509183E-01  0.51100000000E-03 0. -1.
</event>
<event>
 8    1  0.1111182E+005  0.1043930E+01  0.7957747E-01            NaN
         13   -1    0    0    0    0  0.00000000000E+00  0.00000000000E+00  0.74505805969E-08  0.10566000000E+00  0.10566000000E+00 0. -1.
     999900   -1    0    0    0    0 -0.00000000000E+00 -0.00000000000E+00 -0.74505805969E-08  0.93827000000E+00  0.93827000000E+00 0. -1.
     999902    2    1    2    0    0 -0.18359621886E-01 -0.12644679982E-01  0.79964891161E-02  0.10202465145E+01  0.10199715892E+01 0.  0.
     999903    2    3    3    0    0  0.18218148611E-01 -0.10234580856E+00  0.79553582902E-01  0.13204347271E+00  0.17324568181E-01 0.  0.
         14    1    1    2    0    0  0.18359621886E-01  0.12644679982E-01 -0.79964891161E-02  0.23683485509E-01  0.00000000000E+00 0. -1.
     999901    1    3    3    0    0 -0.36577770497E-01  0.89701128582E-01 -0.71557093786E-01  0.88820304178E+00  0.88000000000E+00 0. -1.
        -11    1    4    4    0    0  0.16172206543E-01 -0.77255906633E-01  0.51002463467E-01  0.93976208557E-01  0.51100000000E-03 0.  1.
         11    1    4    4    0    0  0.20459420680E-02 -0.25089901931E-01  0.28551119435E-01  0.38067264150E-01  0.51100000000E-03 0. -1.
</event>
<event>
 8    1  0.1111182E+005  0.1043930E+01  0.7957747E-01            NaN
         13   -1    0    0    0    0  0.00000000000E+00  0.00000000000E+00  0.74505805969E-08  0.10566000000E+00  0.10566000000E+00 0.  1.
     999900   -1    0    0    0    0 -0.00000000000E+00 -0.00000000000E+00 -0.74505805969E-08  0.93827000000E+00  0.93827000000E+00 0.  1.
     999902    2    1    2    0    0  0.28223601071E-02  0.16881138745E-01  0.17992925175E-01  0.10190968786E+01  0.10187942697E+01 0.  0.
     999903    2    3    3    0    0 -0.93629947816E-02 -0.12557803170E+00  0.44485672104E-02  0.12745426648E+00  0.19164878791E-01 0.  0.
         14    1    1    2    0    0 -0.28223601071E-02 -0.16881138745E-01 -0.17992925175E-01  0.24833121396E-01  0.00000000000E+00 0. -1.
     999901    1    3    3    0    0  0.12185354889E-01  0.14245917044E+00  0.13544357964E-01  0.89164261212E+00  0.88000000000E+00 0.  1.
        -11    1    4    4    0    0 -0.27238689818E-02 -0.17780646473E-01 -0.59463407805E-02  0.18952333389E-01  0.51100000000E-03 0.  1.
         11    1    4    4    0    0 -0.66391257998E-02 -0.10779738522E+00  0.10394907991E-01  0.10850193309E+00  0.51100000000E-03 0. -1.
</event>
<event>
 8    1  0.1111182E+005  0.1043930E+01  0.7957747E-01            NaN
         13   -1    0    0    0    0  0.00000000000E+00  0.00000000000E+00  0.74505805969E-08  0.10566000000E+00  0.10566000000E+00 0.  1.
     999900   -1    0    0    0    0 -0.00000000000E+00 -0.00000000000E+00 -0.74505805969E-08  0.93827000000E+00  0.93827000000E+00 0. -1.
     999902    2    1    2    0    0  0.21289504024E-01 -0.63599305644E-03 -0.11116407929E-01  0.10199045553E+01  0.10196215376E+01 0.  0.
     999903    2    3    3    0    0  0.11855895995E+00  0.45145453909E-01  0.32196625487E-01  0.13230481057E+00  0.19328766495E-01 0.  0.
         14    1    1    2    0    0 -0.21289504024E-01  0.63599305644E-03  0.11116407929E-01  0.24025444720E-01  0.00000000000E+00 0. -1.
     999901    1    3    3    0    0 -0.97269455927E-01 -0.45781446966E-01 -0.43313033416E-01  0.88759974471E+00  0.88000000000E+00 0. -1.
        -11    1    4    4    0    0  0.22664384220E-01  0.16906095068E-01  0.51721473789E-02  0.28748958103E-01  0.51100000000E-03 0.  1.
         11    1    4    4    0    0  0.95894575731E-01  0.28239358842E-01  0.27024478108E-01  0.10355585247E+00  0.51100000000E-03 0. -1.
</event>
<event>
 7    1  0.1111182E+005  0.1043930E+01  0.7957747E-01            NaN
         13   -1    0    0    0    0  0.00000000000E+00  0.00000000000E+00  0.74505805969E-08  0.10566000000E+00  0.10566000000E+00 0. -1.
     999900   -1    0    0    0    0 -0.00000000000E+00 -0.00000000000E+00 -0.74505805969E-08  0.93827000000E+00  0.93827000000E+00 0. -1.
     999902    2    1    2    0    0 -0.10993756372E-01  0.17701309828E-01  0.98377662772E-02  0.10208869817E+01  0.10206268900E+01 0.  0.
         14    1    1    2    0    0  0.10993756372E-01 -0.17701309828E-01 -0.98377662772E-02  0.23043018338E-01  0.00000000000E+00 0.  1.
     999901    1    3    3    0    0  0.35137924234E-01  0.76424946345E-01 -0.90880972010E-01  0.88867024099E+00  0.88000000000E+00 0. -1.
        -11    1    3    3    0    0 -0.51849162353E-01 -0.57744744428E-01  0.83300445856E-01  0.11385085220E+00  0.51100000000E-03 0. -1.
         11    1    3    3    0    0  0.57174817476E-02 -0.97889208913E-03  0.17418292431E-01  0.18365888475E-01  0.51100000000E-03 0.  1.
</event>
<event>
 8    1  0.1111182E+005  0.1043930E+01  0.7957747E-01            NaN
         13   -1    0    0    0    0  0.00000000000E+00  0.00000000000E+00  0.74505805969E-08  0.10566000000E+00  0.10566000000E+00 0. -1.
     999900   -1    0    0    0    0 -0.00000000000E+00 -0.00000000000E+00 -0.74505805969E-08  0.93827000000E+00  0.93827000000E+00 0.  1.
     999902    2    1    2    0    0  0.34195417954E-02  0.21333152728E-01 -0.80706060347E-02  0.10208663630E+01  0.10206058003E+01 0.  0.
     999903    2    3    3    0    0 -0.32580833695E-01 -0.99270278878E-01 -0.74042075442E-01  0.12946664930E+00  0.19060045968E-01 0.  0.
         14    1    1    2    0    0 -0.34195417954E-02 -0.21333152728E-01  0.80706060347E-02  0.23063637033E-01  0.00000000000E+00 0. -1.
     999901    1    3    3    0    0  0.36000375490E-01  0.12060343161E+00  0.65971469407E-01  0.89139971367E+00  0.88000000000E+00 0. -1.
        -11    1    4    4    0    0 -0.19157292613E-01 -0.54751828443E-01 -0.29518629208E-01  0.65087442486E-01  0.51100000000E-03 0.  1.
         11    1    4    4    0    0 -0.13423541081E-01 -0.44518450436E-01 -0.44523446234E-01  0.64379206813E-01  0.51100000000E-03 0. -1.
</event>
<event>
 8    1  0.1342985E+005  0.1043930E+01  0.7957747E-01            NaN
         13   -1    0    0    0    0  0.00000000000E+00  0.00000000000E+00  0.74505805969E-08  0.10566000000E+00  0.10566000000E+00 0.  1.
     999900   -1    0    0    0    0 -0.00000000000E+00 -0.00000000000E+00 -0.74505805969E-08  0.93827000000E+00  0.93827000000E+00 0. -1.
     999902    2    1    2    0    0 -0.29332919307E-01  0.12466645374E-01 -0.14656668096E-01  0.10088493027E+01  0.10082391880E+01 0.  0.
     999903    2    3    3    0    0  0.57608613583E-02  0.11949272813E+00 -0.97967976423E-02  0.12165722985E+00  0.19819301979E-01 0.  0.
         14    1    1    2    0    0  0.29332919307E-01 -0.12466645374E-01  0.14656668096E-01  0.35080697280E-01  0.00000000000E+00 0.  1.
     999901    1    3    3    0    0 -0.35093780666E-01 -0.10702608275E+00 -0.48598704534E-02  0.88719207287E+00  0.88000000000E+00 0. -1.
        -11    1    4    4    0    0 -0.36157606776E-03  0.49498493339E-01  0.53156630559E-02  0.49787036212E-01  0.51100000000E-03 0. -1.
         11    1    4    4    0    0  0.61224374261E-02  0.69994234787E-01 -0.15112460698E-01  0.71870193633E-01  0.51100000000E-03 0.  1.
</event>
<event>
 8    1  0.1111182E+005  0.1043930E+01  0.7957747E-01            NaN
         13   -1    0    0    0    0  0.00000000000E+00  0.00000000000E+00  0.74505805969E-08  0.10566000000E+00  0.10566000000E+00 0. -1.
     999900   -1    0    0    0    0 -0.00000000000E+00 -0.00000000000E+00 -0.74505805969E-08  0.93827000000E+00  0.93827000000E+00 0.  1.
     999902    2    1    2    0    0 -0.12749163859E-01 -0.18940582723E-01  0.57720413239E-02  0.10203799827E+01  0.10201081834E+01 0.  0.
     999903    2    3    3    0    0 -0.10479294559E-01 -0.11968370993E+00  0.53743334289E-01  0.13333118195E+00  0.21327261025E-01 0.  0.
         14    1    1    2    0    0  0.12749163859E-01  0.18940582723E-01 -0.57720413239E-02  0.23550017283E-01  0.00000000000E+00 0.  1.
     999901    1    3    3    0    0 -0.22698692993E-02  0.10074312721E+00 -0.47971292966E-01  0.88704880076E+00  0.88000000000E+00 0. -1.
        -11    1    4    4    0    0  0.19972328239E-02 -0.41375214570E-01  0.27830412199E-01  0.49906816006E-01  0.51100000000E-03 0.  1.
         11    1    4    4    0    0 -0.12476527383E-01 -0.78308495363E-01  0.25912922091E-01  0.83424365948E-01  0.51100000000E-03 0. -1.
</event>
<event>
 8    1  0.1111182E+005  0.1043930E+01  0.7957747E-01            NaN
         13   -1    0    0    0    0  0.00000000000E+00  0.00000000000E+00  0.74505805969E-08  0.10566000000E+00  0.10566000000E+00 0. -1.
     999900   -1    0    0    0    0 -0.00000000000E+00 -0.00000000000E+00 -0.74505805969E-08  0.93827000000E+00  0.93827000000E+00 0. -1.
     999902    2    1    2    0    0  0.75025375017E-02 -0.13107773098E-01  0.21598944410E-01  0.10175744278E+01  0.10172330608E+01 0.  0.
     999903    2    3    3    0    0  0.28351443077E-01  0.94484041985E-01 -0.74938997691E-01  0.12553729307E+00  0.20315512834E-01 0.  0.
         14    1    1    2    0    0 -0.75025375017E-02  0.13107773098E-01 -0.21598944410E-01  0.26355572166E-01  0.00000000000E+00 0. -1.
     999901    1    3    3    0    0 -0.20848905575E-01 -0.10759181508E+00  0.96537942101E-01  0.89203713477E+00  0.88000000000E+00 0. -1.
        -11    1    4    4    0    0  0.14451661451E-01  0.29410701119E-01 -0.15256823720E-01  0.36150679800E-01  0.51100000000E-03 0.  1.
         11    1    4    4    0    0  0.13899781626E-01  0.65073340866E-01 -0.59682173970E-01  0.89386613268E-01  0.51100000000E-03 0. -1.
</event>
<event>
 8    1  0.1111182E+005  0.1043930E+01  0.7957747E-01            NaN
         13   -1    0    0    0    0  0.00000000000E+00  0.00000000000E+00  0.74505805969E-08  0.10566000000E+00  0.10566000000E+00 0.  1.
     999900   -1    0    0    0    0 -0.00000000000E+00 -0.00000000000E+00 -0.74505805969E-08  0.93827000000E+00  0.93827000000E+00 0.  1.
     999902    2    1    2    0    0 -0.63331776867E-02 -0.18527919180E-01  0.13022528031E-01  0.10204144910E+01  0.10201434969E+01 0.  0.
     999903    2    3    3    0    0  0.53169813306E-01 -0.13535740034E-01 -0.11513589931E+00  0.12912884075E+00  0.20192496082E-01 0.  0.
         14    1    1    2    0    0  0.63331776867E-02  0.18527919180E-01 -0.13022528031E-01  0.23515509033E-01  0.00000000000E+00 0. -1.
     999901    1    3    3    0    0 -0.59502990993E-01 -0.49921791464E-02  0.12815842734E+00  0.89128565022E+00  0.88000000000E+00 0. -1.
        -11    1    4    4    0    0  0.53875472436E-01 -0.10104386342E-01 -0.10983517088E+00  0.12275459681E+00  0.51100000000E-03 0.  1.
         11    1    4    4    0    0 -0.70565912989E-03 -0.34313536918E-02 -0.53007284250E-02  0.63742439396E-02  0.51100000000E-03 0. -1.
</event>
<event>
 8    1  0.1356759E+005  0.1043930E+01  0.7957747E-01            NaN
         13   -1    0    0    0    0  0.00000000000E+00  0.00000000000E+00  0.74505805969E-08  0.10566000000E+00  0.10566000000E+00 0. -1.
     999900   -1    0    0    0    0 -0.00000000000E+00 -0.00000000000E+00 -0.74505805969E-08  0.93827000000E+00  0.93827000000E+00 0.  1.
     999902    2    1    2    0    0  0.23137715086E-01 -0.14905009700E-01 -0.14322217922E-01  0.10129035742E+01  0.10124282747E+01 0.  0.
     999903    2    3    3    0    0 -0.43487392852E-02  0.36673923809E-01 -0.11806390019E+00  0.12488430175E+00  0.17120632958E-01 0.  0.
         14    1    1    2    0    0 -0.23137715086E-01  0.14905009700E-01  0.14322217922E-01  0.31026425830E-01  0.00000000000E+00 0. -1.
     999901    1    3    3    0    0  0.27486454371E-01 -0.51578933510E-01  0.10374168227E+00  0.88801927242E+00  0.88000000000E+00 0. -1.
        -11    1    4    4    0    0  0.62459553192E-02  0.19693657687E-01 -0.58077907289E-01  0.61645409780E-01  0.51100000000E-03 0. -1.
         11    1    4    4    0    0 -0.10594694604E-01  0.16980266122E-01 -0.59985992905E-01  0.63238891966E-01  0.51100000000E-03 0.  1.
</event>
<event>
 8    1  0.1140467E+005  0.1043930E+01  0.7957747E-01            NaN
         13   -1    0    0    0    0  0.00000000000E+00  0.00000000000E+00  0.74505805969E-08  0.10566000000E+00  0.10566000000E+00 0. -1.
     999900   -1    0    0    0    0 -0.00000000000E+00 -0.00000000000E+00 -0.74505805969E-08  0.93827000000E+00  0.93827000000E+00 0. -1.
     999902    2    1    2    0    0  0.11075951154E-01  0.19700840371E-01  0.25292468616E-01  0.10100108495E+01  0.10094411361E+01 0.  0.
     999903    2    3    3    0    0 -0.39259078727E-02  0.58745675455E-03  0.12262299815E+00  0.12431134669E+00  0.20028813832E-01 0.  0.
         14    1    1    2    0    0 -0.11075951154E-01 -0.19700840371E-01 -0.25292468616E-01  0.33919150550E-01  0.00000000000E+00 0.  1.
     999901    1    3    3    0    0  0.15001859027E-01  0.19113383617E-01 -0.97330529531E-01  0.88569950276E+00  0.88000000000E+00 0. -1.
        -11    1    4    4    0    0  0.78081043641E-02 -0.10186290463E-02  0.65329080359E-01  0.65803905359E-01  0.51100000000E-03 0. -1.
         11    1    4    4    0    0 -0.11734012237E-01  0.16060858009E-02  0.57293917789E-01  0.58507441333E-01  0.51100000000E-03 0.  1.
</event>
<event>
 8    1  0.1111182E+005  0.1043930E+01  0.7957747E-01            NaN
         13   -1    0    0    0    0  0.00000000000E+00  0.00000000000E+00  0.74505805969E-08  0.10566000000E+00  0.10566000000E+00 0. -1.
     999900   -1    0    0    0    0 -0.00000000000E+00 -0.00000000000E+00 -0.74505805969E-08  0.93827000000E+00  0.93827000000E+00 0.  1.
     999902    2    1    2    0    0  0.54488852065E-02 -0.21226454257E-01  0.59948572819E-02  0.10212101623E+01  0.10209573961E+01 0.  0.
     999903    2    3    3    0    0 -0.12097133741E+00 -0.44295512410E-01  0.10154031971E-01  0.13186683555E+00  0.26260256276E-01 0.  0.
         14    1    1    2    0    0 -0.54488852065E-02  0.21226454257E-01 -0.59948572819E-02  0.22719837679E-01  0.00000000000E+00 0. -1.
     999901    1    3    3    0    0  0.12642022262E+00  0.23069058153E-01 -0.41591746894E-02  0.88934332677E+00  0.88000000000E+00 0. -1.
        -11    1    4    4    0    0 -0.60918155346E-01 -0.22836461323E-01  0.18274806945E-01  0.67577772280E-01  0.51100000000E-03 0. -1.
         11    1    4    4    0    0 -0.60053182064E-01 -0.21459051087E-01 -0.81207749739E-02  0.64289063275E-01  0.51100000000E-03 0.  1.
</event>
<event>
 8    1  0.1111182E+005  0.1043930E+01  0.7957747E-01            NaN
         13   -1    0    0    0    0  0.00000000000E+00  0.00000000000E+00  0.74505805969E-08  0.10566000000E+00  0.10566000000E+00 0.  1.
     999900   -1    0    0    0    0 -0.00000000000E+00 -0.00000000000E+00 -0.74505805969E-08  0.93827000000E+00  0.93827000000E+00 0. -1.
     999902    2    1    2    0    0 -0.31122374059E-02 -0.24208833068E-01  0.19644171401E-02  0.10194430125E+01  0.10191488818E+01 0.  0.
     999903    2    3    3    0    0  0.14439784967E-01 -0.66319565507E-01  0.11041994717E+00  0.13161195357E+00  0.22854965107E-01 0.  0.
         14    1    1    2    0    0  0.31122374059E-02  0.24208833068E-01 -0.19644171401E-02  0.24486987460E-01  0.00000000000E+00 0.  1.
     999901    1    3    3    0    0 -0.17552022373E-01  0.42110732439E-01 -0.10845553003E+00  0.88783105897E+00  0.88000000000E+00 0. -1.
        -11    1    4    4    0    0  0.52776179637E-02 -0.33443045998E-01  0.34342473071E-01  0.48228178015E-01  0.51100000000E-03 0. -1.
         11    1    4    4    0    0  0.91621670029E-02 -0.32876519509E-01  0.76077474101E-01  0.83383775555E-01  0.51100000000E-03 0.  1.
</event>
<event>
 8    1  0.1111182E+005  0.1043930E+01  0.7957747E-01            NaN
         13   -1    0    0    0    0  0.00000000000E+00  0.00000000000E+00  0.74505805969E-08  0.10566000000E+00  0.10566000000E+00 0.  1.
     999900   -1    0    0    0    0 -0.00000000000E+00 -0.00000000000E+00 -0.74505805969E-08  0.93827000000E+00  0.93827000000E+00 0. -1.
     999902    2    1    2    0    0 -0.15842871461E-01 -0.58106674903E-02  0.17938036477E-01  0.10193020974E+01  0.10190045300E+01 0.  0.
     999903    2    3    3    0    0  0.60968052979E-01  0.80377812291E-01 -0.74513574694E-01  0.12695929750E+00  0.19715329453E-01 0.  0.
         14    1    1    2    0    0  0.15842871461E-01  0.58106674903E-02 -0.17938036477E-01  0.24627902579E-01  0.00000000000E+00 0. -1.
     999901    1    3    3    0    0 -0.76810924440E-01 -0.86188479782E-01  0.92451611171E-01  0.89234279992E+00  0.88000000000E+00 0.  1.
        -11    1    4    4    0    0  0.36214140608E-01  0.49552411513E-01 -0.56831120664E-01  0.83647730774E-01  0.51100000000E-03 0.  1.
         11    1    4    4    0    0  0.24753912370E-01  0.30825400778E-01 -0.17682454030E-01  0.43311566727E-01  0.51100000000E-03 0. -1.
</event>
<event>
 8    1  0.1111182E+005  0.1043930E+01  0.7957747E-01            NaN
         13   -1    0    0    0    0  0.00000000000E+00  0.00000000000E+00  0.74505805969E-08  0.10566000000E+00  0.10566000000E+00 0. -1.
     999900   -1    0    0    0    0 -0.00000000000E+00 -0.00000000000E+00 -0.74505805969E-08  0.93827000000E+00  0.93827000000E+00 0. -1.
     999902    2    1    2    0    0  0.53047953457E-02  0.13251029224E-01 -0.17592993533E-01  0.10212751098E+01  0.10210238028E+01 0.  0.
     999903    2    3    3    0    0  0.12469487495E+00 -0.14228525979E-01  0.32913526074E-01  0.13135375057E+00  0.20475468289E-01 0.  0.
         14    1    1    2    0    0 -0.53047953457E-02 -0.13251029224E-01  0.17592993533E-01  0.22654890214E-01  0.00000000000E+00 0. -1.
     999901    1    3    3    0    0 -0.11939007960E+00  0.27479555203E-01 -0.50506519607E-01  0.88992135921E+00  0.88000000000E+00 0.  1.
        -11    1    4    4    0    0  0.11293058191E+00 -0.16799678399E-01  0.24835815752E-01  0.11684444527E+00  0.51100000000E-03 0.  1.
         11    1    4    4    0    0  0.11764293038E-01  0.25711524205E-02  0.80777103220E-02  0.14509305307E-01  0.51100000000E-03 0. -1.
</event>
<event>
 8    1  0.1111182E+005  0.1043930E+01  0.7957747E-01            NaN
         13   -1    0    0    0    0  0.00000000000E+00  0.00000000000E+00  0.74505805969E-08  0.10566000000E+00  0.10566000000E+00 0. -1.
     999900   -1    0    0    0    0 -0.00000000000E+00 -0.00000000000E+00 -0.74505805969E-08  0.93827000000E+00  0.93827000000E+00 0. -1.
     999902    2    1    2    0    0 -0.44856083559E-02  0.24902757271E-02  0.23036121545E-01  0.10203294693E+01  0.10200564890E+01 0.  0.
     999903    2    3    3    0    0  0.10823681860E+00 -0.57824150671E-01  0.40385179752E-01  0.13092227039E+00  0.21232918788E-01 0.  0.
         14    1    1    2    0    0  0.44856083559E-02 -0.24902757271E-02 -0.23036121545E-01  0.23600530743E-01  0.00000000000E+00 0.  1.
     999901    1    3    3    0    0 -0.11272242695E+00  0.60314426398E-01 -0.17349058207E-01  0.88940719886E+00  0.88000000000E+00 0.  1.
        -11    1    4    4    0    0  0.66873673537E-01 -0.37172543287E-01  0.14302353480E-01  0.77837681252E-01  0.51100000000E-03 0.  1.
         11    1    4    4    0    0  0.41363145062E-01 -0.20651607384E-01  0.26082826271E-01  0.53084589141E-01  0.51100000000E-03 0. -1.
</event>
<event>
 8    1  0.1111182E+005  0.1043930E+01  0.7957747E-01            NaN
         13   -1    0    0    0    0  0.00000000000E+00  0.00000000000E+00  0.74505805969E-08  0.10566000000E+00  0.10566000000E+00 0. -1.
     999900   -1    0    0    0    0 -0.00000000000E+00 -0.00000000000E+00 -0.74505805969E-08  0.93827000000E+00  0.93827000000E+00 0. -1.
     999902    2    1    2    0    0  0.16207909155E-01  0.10024927703E-01  0.68044280672E-03  0.10248601679E+01  0.10246827339E+01 0.  0.
     999903    2    3    3    0    0 -0.56451833848E-01  0.38662708262E-01  0.11390012893E+00  0.13417601620E+00  0.18664120642E-01 0.  0.
         14    1    1    2    0    0 -0.16207909155E-01 -0.10024927703E-01 -0.68044280672E-03  0.19069832119E-01  0.00000000000E+00 0.  1.
     999901    1    3    3    0    0  0.72659743002E-01 -0.28637780558E-01 -0.11321968612E+00  0.89068415168E+00  0.88000000000E+00 0. -1.
        -11    1    4    4    0    0 -0.52090880195E-01  0.39270205870E-01  0.98451571825E-01  0.11810411502E+00  0.51100000000E-03 0. -1.
         11    1    4    4    0    0 -0.43609536522E-02 -0.60749760860E-03  0.15448557101E-01  0.16071901182E-01  0.51100000000E-03 0.  1.
</event>
<event>
 8    1  0.1111182E+005  0.1043930E+01  0.7957747E-01            NaN
         13   -1    0    0    0    0  0.00000000000E+00  0.00000000000E+00  0.74505805969E-08  0.10566000000E+00  0.10566000000E+00 0.  1.
     999900   -1    0    0    0    0 -0.00000000000E+00 -0.00000000000E+00 -0.74505805969E-08  0.93827000000E+00  0.93827000000E+00 0.  1.
     999902    2    1    2    0    0 -0.15767115504E-01 -0.65572712591E-02 -0.16334495139E-01  0.10202991839E+01  0.10200254944E+01 0.  0.
     999903    2    3    3    0    0  0.54475854565E-01  0.49619247868E-01  0.10265608246E+00  0.12774742983E+00  0.18746895017E-01 0.  0.
         14    1    1    2    0    0  0.15767115504E-01  0.65572712591E-02  0.16334495139E-01  0.23630816091E-01  0.00000000000E+00 0.  1.
     999901    1    3    3    0    0 -0.70242970068E-01 -0.56176519127E-01 -0.11899057760E+00  0.89255175408E+00  0.88000000000E+00 0.  1.
        -11    1    4    4    0    0  0.11506093292E-01  0.29042079825E-02  0.10540780074E-01  0.15880609951E-01  0.51100000000E-03 0.  1.
         11    1    4    4    0    0  0.42969761273E-01  0.46715039886E-01  0.92115302389E-01  0.11186681988E+00  0.51100000000E-03 0. -1.
</event>
<event>
 8    1  0.1111182E+005  0.1043930E+01  0.7957747E-01            NaN
         13   -1    0    0    0    0  0.00000000000E+00  0.00000000000E+00  0.74505805969E-08  0.10566000000E+00  0.10566000000E+00 0.  1.
     999900   -1    0    0    0    0 -0.00000000000E+00 -0.00000000000E+00 -0.74505805969E-08  0.93827000000E+00  0.93827000000E+00 0. -1.
     999902    2    1    2    0    0 -0.10886862995E-01 -0.13041232031E-01  0.16077138739E-01  0.10205404316E+01  0.10202723659E+01 0.  0.
     999903    2    3    3    0    0  0.27997669802E-01 -0.11873180243E+00 -0.44324478850E-01  0.13130994465E+00  0.19913104138E-01 0.  0.
         14    1    1    2    0    0  0.10886862995E-01  0.13041232031E-01 -0.16077138739E-01  0.23389568376E-01  0.00000000000E+00 0. -1.
     999901    1    3    3    0    0 -0.38884532797E-01  0.10569057040E+00  0.60401617589E-01  0.88923048698E+00  0.88000000000E+00 0. -1.
        -11    1    4    4    0    0  0.27609215445E-01 -0.86447940868E-01 -0.38103626726E-01  0.98425925185E-01  0.51100000000E-03 0.  1.
         11    1    4    4    0    0  0.38845435677E-03 -0.32283861559E-01 -0.62208521236E-02  0.32884019463E-01  0.51100000000E-03 0. -1.
</event>
<event>
 8    1  0.1111182E+005  0.1043930E+01  0.7957747E-01            NaN
         13   -1    0    0    0    0  0.00000000000E+00  0.00000000000E+00  0.74505805969E-08  0.10566000000E+00  0.10566000000E+00 0. -1.
     999900   -1    0    0    0    0 -0.00000000000E+00 -0.00000000000E+00 -0.74505805969E-08  0.93827000000E+00  0.93827000000E+00 0. -1.
     999902    2    1    2    0    0 -0.12210070126E-01 -0.12158811105E-01 -0.13367182440E-01  0.10221216515E+01  0.10218889697E+01 0.  0.
     999903    2    3    3    0    0  0.46537588561E-01  0.12014342075E+00 -0.34790900813E-02  0.13023996517E+00  0.18712449387E-01 0.  0.
         14    1    1    2    0    0  0.12210070126E-01  0.12158811105E-01  0.13367182440E-01  0.21808348547E-01  0.00000000000E+00 0. -1.
     999901    1    3    3    0    0 -0.58747658688E-01 -0.13230223185E+00 -0.98880923584E-02  0.89188168628E+00  0.88000000000E+00 0.  1.
        -11    1    4    4    0    0  0.71628485519E-02  0.37589160906E-01 -0.60209600119E-02  0.38739701825E-01  0.51100000000E-03 0. -1.
         11    1    4    4    0    0  0.39374740010E-01  0.82554259841E-01  0.25418699306E-02  0.91500263346E-01  0.51100000000E-03 0.  1.
</event>
<event>
 8    1  0.1111182E+005  0.1043930E+01  0.7957747E-01            NaN
         13   -1    0    0    0    0  0.00000000000E+00  0.00000000000E+00  0.74505805969E-08  0.10566000000E+00  0.10566000000E+00 0. -1.
     999900   -1    0    0    0    0 -0.00000000000E+00 -0.00000000000E+00 -0.74505805969E-08  0.93827000000E+00  0.93827000000E+00 0. -1.
     999902    2    1    2    0    0  0.18296460427E-01 -0.77917898077E-02 -0.11751653073E-01  0.10208307835E+01  0.10205694071E+01 0.  0.
     999903    2    3    3    0    0 -0.51978157543E-01  0.50494413101E-01 -0.10750797017E+00  0.13094029831E+00  0.18329851531E-01 0.  0.
         14    1    1    2    0    0 -0.18296460427E-01  0.77917898077E-02  0.11751653073E-01  0.23099216491E-01  0.00000000000E+00 0. -1.
     999901    1    3    3    0    0  0.70274617969E-01 -0.58286202909E-01  0.95756317092E-01  0.88989048520E+00  0.88000000000E+00 0.  1.
        -11    1    4    4    0    0 -0.91124923185E-02  0.40082384680E-02 -0.69484266895E-02  0.12150936027E-01  0.51100000000E-03 0. -1.
         11    1    4    4    0    0 -0.42865665224E-01  0.46486174633E-01 -0.10055954348E+00  0.11878936229E+00  0.51100000000E-03 0.  1.
</event>
<event>
 8    1  0.1111182E+005  0.1043930E+01  0.7957747E-01            NaN
         13   -1    0    0    0    0  0.00000000000E+00  0.00000000000E+00  0.74505805969E-08  0.10566000000E+00  0.10566000000E+00 0.  1.
     999900   -1    0    0    0    0 -0.00000000000E+00 -0.00000000000E+00 -0.74505805969E-08  0.93827000000E+00  0.93827000000E+00 0. -1.
     999902    2    1    2    0    0 -0.20024326920E-01  0.25362913957E-02 -0.12431285151E-01  0.10202246569E+01  0.10199492179E+01 0.  0.
     999903    2    3    3    0    0  0.92843714414E-02 -0.11424624494E+00 -0.59502330759E-01  0.13077941182E+00  0.20599105672E-01 0.  0.
         14    1    1    2    0    0  0.20024326920E-01 -0.25362913957E-02  0.12431285151E-01  0.23705343135E-01  0.00000000000E+00 0. -1.
     999901    1    3    3    0    0 -0.29308698361E-01  0.11678253634E+00  0.47071045608E-01  0.88944524504E+00  0.88000000000E+00 0. -1.
        -11    1    4    4    0    0  0.52548173515E-02 -0.23519398436E-01 -0.21611465306E-01  0.32374245348E-01  0.51100000000E-03 0. -1.
         11    1    4    4    0    0  0.40295540900E-02 -0.90726846506E-01 -0.37890865453E-01  0.98405166475E-01  0.51100000000E-03 0.  1.
</event>
<event>
 8    1  0.1111182E+005  0.1043930E+01  0.7957747E-01            NaN
         13   -1    0    0    0    0  0.00000000000E+00  0.00000000000E+00  0.74505805969E-08  0.10566000000E+00  0.10566000000E+00 0.  1.
     999900   -1    0    0    0    0 -0.00000000000E+00 -0.00000000000E+00 -0.74505805969E-08  0.93827000000E+00  0.93827000000E+00 0.  1.
     999902    2    1    2    0    0  0.11969263157E-01 -0.17886283387E-01  0.12028533744E-01  0.10192750204E+01  0.10189767903E+01 0.  0.
     999903    2    3    3    0    0  0.64385175640E-01 -0.74132084678E-01  0.87071183374E-01  0.13274108576E+00  0.19944624687E-01 0.  0.
         14    1    1    2    0    0 -0.11969263157E-01  0.17886283387E-01 -0.12028533744E-01  0.24654979577E-01  0.00000000000E+00 0. -1.
     999901    1    3    3    0    0 -0.52415912483E-01  0.56245801291E-01 -0.75042649630E-01  0.88653393466E+00  0.88000000000E+00 0.  1.
        -11    1    4    4    0    0  0.30076787639E-01 -0.49006783840E-01  0.53780375222E-01  0.78732889551E-01  0.51100000000E-03 0.  1.
         11    1    4    4    0    0  0.34308388001E-01 -0.25125300838E-01  0.33290808152E-01  0.54008196210E-01  0.51100000000E-03 0. -1.
</event>
<event>
 8    1  0.1111182E+005  0.1043930E+01  0.7957747E-01            NaN
         13   -1    0    0    0    0  0.00000000000E+00  0.00000000000E+00  0.74505805969E-08  0.10566000000E+00  0.10566000000E+00 0. -1.
     999900   -1    0    0    0    0 -0.00000000000E+00 -0.00000000000E+00 -0.74505805969E-08  0.93827000000E+00  0.93827000000E+00 0.  1.
     999902    2    1    2    0    0  0.10447985335E-01 -0.13050122689E-01  0.18773678303E-01  0.10187920387E+01  0.10184818610E+01 0.  0.
     999903    2    3    3    0    0  0.10828682192E+00  0.56693388631E-02  0.71841563665E-01  0.13158346312E+00  0.19870085325E-01 0.  0.
         14    1    1    2    0    0 -0.10447985335E-01  0.13050122689E-01 -0.18773678303E-01  0.25137961269E-01  0.00000000000E+00 0.  1.
     999901    1    3    3    0    0 -0.97838836588E-01 -0.18719461552E-01 -0.53067885362E-01  0.88720857561E+00  0.88000000000E+00 0.  1.
        -11    1    4    4    0    0  0.75058439247E-01  0.50128466032E-02  0.60252839813E-01  0.96382383037E-01  0.51100000000E-03 0.  1.
         11    1    4    4    0    0  0.33228382676E-01  0.65649225989E-03  0.11588723852E-01  0.35201080080E-01  0.51100000000E-03 0. -1.
</event>
<event>
 8    1  0.1111182E+005  0.1043930E+01  0.7957747E-01            NaN
         13   -1    0    0    0    0  0.00000000000E+00  0.00000000000E+00  0.74505805969E-08  0.10566000000E+00  0.10566000000E+00 0.  1.
     999900   -1    0    0    0    0 -0.00000000000E+00 -0.00000000000E+00 -0.74505805969E-08  0.93827000000E+00  0.93827000000E+00 0.  1.
     999902    2    1    2    0    0 -0.32100904825E-02  0.18554138489E-01  0.14115120876E-01  0.10203971002E+01  0.10201257004E+01 0.  0.
     999903    2    3    3    0    0  0.16199722952E-01  0.12905965712E+00 -0.15859141655E-01  0.13276729734E+00  0.21373271823E-01 0.  0.
         14    1    1    2    0    0  0.32100904825E-02 -0.18554138489E-01 -0.14115120876E-01  0.23532899807E-01  0.00000000000E+00 0. -1.
     999901    1    3    3    0    0 -0.19409813434E-01 -0.11050551863E+00  0.29974262531E-01  0.88762980286E+00  0.88000000000E+00 0.  1.
        -11    1    4    4    0    0  0.17026867213E-01  0.71823800317E-01 -0.15965670130E-01  0.75523084172E-01  0.51100000000E-03 0. -1.
         11    1    4    4    0    0 -0.82714426116E-03  0.57235856802E-01  0.10652847493E-03  0.57244213164E-01  0.51100000000E-03 0.  1.
</event>
<event>
 8    1  0.1111182E+005  0.1043930E+01  0.7957747E-01            NaN
         13   -1    0    0    0    0  0.00000000000E+00  0.00000000000E+00  0.74505805969E-08  0.10566000000E+00  0.10566000000E+00 0.  1.
     999900   -1    0    0    0    0 -0.00000000000E+00 -0.00000000000E+00 -0.74505805969E-08  0.93827000000E+00  0.93827000000E+00 0.  1.
     999902    2    1    2    0    0  0.10883817165E-01 -0.47289057971E-02 -0.19955792375E-01  0.10207124705E+01  0.10204483788E+01 0.  0.
     999903    2    3    3    0    0  0.11029371746E+00 -0.32067748544E-01 -0.65256767479E-01  0.13353609631E+00  0.19503812676E-01 0.  0.
         14    1    1    2    0    0 -0.10883817165E-01  0.47289057971E-02  0.19955792375E-01  0.23217529487E-01  0.00000000000E+00 0.  1.
     999901    1    3    3    0    0 -0.99409900291E-01  0.27338842747E-01  0.45300975103E-01  0.88717637420E+00  0.88000000000E+00 0.  1.
        -11    1    4    4    0    0  0.32871131267E-01 -0.12078639510E-01 -0.30119471621E-01  0.46193597986E-01  0.51100000000E-03 0. -1.
         11    1    4    4    0    0  0.77422586190E-01 -0.19989109034E-01 -0.35137295857E-01  0.87342498324E-01  0.51100000000E-03 0.  1.
</event>
<event>
 8    1  0.1111182E+005  0.1043930E+01  0.7957747E-01            NaN
         13   -1    0    0    0    0  0.00000000000E+00  0.00000000000E+00  0.74505805969E-08  0.10566000000E+00  0.10566000000E+00 0.  1.
     999900   -1    0    0    0    0 -0.00000000000E+00 -0.00000000000E+00 -0.74505805969E-08  0.93827000000E+00  0.93827000000E+00 0.  1.
     999902    2    1    2    0    0  0.11775457108E-01  0.19249526918E-01 -0.48118592806E-02  0.10208570794E+01  0.10205963045E+01 0.  0.
     999903    2    3    3    0    0  0.11960824149E-01 -0.82551114832E-01 -0.97824019126E-01  0.13011880866E+00  0.20090240806E-01 0.  0.
         14    1    1    2    0    0 -0.11775457108E-01 -0.19249526918E-01  0.48118592806E-02  0.23072920630E-01  0.00000000000E+00 0. -1.
     999901    1    3    3    0    0 -0.18536704152E-03  0.10180064175E+00  0.93012159846E-01  0.89073827071E+00  0.88000000000E+00 0. -1.
        -11    1    4    4    0    0  0.68164195597E-02 -0.33423071267E-01 -0.25756931861E-01  0.42746297248E-01  0.51100000000E-03 0. -1.
         11    1    4    4    0    0  0.51444045895E-02 -0.49128043565E-01 -0.72067087266E-01  0.87372511415E-01  0.51100000000E-03 0.  1.
</event>
<event>
 8    1  0.1111182E+005  0.1043930E+01  0.7957747E-01            NaN
         13   -1    0    0    0    0  0.00000000000E+00  0.00000000000E+00  0.74505805969E-08  0.10566000000E+00  0.10566000000E+00 0. -1.
     999900   -1    0    0    0    0 -0.00000000000E+00 -0.00000000000E+00 -0.74505805969E-08  0.93827000000E+00  0.93827000000E+00 0. -1.
     999902    2    1    2    0    0 -0.11359531922E-01  0.20373172073E-01  0.23228189907E-02  0.10204885710E+01  0.10202193014E+01 0.  0.
     999903    2    3    3    0    0  0.10099307922E+00  0.30028146320E-01  0.74056931530E-01  0.13039750225E+00  0.20439859670E-01 0.  0.
         14    1    1    2    0    0  0.11359531922E-01 -0.20373172073E-01 -0.23228189907E-02  0.23441429007E-01  0.00000000000E+00 0.  1.
     999901    1    3    3    0    0 -0.11235261114E+00 -0.96549742470E-02 -0.71734112539E-01  0.89009106875E+00  0.88000000000E+00 0. -1.
        -11    1    4    4    0    0  0.33908681547E-01  0.36939000964E-02  0.32953095666E-01  0.47430066594E-01  0.51100000000E-03 0. -1.
         11    1    4    4    0    0  0.67084397673E-01  0.26334246224E-01  0.41103835864E-01  0.82967435654E-01  0.51100000000E-03 0.  1.
</event>
<event>
 8    1  0.1111182E+005  0.1043930E+01  0.7957747E-01            NaN
         13   -1    0    0    0    0  0.00000000000E+00  0.00000000000E+00  0.74505805969E-08  0.10566000000E+00  0.10566000000E+00 0.  1.
     999900   -1    0    0    0    0 -0.00000000000E+00 -0.00000000000E+00 -0.74505805969E-08  0.93827000000E+00  0.93827000000E+00 0. -1.
     999902    2    1    2    0    0 -0.11801096534E-01  0.60858957059E-02 -0.19272169418E-01  0.10205265703E+01  0.10202581831E+01 0.  0.
     999903    2    3    3    0    0 -0.24801361887E-01 -0.12145234411E+00 -0.38091553778E-01  0.13103841485E+00  0.18823396508E-01 0.  0.
         14    1    1    2    0    0  0.11801096534E-01 -0.60858957059E-02  0.19272169418E-01  0.23403429663E-01  0.00000000000E+00 0.  1.
     999901    1    3    3    0    0  0.13000265353E-01  0.12753823982E+00  0.18819384361E-01  0.88948815548E+00  0.88000000000E+00 0.  1.
        -11    1    4    4    0    0 -0.20795765128E-02 -0.54136922286E-01 -0.13291071244E-01  0.55785703266E-01  0.51100000000E-03 0.  1.
         11    1    4    4    0    0 -0.22721785374E-01 -0.67315421828E-01 -0.24800482534E-01  0.75252711588E-01  0.51100000000E-03 0. -1.
</event>
<event>
 8    1  0.1111182E+005  0.1043930E+01  0.7957747E-01            NaN
         13   -1    0    0    0    0  0.00000000000E+00  0.00000000000E+00  0.74505805969E-08  0.10566000000E+00  0.10566000000E+00 0.  1.
     999900   -1    0    0    0    0 -0.00000000000E+00 -0.00000000000E+00 -0.74505805969E-08  0.93827000000E+00  0.93827000000E+00 0.  1.
     999902    2    1    2    0    0 -0.18353973748E-01  0.13889049513E-01  0.95157370073E-02  0.10190237096E+01  0.10187192928E+01 0.  0.
     999903    2    3    3    0    0 -0.12200488735E+00  0.46778433469E-01 -0.75427068412E-03  0.13227081479E+00  0.20532538705E-01 0.  0.
         14    1    1    2    0    0  0.18353973748E-01 -0.13889049513E-01 -0.95157370073E-02  0.24906290360E-01  0.00000000000E+00 0. -1.
     999901    1    3    3    0    0  0.10365091360E+00 -0.32889383956E-01  0.10270007691E-01  0.88675289485E+00  0.88000000000E+00 0. -1.
        -11    1    4    4    0    0 -0.90123239610E-01  0.28725101811E-01 -0.79641837228E-02  0.94926387982E-01  0.51100000000E-03 0.  1.
         11    1    4    4    0    0 -0.31881647740E-01  0.18053331658E-01  0.72099130387E-02  0.37344426808E-01  0.51100000000E-03 0. -1.
</event>
<event>
 8    1  0.1111182E+005  0.1043930E+01  0.7957747E-01            NaN
         13   -1    0    0    0    0  0.00000000000E+00  0.00000000000E+00  0.74505805969E-08  0.10566000000E+00  0.10566000000E+00 0. -1.
     999900   -1    0    0    0    0 -0.00000000000E+00 -0.00000000000E+00 -0.74505805969E-08  0.93827000000E+00  0.93827000000E+00 0. -1.
     999902    2    1    2    0    0 -0.22813128112E-02  0.21945297443E-01 -0.33222695930E-02  0.10216177177E+01  0.10213740368E+01 0.  0.
     999903    2    3    3    0    0 -0.59417296036E-01 -0.10824788107E+00  0.33750394649E-01  0.12943546792E+00  0.19142423901E-01 0.  0.
         14    1    1    2    0    0  0.22813128112E-02 -0.21945297443E-01  0.33222695930E-02  0.22312282341E-01  0.00000000000E+00 0.  1.
     999901    1    3    3    0    0  0.57135983225E-01  0.13019317851E+00 -0.37072664242E-01  0.89218224974E+00  0.88000000000E+00 0.  1.
        -11    1    4    4    0    0 -0.13891061442E-02 -0.15291640146E-01  0.35663295527E-02  0.15771610625E-01  0.51100000000E-03 0.  1.
         11    1    4    4    0    0 -0.58028189892E-01 -0.92956240925E-01  0.30184065096E-01  0.11366385730E+00  0.51100000000E-03 0. -1.
</event>
<event>
 8    1  0.1111182E+005  0.1043930E+01  0.7957747E-01            NaN
         13   -1    0    0    0    0  0.00000000000E+00  0.00000000000E+00  0.74505805969E-08  0.10566000000E+00  0.10566000000E+00 0.  1.
     999900   -1    0    0    0    0 -0.00000000000E+00 -0.00000000000E+00 -0.74505805969E-08  0.93827000000E+00  0.93827000000E+00 0.  1.
     999902    2    1    2    0    0 -0.10826901665E-01 -0.20241053529E-01 -0.56769757917E-02  0.10202836451E+01  0.10200095913E+01 0.  0.
     999903    2    3    3    0    0 -0.12168384347E+00 -0.34113972608E-01  0.32530555037E-01  0.13239765303E+00  0.22364718378E-01 0.  0.
         14    1    1    2    0    0  0.10826901665E-01  0.20241053529E-01  0.56769757917E-02  0.23646354936E-01  0.00000000000E+00 0. -1.
     999901    1    3    3    0    0  0.11085694181E+00  0.13872919078E-01 -0.38207530829E-01  0.88788599203E+00  0.88000000000E+00 0.  1.
        -11    1    4    4    0    0 -0.77011255358E-01 -0.12277361083E-01  0.26204118533E-01  0.82270188987E-01  0.51100000000E-03 0. -1.
         11    1    4    4    0    0 -0.44672588116E-01 -0.21836611524E-01  0.63264365046E-02  0.50127464047E-01  0.51100000000E-03 0.  1.
</event>
<event>
 8    1  0.1111182E+005  0.1043930E+01  0.7957747E-01            NaN
         13   -1    0    0    0    0  0.00000000000E+00  0.00000000000E+00  0.74505805969E-08  0.10566000000E+00  0.10566000000E+00 0.  1.
     999900   -1    0    0    0    0 -0.00000000000E+00 -0.00000000000E+00 -0.74505805969E-08  0.93827000000E+00  0.93827000000E+00 0. -1.
     999902    2    1    2    0    0  0.18017995231E-01  0.62362515022E-02  0.11841678619E-01  0.10214853049E+01  0.10212386909E+01 0.  0.
     999903    2    3    3    0    0  0.70171420755E-01  0.14943782491E-01 -0.10860438929E+00  0.13170833502E+00  0.20120318426E-01 0.  0.
         14    1    1    2    0    0 -0.18017995231E-01 -0.62362515022E-02 -0.11841678619E-01  0.22444695085E-01  0.00000000000E+00 0. -1.
     999901    1    3    3    0    0 -0.52153425525E-01 -0.87075309893E-02  0.12044606791E+00  0.88977696990E+00  0.88000000000E+00 0.  1.
        -11    1    4    4    0    0  0.33369304324E-01  0.17323508713E-01 -0.52993809388E-01  0.64978607093E-01  0.51100000000E-03 0. -1.
         11    1    4    4    0    0  0.36802116431E-01 -0.23797262212E-02 -0.55610579901E-01  0.66729727922E-01  0.51100000000E-03 0.  1.
</event>
<event>
 8    1  0.1111182E+005  0.1043930E+01  0.7957747E-01            NaN
         13   -1    0    0    0    0  0.00000000000E+00  0.00000000000E+00  0.74505805969E-08  0.10566000000E+00  0.10566000000E+00 0. -1.
     999900   -1    0    0    0    0 -0.00000000000E+00 -0.00000000000E+00 -0.74505805969E-08  0.93827000000E+00  0.93827000000E+00 0.  1.
     999902    2    1    2    0    0  0.13722573660E-01 -0.36530116697E-02 -0.22960398023E-01  0.10169330854E+01  0.10165746735E+01 0.  0.
     999903    2    3    3    0    0  0.12456537859E+00 -0.25162454168E-01  0.11785977978E-01  0.12903889451E+00  0.19037971942E-01 0.  0.
         14    1    1    2    0    0 -0.13722573660E-01  0.36530116697E-02  0.22960398023E-01  0.26996914629E-01  0.00000000000E+00 0. -1.
     999901    1    3    3    0    0 -0.11084280493E+00  0.21509442499E-01 -0.34746376001E-01  0.88789419086E+00  0.88000000000E+00 0.  1.
        -11    1    4    4    0    0  0.14416474554E-01 -0.59662741994E-02  0.70489207235E-02  0.17128326560E-01  0.51100000000E-03 0.  1.
         11    1    4    4    0    0  0.11014890404E+00 -0.19196179969E-01  0.47370572547E-02  0.11191056795E+00  0.51100000000E-03 0. -1.
</event>
<event>
 8    1  0.1111182E+005  0.1043930E+01  0.7957747E-01            NaN
         13   -1    0    0    0    0  0.00000000000E+00  0.00000000000E+00  0.74505805969E-08  0.10566000000E+00  0.10566000000E+00 0. -1.
     999900   -1    0    0    0    0 -0.00000000000E+00 -0.00000000000E+00 -0.74505805969E-08  0.93827000000E+00  0.93827000000E+00 0. -1.
     999902    2    1    2    0    0  0.20051189859E-01  0.84445056733E-02  0.85497599766E-02  0.10205535527E+01  0.10202857912E+01 0.  0.
     999903    2    3    3    0    0 -0.62713748973E-01 -0.10652842664E+00 -0.28922420626E-01  0.12843642221E+00  0.19444488767E-01 0.  0.
         14    1    1    2    0    0 -0.20051189859E-01 -0.84445056733E-02 -0.85497599766E-02  0.23376447259E-01  0.00000000000E+00 0.  1.
     999901    1    3    3    0    0  0.82764938832E-01  0.11497293231E+00  0.37472180603E-01  0.89211713053E+00  0.88000000000E+00 0.  1.
        -11    1    4    4    0    0 -0.44819939087E-01 -0.63610408841E-01 -0.25160716087E-01  0.81782845437E-01  0.51100000000E-03 0.  1.
         11    1    4    4    0    0 -0.17893809886E-01 -0.42918017797E-01 -0.37617045391E-02  0.46653576775E-01  0.51100000000E-03 0. -1.
</event>
<event>
 8    1  0.1111182E+005  0.1043930E+01  0.7957747E-01            NaN
         13   -1    0    0    0    0  0.00000000000E+00  0.00000000000E+00  0.74505805969E-08  0.10566000000E+00  0.10566000000E+00 0. -1.
     999900   -1    0    0    0    0 -0.00000000000E+00 -0.00000000000E+00 -0.74505805969E-08  0.93827000000E+00  0.93827000000E+00 0.  1.
     999902    2    1    2    0    0 -0.22269555686E-01  0.84824030647E-02 -0.84495612299E-03  0.10200847023E+01  0.10198059627E+01 0.  0.
     999903    2    3    3    0    0  0.27231149170E-01  0.52755111122E-01 -0.11436118114E+00  0.13031151444E+00  0.19441548580E-01 0.  0.
         14    1    1    2    0    0  0.22269555686E-01 -0.84824030647E-02  0.84495612299E-03  0.23845297714E-01  0.00000000000E+00 0.  1.
     999901    1    3    3    0    0 -0.49500704857E-01 -0.44272708058E-01  0.11351622501E+00  0.88977318784E+00  0.88000000000E+00 0. -1.
        -11    1    4    4    0    0  0.17528827100E-01  0.23130157056E-01 -0.72666406648E-01  0.78249164347E-01  0.51100000000E-03 0.  1.
         11    1    4    4    0    0  0.97023220700E-02  0.29624954066E-01 -0.41694774489E-01  0.52062350097E-01  0.51100000000E-03 0. -1.
</event>
<event>
 8    1  0.1111182E+005  0.1043930E+01  0.7957747E-01            NaN
         13   -1    0    0    0    0  0.00000000000E+00  0.00000000000E+00  0.74505805969E-08  0.10566000000E+00  0.10566000000E+00 0.  1.
     999900   -1    0    0    0    0 -0.00000000000E+00 -0.00000000000E+00 -0.74505805969E-08  0.93827000000E+00  0.93827000000E+00 0.  1.
     999902    2    1    2    0    0 -0.36692890196E-02  0.13105355320E-02  0.23838102547E-01  0.10197755735E+01  0.10194894723E+01 0.  0.
     999903    2    3    3    0    0 -0.28661362600E-01 -0.95554061094E-01  0.84152223362E-01  0.13205650367E+00  0.20131347846E-01 0.  0.
         14    1    1    2    0    0  0.36692890196E-02 -0.13105355320E-02 -0.23838102547E-01  0.24154426475E-01  0.00000000000E+00 0. -1.
     999901    1    3    3    0    0  0.24992073580E-01  0.96864596626E-01 -0.60314120815E-01  0.88771906986E+00  0.88000000000E+00 0.  1.
        -11    1    4    4    0    0 -0.69608801551E-02 -0.19106152553E-01  0.28597023141E-01  0.35093443425E-01  0.51100000000E-03 0. -1.
         11    1    4    4    0    0 -0.21700482445E-01 -0.76447908541E-01  0.55555200221E-01  0.96963060241E-01  0.51100000000E-03 0.  1.
</event>
<event>
 8    1  0.1111182E+005  0.1043930E+01  0.7957747E-01            NaN
         13   -1    0    0    0    0  0.00000000000E+00  0.00000000000E+00  0.74505805969E-08  0.10566000000E+00  0.10566000000E+00 0.  1.
     999900   -1    0    0    0    0 -0.00000000000E+00 -0.00000000000E+00 -0.74505805969E-08  0.93827000000E+00  0.93827000000E+00 0.  1.
     999902    2    1    2    0    0 -0.21919143529E-01 -0.34357594581E-02 -0.47559395489E-02  0.10212392033E+01  0.10209870900E+01 0.  0.
     999903    2    3    3    0    0 -0.12657485714E+00  0.25230192386E-01  0.32852773872E-01  0.13377710800E+00  0.12619540568E-01 0.  0.
         14    1    1    2    0    0  0.21919143529E-01  0.34357594581E-02  0.47559395489E-02  0.22690796748E-01  0.00000000000E+00 0.  1.
     999901    1    3    3    0    0  0.10465571362E+00 -0.28665951844E-01 -0.37608713421E-01  0.88746209525E+00  0.88000000000E+00 0. -1.
        -11    1    4    4    0    0 -0.35509255340E-01  0.30887171237E-02  0.13243269692E-01  0.38027525575E-01  0.51100000000E-03 0. -1.
         11    1    4    4    0    0 -0.91065601805E-01  0.22141475262E-01  0.19609504180E-01  0.95749582422E-01  0.51100000000E-03 0.  1.
</event>
<event>
 8    1  0.1111182E+005  0.1043930E+01  0.7957747E-01            NaN
         13   -1    0    0    0    0  0.00000000000E+00  0.00000000000E+00  0.74505805969E-08  0.10566000000E+00  0.10566000000E+00 0.  1.
     999900   -1    0    0    0    0 -0.00000000000E+00 -0.00000000000E+00 -0.74505805969E-08  0.93827000000E+00  0.93827000000E+00 0.  1.
     999902    2    1    2    0    0 -0.90507322478E-02 -0.22269838505E-01  0.31697413776E-02  0.10196831709E+01  0.10193948500E+01 0.  0.
     999903    2    3    3    0    0  0.19317025914E-02  0.93967126257E-01 -0.83590549215E-01  0.12774203277E+00  0.22295621241E-01 0.  0.
         14    1    1    2    0    0  0.90507322478E-02  0.22269838505E-01 -0.31697413776E-02  0.24246829106E-01  0.00000000000E+00 0. -1.
     999901    1    3    3    0    0 -0.10982434839E-01 -0.11623696476E+00  0.86760290593E-01  0.89194113812E+00  0.88000000000E+00 0. -1.
        -11    1    4    4    0    0 -0.70201574465E-02  0.66748988553E-01 -0.65910296937E-01  0.94069859396E-01  0.51100000000E-03 0. -1.
         11    1    4    4    0    0  0.89518600378E-02  0.27218137704E-01 -0.17680252279E-01  0.33672173376E-01  0.51100000000E-03 0.  1.
</event>
<event>
 8    1  0.1111182E+005  0.1043930E+01  0.7957747E-01            NaN
         13   -1    0    0    0    0  0.00000000000E+00  0.00000000000E+00  0.74505805969E-08  0.10566000000E+00  0.10566000000E+00 0.  1.
     999900   -1    0    0    0    0 -0.00000000000E+00 -0.00000000000E+00 -0.74505805969E-08  0.93827000000E+00  0.93827000000E+00 0.  1.
     999902    2    1    2    0    0 -0.11918316901E-01 -0.20347841127E-01  0.23686784652E-02  0.10202299672E+01  0.10199546531E+01 0.  0.
     999903    2    3    3    0    0  0.50480427728E-01 -0.93802286278E-01  0.75216713629E-01  0.13197550195E+00  0.20318381097E-01 0.  0.
         14    1    1    2    0    0  0.11918316901E-01  0.20347841127E-01 -0.23686784652E-02  0.23700032784E-01  0.00000000000E+00 0.  1.
     999901    1    3    3    0    0 -0.62398744630E-01  0.73454445152E-01 -0.72848035164E-01  0.88825446527E+00  0.88000000000E+00 0.  1.
        -11    1    4    4    0    0 -0.11610227346E-02 -0.98827152068E-03  0.33972093825E-02  0.37585644836E-02  0.51100000000E-03 0. -1.
         11    1    4    4    0    0  0.51641450463E-01 -0.92814014757E-01  0.71819504246E-01  0.12821693746E+00  0.51100000000E-03 0.  1.
</event>
<event>
 8    1  0.1111182E+005  0.1043930E+01  0.7957747E-01            NaN
         13   -1    0    0    0    0  0.00000000000E+00  0.00000000000E+00  0.74505805969E-08  0.10566000000E+00  0.10566000000E+00 0.  1.
     999900   -1    0    0    0    0 -0.00000000000E+00 -0.00000000000E+00 -0.74505805969E-08  0.93827000000E+00  0.93827000000E+00 0.  1.
     999902    2    1    2    0    0 -0.93465827973E-02 -0.98786327312E-02 -0.24641656515E-01  0.10157847121E+01  0.10153947135E+01 0.  0.
     999903    2    3    3    0    0  0.65569785786E-01  0.74118766039E-01  0.71250013721E-01  0.12344887976E+00  0.19237285946E-01 0.  0.
         14    1    1    2    0    0  0.93465827973E-02  0.98786327312E-02  0.24641656515E-01  0.28145287890E-01  0.00000000000E+00 0.  1.
     999901    1    3    3    0    0 -0.74916368583E-01 -0.83997398771E-01 -0.95891670236E-01  0.89233583235E+00  0.88000000000E+00 0. -1.
        -11    1    4    4    0    0  0.60505132532E-01  0.72637430677E-01  0.62874441105E-01  0.11353644289E+00  0.51100000000E-03 0.  1.
         11    1    4    4    0    0  0.50646532537E-02  0.14813353619E-02  0.83755726161E-02  0.99124368690E-02  0.51100000000E-03 0. -1.
</event>
<event>
 8    1  0.1111182E+005  0.1043930E+01  0.7957747E-01            NaN
         13   -1    0    0    0    0  0.00000000000E+00  0.00000000000E+00  0.74505805969E-08  0.10566000000E+00  0.10566000000E+00 0.  1.
     999900   -1    0    0    0    0 -0.00000000000E+00 -0.00000000000E+00 -0.74505805969E-08  0.93827000000E+00  0.93827000000E+00 0. -1.
     999902    2    1    2    0    0 -0.15465816469E-01 -0.17941821645E-01  0.10967618359E-02  0.10202170641E+01  0.10199414466E+01 0.  0.
     999903    2    3    3    0    0 -0.34891797694E-01 -0.59809192436E-01  0.11075420255E+00  0.13221087054E+00  0.20460788347E-01 0.  0.
         14    1    1    2    0    0  0.15465816469E-01  0.17941821645E-01 -0.10967618359E-02  0.23712935911E-01  0.00000000000E+00 0. -1.
     999901    1    3    3    0    0  0.19425981225E-01  0.41867370792E-01 -0.10965744071E+00  0.88800619355E+00  0.88000000000E+00 0. -1.
        -11    1    4    4    0    0 -0.15434940897E-01 -0.29469915010E-01  0.34846189701E-01  0.48179158865E-01  0.51100000000E-03 0.  1.
         11    1    4    4    0    0 -0.19456856796E-01 -0.30339277426E-01  0.75908012847E-01  0.84031711672E-01  0.51100000000E-03 0. -1.
</event>
<event>
 8    1  0.1111182E+005  0.1043930E+01  0.7957747E-01            NaN
         13   -1    0    0    0    0  0.00000000000E+00  0.00000000000E+00  0.74505805969E-08  0.10566000000E+00  0.10566000000E+00 0. -1.
     999900   -1    0    0    0    0 -0.00000000000E+00 -0.00000000000E+00 -0.74505805969E-08  0.93827000000E+00  0.93827000000E+00 0.  1.
     999902    2    1    2    0    0 -0.16913426769E-01 -0.18261542419E-01  0.19171749515E-02  0.10189655554E+01  0.10186596976E+01 0.  0.
     999903    2    3    3    0    0 -0.36335454308E-01 -0.71756725938E-01 -0.10188633929E+00  0.13103868935E+00  0.17917003532E-01 0.  0.
         14    1    1    2    0    0  0.16913426769E-01  0.18261542419E-01 -0.19171749515E-02  0.24964444644E-01  0.00000000000E+00 0.  1.
     999901    1    3    3    0    0  0.19422027539E-01  0.53495183519E-01  0.10380351424E+00  0.88792686601E+00  0.88000000000E+00 0. -1.
        -11    1    4    4    0    0 -0.37955517092E-01 -0.63769570644E-01 -0.90788592997E-01  0.11726043304E+00  0.51100000000E-03 0. -1.
         11    1    4    4    0    0  0.16200627837E-02 -0.79871552941E-02 -0.11097746288E-01  0.13778256304E-01  0.51100000000E-03 0.  1.
</event>
<event>
 8    1  0.1111182E+005  0.1043930E+01  0.7957747E-01            NaN
         13   -1    0    0    0    0  0.00000000000E+00  0.00000000000E+00  0.74505805969E-08  0.10566000000E+00  0.10566000000E+00 0. -1.
     999900   -1    0    0    0    0 -0.00000000000E+00 -0.00000000000E+00 -0.74505805969E-08  0.93827000000E+00  0.93827000000E+00 0.  1.
     999902    2    1    2    0    0  0.30622471119E-02 -0.23237194098E-01 -0.16085114145E-02  0.10204367700E+01  0.10201662951E+01 0.  0.
     999903    2    3    3    0    0 -0.44166327877E-01 -0.43885210477E-01  0.11400469125E+00  0.13137924008E+00  0.19668728473E-01 0.  0.
         14    1    1    2    0    0 -0.30622471119E-02  0.23237194098E-01  0.16085114145E-02  0.23493230001E-01  0.00000000000E+00 0. -1.
     999901    1    3    3    0    0  0.47228574989E-01  0.20648016379E-01 -0.11561320267E+00  0.88905752992E+00  0.88000000000E+00 0.  1.
        -11    1    4    4    0    0 -0.21378665440E-01 -0.34503826257E-01  0.68342467300E-01  0.79489089315E-01  0.51100000000E-03 0.  1.
         11    1    4    4    0    0 -0.22787662437E-01 -0.93813842199E-02  0.45662223951E-01  0.51890150764E-01  0.51100000000E-03 0. -1.
</event>
<event>
 8    1  0.1111182E+005  0.1043930E+01  0.7957747E-01            NaN
         13   -1    0    0    0    0  0.00000000000E+00  0.00000000000E+00  0.74505805969E-08  0.10566000000E+00  0.10566000000E+00 0. -1.
     999900   -1    0    0    0    0 -0.00000000000E+00 -0.00000000000E+00 -0.74505805969E-08  0.93827000000E+00  0.93827000000E+00 0. -1.
     999902    2    1    2    0    0  0.16853493325E-01  0.16559416741E-01 -0.48397316410E-03  0.10202976334E+01  0.10200239076E+01 0.  0.
     999903    2    3    3    0    0 -0.27915617435E-01 -0.11029473275E-01 -0.12499735458E+00  0.12997802661E+00  0.19209835296E-01 0.  0.
         14    1    1    2    0    0 -0.16853493325E-01 -0.16559416741E-01  0.48397316410E-03  0.23632366578E-01  0.00000000000E+00 0.  1.
     999901    1    3    3    0    0  0.44769110760E-01  0.27588890016E-01  0.12451338141E+00  0.89031960682E+00  0.88000000000E+00 0.  1.
        -11    1    4    4    0    0 -0.15346157410E-01 -0.15795082276E-01 -0.83363363063E-01  0.86224709878E-01  0.51100000000E-03 0.  1.
         11    1    4    4    0    0 -0.12569460025E-01  0.47656090011E-02 -0.41633991512E-01  0.43753316728E-01  0.51100000000E-03 0. -1.
</event>
<event>
 8    1  0.1111182E+005  0.1043930E+01  0.7957747E-01            NaN
         13   -1    0    0    0    0  0.00000000000E+00  0.00000000000E+00  0.74505805969E-08  0.10566000000E+00  0.10566000000E+00 0. -1.
     999900   -1    0    0    0    0 -0.00000000000E+00 -0.00000000000E+00 -0.74505805969E-08  0.93827000000E+00  0.93827000000E+00 0.  1.
     999902    2    1    2    0    0  0.15423273283E-01 -0.13706607054E-01 -0.11847027249E-01  0.10201371336E+01  0.10198596329E+01 0.  0.
     999903    2    3    3    0    0 -0.98243883187E-01 -0.18846556627E-01 -0.81017721721E-01  0.13011959081E+00  0.18978498357E-01 0.  0.
         14    1    1    2    0    0 -0.15423273283E-01  0.13706607054E-01  0.11847027249E-01  0.23792866375E-01  0.00000000000E+00 0. -1.
     999901    1    3    3    0    0  0.11366715647E+00  0.51399495724E-02  0.69170694473E-01  0.89001754281E+00  0.88000000000E+00 0.  1.
        -11    1    4    4    0    0 -0.72061903138E-01 -0.93867936029E-02 -0.48797115271E-01  0.87535417734E-01  0.51100000000E-03 0. -1.
         11    1    4    4    0    0 -0.26181980048E-01 -0.94597630237E-02 -0.32220606451E-01  0.42584173078E-01  0.51100000000E-03 0.  1.
</event>
<event>
 8    1  0.1111182E+005  0.1043930E+01  0.7957747E-01            NaN
         13   -1    0    0    0    0  0.00000000000E+00  0.00000000000E+00  0.74505805969E-08  0.10566000000E+00  0.10566000000E+00 0. -1.
     999900   -1    0    0    0    0 -0.00000000000E+00 -0.00000000000E+00 -0.74505805969E-08  0.93827000000E+00  0.93827000000E+00 0. -1.
     999902    2    1    2    0    0  0.10202396026E-01  0.44035852234E-02  0.20709626783E-01  0.10204274663E+01  0.10201567747E+01 0.  0.
     999903    2    3    3    0    0  0.12182537925E+00  0.46903519767E-01  0.51202150218E-02  0.13222199203E+00  0.20373398777E-01 0.  0.
         14    1    1    2    0    0 -0.10202396026E-01 -0.44035852234E-02 -0.20709626783E-01  0.23502533672E-01  0.00000000000E+00 0.  1.
     999901    1    3    3    0    0 -0.11162298322E+00 -0.42499934544E-01  0.15589411761E-01  0.88820547430E+00  0.88000000000E+00 0. -1.
        -11    1    4    4    0    0  0.96879654515E-01  0.28114115058E-01  0.31998358147E-02  0.10092854400E+00  0.51100000000E-03 0.  1.
         11    1    4    4    0    0  0.24945724735E-01  0.18789404710E-01  0.19203792071E-02  0.31293448024E-01  0.51100000000E-03 0. -1.
</event>
<event>
 8    1  0.1111182E+005  0.1043930E+01  0.7957747E-01            NaN
         13   -1    0    0    0    0  0.00000000000E+00  0.00000000000E+00  0.74505805969E-08  0.10566000000E+00  0.10566000000E+00 0. -1.
     999900   -1    0    0    0    0 -0.00000000000E+00 -0.00000000000E+00 -0.74505805969E-08  0.93827000000E+00  0.93827000000E+00 0. -1.
     999902    2    1    2    0    0 -0.79970479128E-02 -0.16490745808E-01  0.14835255435E-01  0.10203507236E+01  0.10200782405E+01 0.  0.
     999903    2    3    3    0    0 -0.99683946769E-01 -0.80244782467E-02  0.85128250925E-01  0.13275888590E+00  0.19411882561E-01 0.  0.
         14    1    1    2    0    0  0.79970479128E-02  0.16490745808E-01 -0.14835255435E-01  0.23579276419E-01  0.00000000000E+00 0. -1.
     999901    1    3    3    0    0  0.91686898856E-01 -0.84662675609E-02 -0.70292995490E-01  0.88759183768E+00  0.88000000000E+00 0.  1.
        -11    1    4    4    0    0 -0.44640870381E-01 -0.78645490046E-02  0.27282221440E-01  0.52907836538E-01  0.51100000000E-03 0. -1.
         11    1    4    4    0    0 -0.55043076388E-01 -0.15992924211E-03  0.57846029485E-01  0.79851049360E-01  0.51100000000E-03 0.  1.
</event>
<event>
 8    1  0.1111182E+005  0.1043930E+01  0.7957747E-01            NaN
         13   -1    0    0    0    0  0.00000000000E+00  0.00000000000E+00  0.74505805969E-08  0.10566000000E+00  0.10566000000E+00 0.  1.
     999900   -1    0    0    0    0 -0.00000000000E+00 -0.00000000000E+00 -0.74505805969E-08  0.93827000000E+00  0.93827000000E+00 0. -1.
     999902    2    1    2    0    0 -0.11579860327E-01 -0.79380796732E-02 -0.18969380371E-01  0.10203303461E+01  0.10200573863E+01 0.  0.
     999903    2    3    3    0    0  0.33754829016E-01 -0.23094199038E-01 -0.12460345846E+00  0.13272485912E+00  0.20423904037E-01 0.  0.
         14    1    1    2    0    0  0.11579860327E-01  0.79380796732E-02  0.18969380371E-01  0.23599653933E-01  0.00000000000E+00 0.  1.
     999901    1    3    3    0    0 -0.45334689343E-01  0.15156119364E-01  0.10563407809E+00  0.88760548695E+00  0.88000000000E+00 0.  1.
        -11    1    4    4    0    0  0.18219655078E-01 -0.23013160184E-01 -0.68903106986E-01  0.74896332662E-01  0.51100000000E-03 0. -1.
         11    1    4    4    0    0  0.15535173938E-01 -0.81038853611E-04 -0.55700351474E-01  0.57828526455E-01  0.51100000000E-03 0.  1.
</event>
<event>
 8    1  0.1111182E+005  0.1043930E+01  0.7957747E-01            NaN
         13   -1    0    0    0    0  0.00000000000E+00  0.00000000000E+00  0.74505805969E-08  0.10566000000E+00  0.10566000000E+00 0. -1.
     999900   -1    0    0    0    0 -0.00000000000E+00 -0.00000000000E+00 -0.74505805969E-08  0.93827000000E+00  0.93827000000E+00 0.  1.
     999902    2    1    2    0    0  0.19493103898E-01 -0.12569367137E-01  0.93431390973E-02  0.10189247138E+01  0.10186178420E+01 0.  0.
     999903    2    3    3    0    0 -0.73464622372E-01  0.93017588721E-01  0.41189330900E-01  0.12718264119E+00  0.20725363433E-01 0.  0.
         14    1    1    2    0    0 -0.19493103898E-01  0.12569367137E-01 -0.93431390973E-02  0.25005286201E-01  0.00000000000E+00 0.  1.
     999901    1    3    3    0    0  0.92957726270E-01 -0.10558695586E+00 -0.31846191803E-01  0.89174207260E+00  0.88000000000E+00 0.  1.
        -11    1    4    4    0    0 -0.87212358125E-02  0.72041765674E-02  0.10367892038E-01  0.15352993859E-01  0.51100000000E-03 0.  1.
         11    1    4    4    0    0 -0.64743386560E-01  0.85813412154E-01  0.30821438862E-01  0.11182964734E+00  0.51100000000E-03 0. -1.
</event>
<event>
 7    1  0.1111182E+005  0.1043930E+01  0.7957747E-01            NaN
         13   -1    0    0    0    0  0.00000000000E+00  0.00000000000E+00  0.74505805969E-08  0.10566000000E+00  0.10566000000E+00 0. -1.
     999900   -1    0    0    0    0 -0.00000000000E+00 -0.00000000000E+00 -0.74505805969E-08  0.93827000000E+00  0.93827000000E+00 0. -1.
     999902    2    1    2    0    0 -0.14754781148E-01  0.20944840437E-01  0.10667107685E-01  0.10161779353E+01  0.10157989068E+01 0.  0.
         14    1    1    2    0    0  0.14754781148E-01 -0.20944840437E-01 -0.10667107685E-01  0.27752064680E-01  0.00000000000E+00 0.  1.
     999901    1    3    3    0    0  0.81719829808E-01 -0.39754926522E-01 -0.42271453490E-01  0.88568925733E+00  0.88000000000E+00 0. -1.
        -11    1    3    3    0    0 -0.49230440186E-01  0.11320118502E-01  0.27859124685E-01  0.57690322178E-01  0.51100000000E-03 0.  1.
         11    1    3    3    0    0 -0.47244170771E-01  0.49379648457E-01  0.25079436490E-01  0.72798355814E-01  0.51100000000E-03 0. -1.
</event>
<event>
 8    1  0.1111182E+005  0.1043930E+01  0.7957747E-01            NaN
         13   -1    0    0    0    0  0.00000000000E+00  0.00000000000E+00  0.74505805969E-08  0.10566000000E+00  0.10566000000E+00 0. -1.
     999900   -1    0    0    0    0 -0.00000000000E+00 -0.00000000000E+00 -0.74505805969E-08  0.93827000000E+00  0.93827000000E+00 0. -1.
     999902    2    1    2    0    0 -0.15578306786E-01 -0.15489853304E-01  0.75526207747E-02  0.10206993892E+01  0.10204349964E+01 0.  0.
     999903    2    3    3    0    0  0.72856401898E-01  0.29250753134E-01  0.10178713314E+00  0.13013632973E+00  0.20277622812E-01 0.  0.
         14    1    1    2    0    0  0.15578306786E-01  0.15489853304E-01 -0.75526207747E-02  0.23230610803E-01  0.00000000000E+00 0.  1.
     999901    1    3    3    0    0 -0.88434708684E-01 -0.44740606438E-01 -0.94234512364E-01  0.89056305947E+00  0.88000000000E+00 0. -1.
        -11    1    4    4    0    0  0.30804124838E-01  0.16732643483E-01  0.30716821030E-01  0.46611797650E-01  0.51100000000E-03 0. -1.
         11    1    4    4    0    0  0.42052277060E-01  0.12518109651E-01  0.71070312109E-01  0.83524532082E-01  0.51100000000E-03 0.  1.
</event>
<event>
 8    1  0.1111182E+005  0.1043930E+01  0.7957747E-01            NaN
         13   -1    0    0    0    0  0.00000000000E+00  0.00000000000E+00  0.74505805969E-08  0.10566000000E+00  0.10566000000E+00 0.  1.
     999900   -1    0    0    0    0 -0.00000000000E+00 -0.00000000000E+00 -0.74505805969E-08  0.93827000000E+00  0.93827000000E+00 0.  1.
     999902    2    1    2    0    0 -0.10913393873E-01 -0.95757202400E-02  0.18315150563E-01  0.10205581938E+01  0.10202905398E+01 0.  0.
     999903    2    3    3    0    0  0.21018643936E-01  0.11501438771E+00 -0.50128823899E-01  0.12857897451E+00  0.18696548542E-01 0.  0.
         14    1    1    2    0    0  0.10913393873E-01  0.95757202400E-02 -0.18315150563E-01  0.23371806179E-01  0.00000000000E+00 0. -1.
     999901    1    3    3    0    0 -0.31932037810E-01 -0.12459010795E+00  0.68443974462E-01  0.89197921931E+00  0.88000000000E+00 0. -1.
        -11    1    4    4    0    0  0.22358811660E-01  0.72616020336E-01 -0.32163856227E-01  0.82509257884E-01  0.51100000000E-03 0. -1.
         11    1    4    4    0    0 -0.13401677233E-02  0.42398367376E-01 -0.17964967673E-01  0.46069716628E-01  0.51100000000E-03 0.  1.
</event>
<event>
 8    1  0.1111182E+005  0.1043930E+01  0.7957747E-01            NaN
         13   -1    0    0    0    0  0.00000000000E+00  0.00000000000E+00  0.74505805969E-08  0.10566000000E+00  0.10566000000E+00 0.  1.
     999900   -1    0    0    0    0 -0.00000000000E+00 -0.00000000000E+00 -0.74505805969E-08  0.93827000000E+00  0.93827000000E+00 0.  1.
     999902    2    1    2    0    0  0.22265705904E-01  0.38170052777E-02  0.23260514145E-02  0.10212200528E+01  0.10209675090E+01 0.  0.
     999903    2    3    3    0    0 -0.14505381668E-01 -0.12537902362E+00  0.27658179587E-01  0.13066660490E+00  0.19454590131E-01 0.  0.
         14    1    1    2    0    0 -0.22265705904E-01 -0.38170052777E-02 -0.23260514145E-02  0.22709947245E-01  0.00000000000E+00 0. -1.
     999901    1    3    3    0    0  0.36771087571E-01  0.12919602890E+00 -0.25332128172E-01  0.89055344785E+00  0.88000000000E+00 0. -1.
        -11    1    4    4    0    0 -0.10112966503E-01 -0.22023792061E-01  0.60641438644E-02  0.24987086066E-01  0.51100000000E-03 0.  1.
         11    1    4    4    0    0 -0.43924151643E-02 -0.10335523156E+00  0.21594035722E-01  0.10567951884E+00  0.51100000000E-03 0. -1.
</event>
<event>
 8    1  0.1111182E+005  0.1043930E+01  0.7957747E-01            NaN
         13   -1    0    0    0    0  0.00000000000E+00  0.00000000000E+00  0.74505805969E-08  0.10566000000E+00  0.10566000000E+00 0. -1.
     999900   -1    0    0    0    0 -0.00000000000E+00 -0.00000000000E+00 -0.74505805969E-08  0.93827000000E+00  0.93827000000E+00 0.  1.
     999902    2    1    2    0    0  0.21124305911E-02  0.20962264913E-03  0.29197115411E-01  0.10146558159E+01  0.10142334282E+01 0.  0.
     999903    2    3    3    0    0  0.42226751026E-01 -0.10041238829E+00  0.62977339224E-01  0.12737060175E+00  0.19783293692E-01 0.  0.
         14    1    1    2    0    0 -0.21124305911E-02 -0.20962264913E-03 -0.29197115411E-01  0.29274184071E-01  0.00000000000E+00 0.  1.
     999901    1    3    3    0    0 -0.40114320435E-01  0.10062201094E+00 -0.33780223813E-01  0.88728521418E+00  0.88000000000E+00 0. -1.
        -11    1    4    4    0    0  0.27189787444E-01 -0.82645832477E-01  0.44981898214E-01  0.97945140027E-01  0.51100000000E-03 0.  1.
         11    1    4    4    0    0  0.15036963582E-01 -0.17766555811E-01  0.17995441011E-01  0.29425461718E-01  0.51100000000E-03 0. -1.
</event>
<event>
 8    1  0.1111182E+005  0.1043930E+01  0.7957747E-01            NaN
         13   -1    0    0    0    0  0.00000000000E+00  0.00000000000E+00  0.74505805969E-08  0.10566000000E+00  0.10566000000E+00 0.  1.
     999900   -1    0    0    0    0 -0.00000000000E+00 -0.00000000000E+00 -0.74505805969E-08  0.93827000000E+00  0.93827000000E+00 0. -1.
     999902    2    1    2    0    0  0.33165523356E-02  0.12655879555E-01 -0.19610815875E-01  0.10203555455E+01  0.10200831752E+01 0.  0.
     999903    2    3    3    0    0  0.97031112633E-01 -0.49690930246E-01 -0.70966368061E-01  0.13170098028E+00  0.20608188755E-01 0.  0.
         14    1    1    2    0    0 -0.33165523356E-02 -0.12655879555E-01  0.19610815875E-01  0.23574454522E-01  0.00000000000E+00 0.  1.
     999901    1    3    3    0    0 -0.93714560297E-01  0.62346809802E-01  0.51355552185E-01  0.88865456520E+00  0.88000000000E+00 0. -1.
        -11    1    4    4    0    0  0.52957448739E-01 -0.38422837278E-01 -0.40580897520E-01  0.76992702030E-01  0.51100000000E-03 0. -1.
         11    1    4    4    0    0  0.44073663894E-01 -0.11268092969E-01 -0.30385470541E-01  0.54708278251E-01  0.51100000000E-03 0.  1.
</event>
<event>
 8    1  0.1111182E+005  0.1043930E+01  0.7957747E-01            NaN
         13   -1    0    0    0    0  0.00000000000E+00  0.00000000000E+00  0.74505805969E-08  0.10566000000E+00  0.10566000000E+00 0.  1.
     999900   -1    0    0    0    0 -0.00000000000E+00 -0.00000000000E+00 -0.74505805969E-08  0.93827000000E+00  0.93827000000E+00 0.  1.
     999902    2    1    2    0    0 -0.20126359211E-01 -0.12421974657E-01 -0.79198504836E-03  0.10202656169E+01  0.10199911401E+01 0.  0.
     999903    2    3    3    0    0 -0.96127710693E-02  0.71523100936E-01 -0.10617563584E+00  0.12994936680E+00  0.20139834908E-01 0.  0.
         14    1    1    2    0    0  0.20126359211E-01  0.12421974657E-01  0.79198504836E-03  0.23664383149E-01  0.00000000000E+00 0.  1.
     999901    1    3    3    0    0 -0.10513588142E-01 -0.83945075593E-01  0.10538365079E+00  0.89031625005E+00  0.88000000000E+00 0.  1.
        -11    1    4    4    0    0 -0.81700895593E-02  0.67582021160E-01 -0.87833846165E-01  0.11112661968E+00  0.51100000000E-03 0.  1.
         11    1    4    4    0    0 -0.14426815100E-02  0.39410797759E-02 -0.18341789676E-01  0.18822747123E-01  0.51100000000E-03 0. -1.
</event>
<event>
 8    1  0.1111182E+005  0.1043930E+01  0.7957747E-01            NaN
         13   -1    0    0    0    0  0.00000000000E+00  0.00000000000E+00  0.74505805969E-08  0.10566000000E+00  0.10566000000E+00 0.  1.
     999900   -1    0    0    0    0 -0.00000000000E+00 -0.00000000000E+00 -0.74505805969E-08  0.93827000000E+00  0.93827000000E+00 0.  1.
     999902    2    1    2    0    0  0.11367484666E-01 -0.20420385104E-01 -0.10582278529E-02  0.10205348791E+01  0.10202666846E+01 0.  0.
     999903    2    3    3    0    0  0.19530205823E-01 -0.12411691719E+00  0.40320443430E-01  0.13344311654E+00  0.19871817256E-01 0.  0.
         14    1    1    2    0    0 -0.11367484666E-01  0.20420385104E-01  0.10582278529E-02  0.23395120894E-01  0.00000000000E+00 0.  1.
     999901    1    3    3    0    0 -0.81627211561E-02  0.10369653208E+00 -0.41378671282E-01  0.88709176257E+00  0.88000000000E+00 0.  1.
        -11    1    4    4    0    0  0.44992054371E-02 -0.18236309161E-01 -0.94651688447E-03  0.18813900089E-01  0.51100000000E-03 0.  1.
         11    1    4    4    0    0  0.15031000385E-01 -0.10588060803E+00  0.41266960314E-01  0.11462921645E+00  0.51100000000E-03 0. -1.
</event>
<event>
 8    1  0.1111182E+005  0.1043930E+01  0.7957747E-01            NaN
         13   -1    0    0    0    0  0.00000000000E+00  0.00000000000E+00  0.74505805969E-08  0.10566000000E+00  0.10566000000E+00 0. -1.
     999900   -1    0    0    0    0 -0.00000000000E+00 -0.00000000000E+00 -0.74505805969E-08  0.93827000000E+00  0.93827000000E+00 0. -1.
     999902    2    1    2    0    0  0.46294431066E-02  0.20492061234E-01  0.25403841868E-02  0.10227684814E+01  0.10225495375E+01 0.  0.
     999903    2    3    3    0    0 -0.10175695774E+00  0.60733284083E-02  0.82495076743E-01  0.13264561405E+00  0.19951377722E-01 0.  0.
         14    1    1    2    0    0 -0.46294431066E-02 -0.20492061234E-01 -0.25403841868E-02  0.21161518587E-01  0.00000000000E+00 0.  1.
     999901    1    3    3    0    0  0.10638640085E+00  0.14418732826E-01 -0.79954692556E-01  0.89012286736E+00  0.88000000000E+00 0. -1.
        -11    1    4    4    0    0 -0.55630314422E-01  0.13116415722E-01  0.43363088466E-01  0.71745319055E-01  0.51100000000E-03 0. -1.
         11    1    4    4    0    0 -0.46126643320E-01 -0.70430873139E-02  0.39131988277E-01  0.60900294994E-01  0.51100000000E-03 0.  1.
</event>
<event>
 8    1  0.1111182E+005  0.1043930E+01  0.7957747E-01            NaN
         13   -1    0    0    0    0  0.00000000000E+00  0.00000000000E+00  0.74505805969E-08  0.10566000000E+00  0.10566000000E+00 0. -1.
     999900   -1    0    0    0    0 -0.00000000000E+00 -0.00000000000E+00 -0.74505805969E-08  0.93827000000E+00  0.93827000000E+00 0.  1.
     999902    2    1    2    0    0 -0.23138345935E-01 -0.36940082402E-02  0.34756055258E-02  0.10202422694E+01  0.10199672444E+01 0.  0.
     999903    2    3    3    0    0  0.80499010777E-01  0.47842768956E-01  0.85943104381E-01  0.12884021109E+00  0.21084627692E-01 0.  0.
         14    1    1    2    0    0  0.23138345935E-01  0.36940082402E-02 -0.34756055258E-02  0.23687730648E-01  0.00000000000E+00 0.  1.
     999901    1    3    3    0    0 -0.10363735671E+00 -0.51536777196E-01 -0.82467498855E-01  0.89140205826E+00  0.88000000000E+00 0.  1.
        -11    1    4    4    0    0  0.61749595893E-01  0.43739352395E-01  0.60045224950E-01  0.96601416662E-01  0.51100000000E-03 0. -1.
         11    1    4    4    0    0  0.18749414885E-01  0.41034165616E-02  0.25897879431E-01  0.32238794425E-01  0.51100000000E-03 0.  1.
</event>
<event>
 8    1  0.1111182E+005  0.1043930E+01  0.7957747E-01            NaN
         13   -1    0    0    0    0  0.00000000000E+00  0.00000000000E+00  0.74505805969E-08  0.10566000000E+00  0.10566000000E+00 0. -1.
     999900   -1    0    0    0    0 -0.00000000000E+00 -0.00000000000E+00 -0.74505805969E-08  0.93827000000E+00  0.93827000000E+00 0.  1.
     999902    2    1    2    0    0 -0.60844962938E-02 -0.14912715020E-01  0.17041634283E-01  0.10204816000E+01  0.10202121683E+01 0.  0.
     999903    2    3    3    0    0 -0.84386841319E-03 -0.13133589901E+00 -0.76111755019E-03  0.13261969635E+00  0.18373189074E-01 0.  0.
         14    1    1    2    0    0  0.60844962938E-02  0.14912715020E-01 -0.17041634283E-01  0.23448400019E-01  0.00000000000E+00 0.  1.
     999901    1    3    3    0    0 -0.52406278806E-02  0.11642318399E+00  0.17802751834E-01  0.88786190363E+00  0.88000000000E+00 0. -1.
        -11    1    4    4    0    0 -0.87345607020E-02 -0.71160338929E-01  0.34649187966E-02  0.71779893915E-01  0.51100000000E-03 0.  1.
         11    1    4    4    0    0  0.78906922888E-02 -0.60175560080E-01 -0.42260363468E-02  0.60839802432E-01  0.51100000000E-03 0. -1.
</event>
<event>
 8    1  0.1111182E+005  0.1043930E+01  0.7957747E-01            NaN
         13   -1    0    0    0    0  0.00000000000E+00  0.00000000000E+00  0.74505805969E-08  0.10566000000E+00  0.10566000000E+00 0. -1.
     999900   -1    0    0    0    0 -0.00000000000E+00 -0.00000000000E+00 -0.74505805969E-08  0.93827000000E+00  0.93827000000E+00 0. -1.
     999902    2    1    2    0    0 -0.23007094100E-01 -0.31546152255E-02  0.70446840833E-02  0.10196626238E+01  0.10193738081E+01 0.  0.
     999903    2    3    3    0    0 -0.79689549959E-01  0.94693178273E-01  0.44344006187E-01  0.13164329349E+00  0.68076024478E-02 0.  0.
         14    1    1    2    0    0  0.23007094100E-01  0.31546152255E-02 -0.70446840833E-02  0.24267376248E-01  0.00000000000E+00 0.  1.
     999901    1    3    3    0    0  0.56682455860E-01 -0.97847793499E-01 -0.37299322104E-01  0.88801933027E+00  0.88000000000E+00 0. -1.
        -11    1    4    4    0    0 -0.23571801390E-01  0.31701693593E-01  0.16317689906E-01  0.42745237423E-01  0.51100000000E-03 0. -1.
         11    1    4    4    0    0 -0.56117748569E-01  0.62991484680E-01  0.28026316281E-01  0.88898056064E-01  0.51100000000E-03 0.  1.
</event>
<event>
 8    1  0.1111182E+005  0.1043930E+01  0.7957747E-01            NaN
         13   -1    0    0    0    0  0.00000000000E+00  0.00000000000E+00  0.74505805969E-08  0.10566000000E+00  0.10566000000E+00 0.  1.
     999900   -1    0    0    0    0 -0.00000000000E+00 -0.00000000000E+00 -0.74505805969E-08  0.93827000000E+00  0.93827000000E+00 0. -1.
     999902    2    1    2    0    0 -0.20995722588E-03 -0.19443520228E-01 -0.13535501342E-01  0.10202381373E+01  0.10199630152E+01 0.  0.
     999903    2    3    3    0    0 -0.77152506367E-01  0.66011391107E-01  0.75705516596E-01  0.12828149206E+00  0.20366712215E-01 0.  0.
         14    1    1    2    0    0  0.20995722588E-03  0.19443520228E-01  0.13535501342E-01  0.23691862685E-01  0.00000000000E+00 0. -1.
     999901    1    3    3    0    0  0.76942549141E-01 -0.85454911335E-01 -0.89241017938E-01  0.89195664526E+00  0.88000000000E+00 0. -1.
        -11    1    4    4    0    0 -0.48149660728E-01  0.28936007990E-01  0.46097296856E-01  0.72669830639E-01  0.51100000000E-03 0. -1.
         11    1    4    4    0    0 -0.29002845639E-01  0.37075383116E-01  0.29608219741E-01  0.55611661417E-01  0.51100000000E-03 0.  1.
</event>
<event>
 8    1  0.1111182E+005  0.1043930E+01  0.7957747E-01            NaN
         13   -1    0    0    0    0  0.00000000000E+00  0.00000000000E+00  0.74505805969E-08  0.10566000000E+00  0.10566000000E+00 0. -1.
     999900   -1    0    0    0    0 -0.00000000000E+00 -0.00000000000E+00 -0.74505805969E-08  0.93827000000E+00  0.93827000000E+00 0.  1.
     999902    2    1    2    0    0  0.22295992607E-01  0.53526934811E-03  0.74495284418E-02  0.10204163173E+01  0.10201453658E+01 0.  0.
     999903    2    3    3    0    0  0.59525491454E-02 -0.29464402941E-01  0.12668209694E+00  0.13171867814E+00  0.19946744183E-01 0.  0.
         14    1    1    2    0    0 -0.22295992607E-01 -0.53526934811E-03 -0.74495284418E-02  0.23513682689E-01  0.00000000000E+00 0.  1.
     999901    1    3    3    0    0  0.16343443462E-01  0.29999672289E-01 -0.11923256850E+00  0.88869763917E+00  0.88000000000E+00 0.  1.
        -11    1    4    4    0    0 -0.58371747655E-02 -0.18751391619E-01  0.80542899823E-01  0.82904204536E-01  0.51100000000E-03 0. -1.
         11    1    4    4    0    0  0.11789723911E-01 -0.10713011322E-01  0.46139197116E-01  0.48814473601E-01  0.51100000000E-03 0.  1.
</event>
<event>
 8    1  0.1111182E+005  0.1043930E+01  0.7957747E-01            NaN
         13   -1    0    0    0    0  0.00000000000E+00  0.00000000000E+00  0.74505805969E-08  0.10566000000E+00  0.10566000000E+00 0. -1.
     999900   -1    0    0    0    0 -0.00000000000E+00 -0.00000000000E+00 -0.74505805969E-08  0.93827000000E+00  0.93827000000E+00 0.  1.
     999902    2    1    2    0    0  0.55907619204E-02  0.14609217388E-02 -0.24116153790E-01  0.10191312140E+01  0.10188294517E+01 0.  0.
     999903    2    3    3    0    0  0.84274980073E-01 -0.92487510105E-01  0.27026246272E-01  0.12916882208E+00  0.17261367785E-01 0.  0.
         14    1    1    2    0    0 -0.55907619204E-02 -0.14609217388E-02  0.24116153790E-01  0.24798785954E-01  0.00000000000E+00 0. -1.
     999901    1    3    3    0    0 -0.78684218153E-01  0.93948431844E-01 -0.51142400062E-01  0.88996239197E+00  0.88000000000E+00 0.  1.
        -11    1    4    4    0    0  0.15725637334E-01 -0.26499072644E-01  0.25708829780E-02  0.30925185219E-01  0.51100000000E-03 0. -1.
         11    1    4    4    0    0  0.68549342739E-01 -0.65988437461E-01  0.24455363294E-01  0.98243636859E-01  0.51100000000E-03 0.  1.
</event>
<event>
 8    1  0.1111182E+005  0.1043930E+01  0.7957747E-01            NaN
         13   -1    0    0    0    0  0.00000000000E+00  0.00000000000E+00  0.74505805969E-08  0.10566000000E+00  0.10566000000E+00 0. -1.
     999900   -1    0    0    0    0 -0.00000000000E+00 -0.00000000000E+00 -0.74505805969E-08  0.93827000000E+00  0.93827000000E+00 0.  1.
     999902    2    1    2    0    0  0.63712455078E-02 -0.22888112743E-02 -0.22846152888E-01  0.10201019046E+01  0.10198235719E+01 0.  0.
     999903    2    3    3    0    0 -0.48539138352E-01  0.11641068880E+00 -0.25955373275E-01  0.13043096052E+00  0.20761927658E-01 0.  0.
         14    1    1    2    0    0 -0.63712455078E-02  0.22888112743E-02  0.22846152888E-01  0.23828095353E-01  0.00000000000E+00 0. -1.
     999901    1    3    3    0    0  0.54910383860E-01 -0.11869950008E+00  0.31092203870E-02  0.88967094413E+00  0.88000000000E+00 0.  1.
        -11    1    4    4    0    0 -0.93666060282E-02  0.48434662361E-01 -0.86288885983E-02  0.50083616742E-01  0.51100000000E-03 0.  1.
         11    1    4    4    0    0 -0.39172532324E-01  0.67976026443E-01 -0.17326484677E-01  0.80347343777E-01  0.51100000000E-03 0. -1.
</event>
<event>
 8    1  0.1111182E+005  0.1043930E+01  0.7957747E-01            NaN
         13   -1    0    0    0    0  0.00000000000E+00  0.00000000000E+00  0.74505805969E-08  0.10566000000E+00  0.10566000000E+00 0.  1.
     999900   -1    0    0    0    0 -0.00000000000E+00 -0.00000000000E+00 -0.74505805969E-08  0.93827000000E+00  0.93827000000E+00 0. -1.
     999902    2    1    2    0    0  0.13071080974E-01 -0.15582615583E-01 -0.11564122644E-01  0.10205334191E+01  0.10202651908E+01 0.  0.
     999903    2    3    3    0    0  0.30903972613E-01  0.11828834309E+00  0.35508206305E-01  0.12898686968E+00  0.20726606075E-01 0.  0.
         14    1    1    2    0    0 -0.13071080974E-01  0.15582615583E-01  0.11564122644E-01  0.23396580921E-01  0.00000000000E+00 0.  1.
     999901    1    3    3    0    0 -0.17832891639E-01 -0.13387095867E+00 -0.47072328949E-01  0.89154654940E+00  0.88000000000E+00 0. -1.
        -11    1    4    4    0    0  0.23468170240E-01  0.49193552413E-01  0.15438301166E-01  0.56651238974E-01  0.51100000000E-03 0.  1.
         11    1    4    4    0    0  0.74358023731E-02  0.69094790678E-01  0.20069905139E-01  0.72335630702E-01  0.51100000000E-03 0. -1.
</event>
<event>
 8    1  0.1111182E+005  0.1043930E+01  0.7957747E-01            NaN
         13   -1    0    0    0    0  0.00000000000E+00  0.00000000000E+00  0.74505805969E-08  0.10566000000E+00  0.10566000000E+00 0. -1.
     999900   -1    0    0    0    0 -0.00000000000E+00 -0.00000000000E+00 -0.74505805969E-08  0.93827000000E+00  0.93827000000E+00 0.  1.
     999902    2    1    2    0    0  0.70078737475E-02  0.15297453782E-01 -0.15945772587E-01  0.10207483251E+01  0.10204850578E+01 0.  0.
     999903    2    3    3    0    0  0.40860850331E-01 -0.99021722747E-01 -0.73087808540E-01  0.13087186717E+00  0.17626888382E-01 0.  0.
         14    1    1    2    0    0 -0.70078737475E-02 -0.15297453782E-01  0.15945772587E-01  0.23181674876E-01  0.00000000000E+00 0. -1.
     999901    1    3    3    0    0 -0.33852976584E-01  0.11431917653E+00  0.57142035953E-01  0.88987645795E+00  0.88000000000E+00 0. -1.
        -11    1    4    4    0    0  0.16406784419E-01 -0.48750565824E-01 -0.44815576884E-01  0.68223876286E-01  0.51100000000E-03 0. -1.
         11    1    4    4    0    0  0.24454065912E-01 -0.50271156923E-01 -0.28272231656E-01  0.62647990884E-01  0.51100000000E-03 0.  1.
</event>
<event>
 8    1  0.1111182E+005  0.1043930E+01  0.7957747E-01            NaN
         13   -1    0    0    0    0  0.00000000000E+00  0.00000000000E+00  0.74505805969E-08  0.10566000000E+00  0.10566000000E+00 0.  1.
     999900   -1    0    0    0    0 -0.00000000000E+00 -0.00000000000E+00 -0.74505805969E-08  0.93827000000E+00  0.93827000000E+00 0.  1.
     999902    2    1    2    0    0 -0.92725611563E-02  0.87588901586E-02 -0.20181829233E-01  0.10200552272E+01  0.10197757899E+01 0.  0.
     999903    2    3    3    0    0 -0.26215234510E-01  0.11644960191E+00  0.49025783375E-01  0.13063179750E+00  0.20332013580E-01 0.  0.
         14    1    1    2    0    0  0.92725611563E-02 -0.87588901586E-02  0.20181829233E-01  0.23874772845E-01  0.00000000000E+00 0.  1.
     999901    1    3    3    0    0  0.16942673354E-01 -0.10769071175E+00 -0.69207612607E-01  0.88942342966E+00  0.88000000000E+00 0.  1.
        -11    1    4    4    0    0 -0.11927958883E-01  0.55026800115E-01  0.34090188323E-01  0.65822693617E-01  0.51100000000E-03 0. -1.
         11    1    4    4    0    0 -0.14287275627E-01  0.61422801798E-01  0.14935595052E-01  0.64809103883E-01  0.51100000000E-03 0.  1.
</event>
<event>
 8    1  0.1111182E+005  0.1043930E+01  0.7957747E-01            NaN
         13   -1    0    0    0    0  0.00000000000E+00  0.00000000000E+00  0.74505805969E-08  0.10566000000E+00  0.10566000000E+00 0. -1.
     999900   -1    0    0    0    0 -0.00000000000E+00 -0.00000000000E+00 -0.74505805969E-08  0.93827000000E+00  0.93827000000E+00 0.  1.
     999902    2    1    2    0    0  0.15071143690E-01 -0.11116681962E-01  0.14158478199E-01  0.10204527239E+01  0.10201826205E+01 0.  0.
     999903    2    3    3    0    0  0.66620248786E-01  0.10755652348E+00 -0.23283289974E-01  0.13020414850E+00  0.20108341672E-01 0.  0.
         14    1    1    2    0    0 -0.15071143690E-01  0.11116681962E-01 -0.14158478199E-01  0.23477276138E-01  0.00000000000E+00 0.  1.
     999901    1    3    3    0    0 -0.51549105096E-01 -0.11867320544E+00  0.37441768173E-01  0.89024857536E+00  0.88000000000E+00 0.  1.
        -11    1    4    4    0    0  0.46976463886E-01  0.57118394038E-01 -0.12359617549E-01  0.74982133630E-01  0.51100000000E-03 0. -1.
         11    1    4    4    0    0  0.19643784900E-01  0.50438129437E-01 -0.10923672426E-01  0.55222014872E-01  0.51100000000E-03 0.  1.
</event>
<event>
 8    1  0.1111182E+005  0.1043930E+01  0.7957747E-01            NaN
         13   -1    0    0    0    0  0.00000000000E+00  0.00000000000E+00  0.74505805969E-08  0.10566000000E+00  0.10566000000E+00 0. -1.
     999900   -1    0    0    0    0 -0.00000000000E+00 -0.00000000000E+00 -0.74505805969E-08  0.93827000000E+00  0.93827000000E+00 0. -1.
     999902    2    1    2    0    0 -0.78147229732E-02  0.13322910920E-01 -0.15708942823E-01  0.10218995498E+01  0.10216620523E+01 0.  0.
     999903    2    3    3    0    0  0.25504249821E-01  0.12946470975E+00 -0.51169056944E-02  0.13358020261E+00  0.20147207599E-01 0.  0.
         14    1    1    2    0    0  0.78147229732E-02 -0.13322910920E-01  0.15708942823E-01  0.22030450180E-01  0.00000000000E+00 0.  1.
     999901    1    3    3    0    0 -0.33318972794E-01 -0.11614179883E+00 -0.10592037128E-01  0.88831934721E+00  0.88000000000E+00 0.  1.
        -11    1    4    4    0    0  0.14871567244E-01  0.58473505522E-01  0.71340101695E-02  0.60757465241E-01  0.51100000000E-03 0.  1.
         11    1    4    4    0    0  0.10632682577E-01  0.70991204230E-01 -0.12250915864E-01  0.72822737365E-01  0.51100000000E-03 0. -1.
</event>
<event>
 8    1  0.1111182E+005  0.1043930E+01  0.7957747E-01            NaN
         13   -1    0    0    0    0  0.00000000000E+00  0.00000000000E+00  0.74505805969E-08  0.10566000000E+00  0.10566000000E+00 0. -1.
     999900   -1    0    0    0    0 -0.00000000000E+00 -0.00000000000E+00 -0.74505805969E-08  0.93827000000E+00  0.93827000000E+00 0. -1.
     999902    2    1    2    0    0 -0.15159735324E-01 -0.13720551643E-01  0.10408994200E-01  0.10209861932E+01  0.10207283617E+01 0.  0.
     999903    2    3    3    0    0  0.56255476781E-02 -0.18065276395E-01 -0.12711164323E+00  0.13005250856E+00  0.19957057393E-01 0.  0.
         14    1    1    2    0    0  0.15159735324E-01  0.13720551643E-01 -0.10408994200E-01  0.22943806849E-01  0.00000000000E+00 0.  1.
     999901    1    3    3    0    0 -0.20785283003E-01  0.43447247521E-02  0.13752063743E+00  0.89093368459E+00  0.88000000000E+00 0.  1.
        -11    1    4    4    0    0  0.74983289385E-02 -0.21918885808E-01 -0.10862714426E+00  0.11107105871E+00  0.51100000000E-03 0.  1.
         11    1    4    4    0    0 -0.18727812603E-02  0.38536094133E-02 -0.18484498968E-01  0.18981449846E-01  0.51100000000E-03 0. -1.
</event>
<event>
 8    1  0.1111182E+005  0.1043930E+01  0.7957747E-01            NaN
         13   -1    0    0    0    0  0.00000000000E+00  0.00000000000E+00  0.74505805969E-08  0.10566000000E+00  0.10566000000E+00 0. -1.
     999900   -1    0    0    0    0 -0.00000000000E+00 -0.00000000000E+00 -0.74505805969E-08  0.93827000000E+00  0.93827000000E+00 0. -1.
     999902    2    1    2    0    0  0.11568860480E-01 -0.17016836504E-01  0.10418885282E-01  0.10208656459E+01  0.10206050669E+01 0.  0.
     999903    2    3    3    0    0 -0.29752908853E-01  0.60492540475E-01  0.11063927270E+00  0.13083232174E+00  0.18206172323E-01 0.  0.
         14    1    1    2    0    0 -0.11568860480E-01  0.17016836504E-01 -0.10418885282E-01  0.23064354054E-01  0.00000000000E+00 0.  1.
     999901    1    3    3    0    0  0.41321769333E-01 -0.77509376979E-01 -0.10022038742E+00  0.89003332420E+00  0.88000000000E+00 0. -1.
        -11    1    4    4    0    0 -0.11813819777E-01  0.41669031690E-01  0.61310070052E-01  0.75067039042E-01  0.51100000000E-03 0.  1.
         11    1    4    4    0    0 -0.17939089076E-01  0.18823508785E-01  0.49329202647E-01  0.55765282700E-01  0.51100000000E-03 0. -1.
</event>
<event>
 8    1  0.1111182E+005  0.1043930E+01  0.7957747E-01            NaN
         13   -1    0    0    0    0  0.00000000000E+00  0.00000000000E+00  0.74505805969E-08  0.10566000000E+00  0.10566000000E+00 0. -1.
     999900   -1    0    0    0    0 -0.00000000000E+00 -0.00000000000E+00 -0.74505805969E-08  0.93827000000E+00  0.93827000000E+00 0.  1.
     999902    2    1    2    0    0 -0.47498896709E-02 -0.60084929290E-02 -0.23878670493E-01  0.10188530316E+01  0.10185443759E+01 0.  0.
     999903    2    3    3    0    0 -0.13232368496E-01 -0.56698395412E-01 -0.11722416812E+00  0.13242491800E+00  0.20125846522E-01 0.  0.
         14    1    1    2    0    0  0.47498896709E-02  0.60084929290E-02  0.23878670493E-01  0.25076968391E-01  0.00000000000E+00 0. -1.
     999901    1    3    3    0    0  0.84824788250E-02  0.50689902483E-01  0.93345497629E-01  0.88642811360E+00  0.88000000000E+00 0. -1.
        -11    1    4    4    0    0  0.92863695817E-03 -0.37410139442E-01 -0.65661304323E-01  0.75578098058E-01  0.51100000000E-03 0.  1.
         11    1    4    4    0    0 -0.14161005454E-01 -0.19288255970E-01 -0.51562863799E-01  0.56846819946E-01  0.51100000000E-03 0. -1.
</event>
<event>
 8    1  0.1111182E+005  0.1043930E+01  0.7957747E-01            NaN
         13   -1    0    0    0    0  0.00000000000E+00  0.00000000000E+00  0.74505805969E-08  0.10566000000E+00  0.10566000000E+00 0.  1.
     999900   -1    0    0    0    0 -0.00000000000E+00 -0.00000000000E+00 -0.74505805969E-08  0.93827000000E+00  0.93827000000E+00 0.  1.
     999902    2    1    2    0    0  0.28174028215E-01 -0.87521349927E-02 -0.48381290904E-02  0.10140337925E+01  0.10135929898E+01 0.  0.
     999903    2    3    3    0    0 -0.22663555946E-02 -0.10783894098E+00  0.60739448229E-01  0.12552648762E+00  0.20814537336E-01 0.  0.
         14    1    1    2    0    0 -0.28174028215E-01  0.87521349927E-02  0.48381290904E-02  0.29896207550E-01  0.00000000000E+00 0. -1.
     999901    1    3    3    0    0  0.30440383809E-01  0.99086805985E-01 -0.65577577319E-01  0.88850730483E+00  0.88000000000E+00 0.  1.
        -11    1    4    4    0    0  0.23636657117E-02 -0.20607931665E-01  0.21117433432E-01  0.29605419755E-01  0.51100000000E-03 0. -1.
         11    1    4    4    0    0 -0.46300213063E-02 -0.87231009314E-01  0.39622014796E-01  0.95921067867E-01  0.51100000000E-03 0.  1.
</event>
<event>
 8    1  0.1111182E+005  0.1043930E+01  0.7957747E-01            NaN
         13   -1    0    0    0    0  0.00000000000E+00  0.00000000000E+00  0.74505805969E-08  0.10566000000E+00  0.10566000000E+00 0.  1.
     999900   -1    0    0    0    0 -0.00000000000E+00 -0.00000000000E+00 -0.74505805969E-08  0.93827000000E+00  0.93827000000E+00 0.  1.
     999902    2    1    2    0    0  0.15750435674E-01  0.62087714819E-02 -0.15558338229E-01  0.10209368063E+01  0.10206778510E+01 0.  0.
     999903    2    3    3    0    0  0.30590036320E-01 -0.12052612668E+00  0.33949519707E-01  0.13035667171E+00  0.19442079029E-01 0.  0.
         14    1    1    2    0    0 -0.15750435674E-01 -0.62087714819E-02  0.15558338229E-01  0.22993193682E-01  0.00000000000E+00 0.  1.
     999901    1    3    3    0    0 -0.14839600646E-01  0.12673489816E+00 -0.49507857936E-01  0.89058013461E+00  0.88000000000E+00 0.  1.
        -11    1    4    4    0    0  0.17589838185E-01 -0.33304849186E-01  0.10636127685E-01  0.39140819100E-01  0.51100000000E-03 0. -1.
         11    1    4    4    0    0  0.13000198135E-01 -0.87221277493E-01  0.23313392022E-01  0.91215852611E-01  0.51100000000E-03 0.  1.
</event>
<event>
 8    1  0.1111182E+005  0.1043930E+01  0.7957747E-01            NaN
         13   -1    0    0    0    0  0.00000000000E+00  0.00000000000E+00  0.74505805969E-08  0.10566000000E+00  0.10566000000E+00 0. -1.
     999900   -1    0    0    0    0 -0.00000000000E+00 -0.00000000000E+00 -0.74505805969E-08  0.93827000000E+00  0.93827000000E+00 0.  1.
     999902    2    1    2    0    0  0.26311411508E-02 -0.19533475549E-01  0.12801928972E-01  0.10204274692E+01  0.10201567776E+01 0.  0.
     999903    2    3    3    0    0  0.39551759807E-01 -0.11884208502E+00 -0.38398907014E-01  0.13259479483E+00  0.20472437094E-01 0.  0.
         14    1    1    2    0    0 -0.26311411508E-02  0.19533475549E-01 -0.12801928972E-01  0.23502530846E-01  0.00000000000E+00 0.  1.
     999901    1    3    3    0    0 -0.36920618657E-01  0.99308609468E-01  0.51200835986E-01  0.88783267433E+00  0.88000000000E+00 0. -1.
        -11    1    4    4    0    0  0.21280531783E-01 -0.87092359046E-01 -0.21226488680E-01  0.92134493974E-01  0.51100000000E-03 0.  1.
         11    1    4    4    0    0  0.18271228025E-01 -0.31749725970E-01 -0.17172418334E-01  0.40460300853E-01  0.51100000000E-03 0. -1.
</event>
<event>
 8    1  0.1111182E+005  0.1043930E+01  0.7957747E-01            NaN
         13   -1    0    0    0    0  0.00000000000E+00  0.00000000000E+00  0.74505805969E-08  0.10566000000E+00  0.10566000000E+00 0.  1.
     999900   -1    0    0    0    0 -0.00000000000E+00 -0.00000000000E+00 -0.74505805969E-08  0.93827000000E+00  0.93827000000E+00 0. -1.
     999902    2    1    2    0    0  0.48108787856E-02  0.19005379964E-01  0.69726510807E-02  0.10231221437E+01  0.10229105308E+01 0.  0.
     999903    2    3    3    0    0  0.53689379025E-01 -0.52890817599E-01  0.10758755296E+00  0.13313252041E+00  0.21660988737E-01 0.  0.
         14    1    1    2    0    0 -0.48108787856E-02 -0.19005379964E-01 -0.69726510807E-02  0.20807856338E-01  0.00000000000E+00 0. -1.
     999901    1    3    3    0    0 -0.48878500240E-01  0.71896197563E-01 -0.10061490188E+00  0.88998962325E+00  0.88000000000E+00 0.  1.
        -11    1    4    4    0    0  0.26579456730E-01 -0.22291662597E-01  0.67394491385E-01  0.75800160497E-01  0.51100000000E-03 0.  1.
         11    1    4    4    0    0  0.27109922295E-01 -0.30599155002E-01  0.40193061577E-01  0.57332359916E-01  0.51100000000E-03 0. -1.
</event>
<event>
 8    1  0.1111182E+005  0.1043930E+01  0.7957747E-01            NaN
         13   -1    0    0    0    0  0.00000000000E+00  0.00000000000E+00  0.74505805969E-08  0.10566000000E+00  0.10566000000E+00 0.  1.
     999900   -1    0    0    0    0 -0.00000000000E+00 -0.00000000000E+00 -0.74505805969E-08  0.93827000000E+00  0.93827000000E+00 0. -1.
     999902    2    1    2    0    0  0.12681190079E-01  0.99122211755E-02  0.17050385308E-01  0.10204826046E+01  0.10202131963E+01 0.  0.
     999903    2    3    3    0    0  0.80549140950E-01  0.25305191629E-02 -0.10003256155E+00  0.13010686107E+00  0.20657063951E-01 0.  0.
         14    1    1    2    0    0 -0.12681190079E-01 -0.99122211755E-02 -0.17050385308E-01  0.23447395369E-01  0.00000000000E+00 0. -1.
     999901    1    3    3    0    0 -0.67867950871E-01  0.73817020125E-02  0.11708294686E+00  0.89037574356E+00  0.88000000000E+00 0.  1.
        -11    1    4    4    0    0  0.60233122706E-01 -0.66387725570E-02 -0.68070940531E-01  0.91137349302E-01  0.51100000000E-03 0. -1.
         11    1    4    4    0    0  0.20316018244E-01  0.91692917199E-02 -0.31961621021E-01  0.38969511765E-01  0.51100000000E-03 0.  1.
</event>
<event>
 8    1  0.1111182E+005  0.1043930E+01  0.7957747E-01            NaN
         13   -1    0    0    0    0  0.00000000000E+00  0.00000000000E+00  0.74505805969E-08  0.10566000000E+00  0.10566000000E+00 0.  1.
     999900   -1    0    0    0    0 -0.00000000000E+00 -0.00000000000E+00 -0.74505805969E-08  0.93827000000E+00  0.93827000000E+00 0. -1.
     999902    2    1    2    0    0 -0.95820790486E-02 -0.13028994829E-01 -0.16818594953E-01  0.10205968459E+01  0.10203300867E+01 0.  0.
     999903    2    3    3    0    0  0.11375458796E+00 -0.46273101147E-01 -0.41851146177E-01  0.13102181663E+00  0.18272707104E-01 0.  0.
         14    1    1    2    0    0  0.95820790486E-02  0.13028994829E-01  0.16818594953E-01  0.23333154124E-01  0.00000000000E+00 0.  1.
     999901    1    3    3    0    0 -0.12333666701E+00  0.33244106318E-01  0.25032551224E-01  0.88957502924E+00  0.88000000000E+00 0.  1.
        -11    1    4    4    0    0  0.76884114072E-01 -0.38098241308E-01 -0.23145400996E-01  0.88874145259E-01  0.51100000000E-03 0.  1.
         11    1    4    4    0    0  0.36870473891E-01 -0.81748598392E-02 -0.18705745182E-01  0.42147671372E-01  0.51100000000E-03 0. -1.
</event>
<event>
 8    1  0.1111182E+005  0.1043930E+01  0.7957747E-01            NaN
         13   -1    0    0    0    0  0.00000000000E+00  0.00000000000E+00  0.74505805969E-08  0.10566000000E+00  0.10566000000E+00 0. -1.
     999900   -1    0    0    0    0 -0.00000000000E+00 -0.00000000000E+00 -0.74505805969E-08  0.93827000000E+00  0.93827000000E+00 0. -1.
     999902    2    1    2    0    0 -0.77443325722E-02  0.16152534923E-01 -0.36195727825E-02  0.10256548699E+01  0.10254920438E+01 0.  0.
     999903    2    3    3    0    0  0.15421841425E-01  0.41200230995E-01 -0.12744570389E+00  0.13633098662E+00  0.20209855167E-01 0.  0.
         14    1    1    2    0    0  0.77443325722E-02 -0.16152534923E-01  0.36195727825E-02  0.18275130056E-01  0.00000000000E+00 0.  1.
     999901    1    3    3    0    0 -0.23166173997E-01 -0.25047696072E-01  0.12382613111E+00  0.88932388332E+00  0.88000000000E+00 0.  1.
        -11    1    4    4    0    0  0.56924736412E-02  0.32828076755E-01 -0.10801438774E+00  0.11303740956E+00  0.51100000000E-03 0. -1.
         11    1    4    4    0    0  0.97293677841E-02  0.83721542400E-02 -0.19431316156E-01  0.23293577068E-01  0.51100000000E-03 0.  1.
</event>
<event>
 8    1  0.1111182E+005  0.1043930E+01  0.7957747E-01            NaN
         13   -1    0    0    0    0  0.00000000000E+00  0.00000000000E+00  0.74505805969E-08  0.10566000000E+00  0.10566000000E+00 0. -1.
     999900   -1    0    0    0    0 -0.00000000000E+00 -0.00000000000E+00 -0.74505805969E-08  0.93827000000E+00  0.93827000000E+00 0. -1.
     999902    2    1    2    0    0  0.54225641491E-02  0.16213967920E-01 -0.13859783999E-01  0.10219211252E+01  0.10216840977E+01 0.  0.
     999903    2    3    3    0    0  0.28095552598E-01 -0.96495755335E-01  0.78746061156E-01  0.12962443201E+00  0.22377675297E-01 0.  0.
         14    1    1    2    0    0 -0.54225641491E-02 -0.16213967920E-01  0.13859783999E-01  0.22008874804E-01  0.00000000000E+00 0. -1.
     999901    1    3    3    0    0 -0.22672988449E-01  0.11270972326E+00 -0.92605845154E-01  0.89229669319E+00  0.88000000000E+00 0. -1.
        -11    1    4    4    0    0 -0.38831966112E-02 -0.97659030843E-02  0.83386864667E-02  0.13425605832E-01  0.51100000000E-03 0. -1.
         11    1    4    4    0    0  0.31978749209E-01 -0.86729852251E-01  0.70407374689E-01  0.11619882617E+00  0.51100000000E-03 0.  1.
</event>
<event>
 8    1  0.1111182E+005  0.1043930E+01  0.7957747E-01            NaN
         13   -1    0    0    0    0  0.00000000000E+00  0.00000000000E+00  0.74505805969E-08  0.10566000000E+00  0.10566000000E+00 0. -1.
     999900   -1    0    0    0    0 -0.00000000000E+00 -0.00000000000E+00 -0.74505805969E-08  0.93827000000E+00  0.93827000000E+00 0.  1.
     999902    2    1    2    0    0  0.13145763409E-01  0.16763061046E-01 -0.68698304110E-02  0.10215468393E+01  0.10213015907E+01 0.  0.
     999903    2    3    3    0    0 -0.12760541662E+00 -0.18230107754E-02  0.14182507280E-01  0.12991937360E+00  0.19784701283E-01 0.  0.
         14    1    1    2    0    0 -0.13145763409E-01 -0.16763061046E-01  0.68698304110E-02  0.22383160659E-01  0.00000000000E+00 0.  1.
     999901    1    3    3    0    0  0.14075118003E+00  0.18586071822E-01 -0.21052337691E-01  0.89162746574E+00  0.88000000000E+00 0. -1.
        -11    1    4    4    0    0 -0.45263453498E-01 -0.74022329713E-02 -0.15823588521E-02  0.45894860889E-01  0.51100000000E-03 0. -1.
         11    1    4    4    0    0 -0.82341963120E-01  0.55792221959E-02  0.15764866132E-01  0.84024512708E-01  0.51100000000E-03 0.  1.
</event>
<event>
 8    1  0.1111182E+005  0.1043930E+01  0.7957747E-01            NaN
         13   -1    0    0    0    0  0.00000000000E+00  0.00000000000E+00  0.74505805969E-08  0.10566000000E+00  0.10566000000E+00 0.  1.
     999900   -1    0    0    0    0 -0.00000000000E+00 -0.00000000000E+00 -0.74505805969E-08  0.93827000000E+00  0.93827000000E+00 0.  1.
     999902    2    1    2    0    0 -0.43864817017E-02  0.14992155810E-01 -0.14899412913E-01  0.10223430025E+01  0.10221150700E+01 0.  0.
     999903    2    3    3    0    0  0.61581262346E-02 -0.27135362551E-01 -0.12950002617E+00  0.13385033670E+00  0.19271882000E-01 0.  0.
         14    1    1    2    0    0  0.43864817017E-02 -0.14992155810E-01  0.14899412913E-01  0.21586997538E-01  0.00000000000E+00 0.  1.
     999901    1    3    3    0    0 -0.10544607936E-01  0.42127518361E-01  0.11460061326E+00  0.88849266577E+00  0.88000000000E+00 0. -1.
        -11    1    4    4    0    0  0.85023319578E-02 -0.41719933630E-02 -0.23047002818E-01  0.24922291974E-01  0.51100000000E-03 0.  1.
         11    1    4    4    0    0 -0.23442057232E-02 -0.22963369188E-01 -0.10645302335E+00  0.10892804472E+00  0.51100000000E-03 0. -1.
</event>
<event>
 8    1  0.1111182E+005  0.1043930E+01  0.7957747E-01            NaN
         13   -1    0    0    0    0  0.00000000000E+00  0.00000000000E+00  0.74505805969E-08  0.10566000000E+00  0.10566000000E+00 0. -1.
     999900   -1    0    0    0    0 -0.00000000000E+00 -0.00000000000E+00 -0.74505805969E-08  0.93827000000E+00  0.93827000000E+00 0.  1.
     999902    2    1    2    0    0 -0.19245371462E-01  0.53391442094E-02 -0.12615050489E-01  0.10203073354E+01  0.10200338369E+01 0.  0.
     999903    2    3    3    0    0  0.82264358857E-01  0.95897815258E-01 -0.21360572076E-01  0.12981220213E+00  0.20763382960E-01 0.  0.
         14    1    1    2    0    0  0.19245371462E-01 -0.53391442094E-02  0.12615050489E-01  0.23622664592E-01  0.00000000000E+00 0.  1.
     999901    1    3    3    0    0 -0.10150973032E+00 -0.90558671049E-01  0.87455215877E-02  0.89049513328E+00  0.88000000000E+00 0.  1.
        -11    1    4    4    0    0  0.68506779137E-01  0.83242694188E-01 -0.10831243201E-01  0.10835175067E+00  0.51100000000E-03 0.  1.
         11    1    4    4    0    0  0.13757579720E-01  0.12655121070E-01 -0.10529328875E-01  0.21460451454E-01  0.51100000000E-03 0. -1.
</event>
<event>
 8    1  0.1111182E+005  0.1043930E+01  0.7957747E-01            NaN
         13   -1    0    0    0    0  0.00000000000E+00  0.00000000000E+00  0.74505805969E-08  0.10566000000E+00  0.10566000000E+00 0.  1.
     999900   -1    0    0    0    0 -0.00000000000E+00 -0.00000000000E+00 -0.74505805969E-08  0.93827000000E+00  0.93827000000E+00 0. -1.
     999902    2    1    2    0    0  0.68660782942E-02  0.20529771748E-04 -0.22401132111E-01  0.10205002289E+01  0.10202312302E+01 0.  0.
     999903    2    3    3    0    0 -0.38105088547E-02  0.12813997076E+00  0.13713696855E-01  0.13042559074E+00  0.19707794278E-01 0.  0.
         14    1    1    2    0    0 -0.68660782942E-02 -0.20529771748E-04  0.22401132111E-01  0.23429771071E-01  0.00000000000E+00 0.  1.
     999901    1    3    3    0    0  0.10676587149E-01 -0.12811944099E+00 -0.36114828965E-01  0.89007463819E+00  0.88000000000E+00 0.  1.
        -11    1    4    4    0    0 -0.11566776809E-01  0.84346922677E-01  0.11275538180E-01  0.85881270211E-01  0.51100000000E-03 0. -1.
         11    1    4    4    0    0  0.77562679542E-02  0.43793048081E-01  0.24381586746E-02  0.44544320531E-01  0.51100000000E-03 0.  1.
</event>
<event>
 8    1  0.1111182E+005  0.1043930E+01  0.7957747E-01            NaN
         13   -1    0    0    0    0  0.00000000000E+00  0.00000000000E+00  0.74505805969E-08  0.10566000000E+00  0.10566000000E+00 0.  1.
     999900   -1    0    0    0    0 -0.00000000000E+00 -0.00000000000E+00 -0.74505805969E-08  0.93827000000E+00  0.93827000000E+00 0.  1.
     999902    2    1    2    0    0 -0.14703987827E-02  0.21613986160E-01  0.10976904949E-01  0.10196438123E+01  0.10193545434E+01 0.  0.
     999903    2    3    3    0    0 -0.12644894431E+00  0.18436882863E-01 -0.16022300585E-01  0.13039767769E+00  0.20434922664E-01 0.  0.
         14    1    1    2    0    0  0.14703987827E-02 -0.21613986160E-01 -0.10976904949E-01  0.24286187691E-01  0.00000000000E+00 0. -1.
     999901    1    3    3    0    0  0.12497854553E+00  0.31771032974E-02  0.26999205534E-01  0.88924613461E+00  0.88000000000E+00 0.  1.
        -11    1    4    4    0    0 -0.66469364061E-01  0.17394027428E-01 -0.17464380039E-02  0.68731650028E-01  0.51100000000E-03 0.  1.
         11    1    4    4    0    0 -0.59979580252E-01  0.10428554349E-02 -0.14275862581E-01  0.61666027665E-01  0.51100000000E-03 0. -1.
</event>
<event>
 8    1  0.1111182E+005  0.1043930E+01  0.7957747E-01            NaN
         13   -1    0    0    0    0  0.00000000000E+00  0.00000000000E+00  0.74505805969E-08  0.10566000000E+00  0.10566000000E+00 0.  1.
     999900   -1    0    0    0    0 -0.00000000000E+00 -0.00000000000E+00 -0.74505805969E-08  0.93827000000E+00  0.93827000000E+00 0. -1.
     999902    2    1    2    0    0  0.69016044714E-02  0.21925709099E-02 -0.22285252675E-01  0.10204977146E+01  0.10202286575E+01 0.  0.
     999903    2    3    3    0    0 -0.94780791626E-01 -0.66848893834E-01 -0.57978780574E-01  0.13123956230E+00  0.20251188788E-01 0.  0.
         14    1    1    2    0    0 -0.69016044714E-02 -0.21925709099E-02  0.22285252675E-01  0.23432285383E-01  0.00000000000E+00 0.  1.
     999901    1    3    3    0    0  0.10168239610E+00  0.69041464744E-01  0.35693527899E-01  0.88925815232E+00  0.88000000000E+00 0. -1.
        -11    1    4    4    0    0 -0.65038339603E-01 -0.52129863988E-01 -0.32776177960E-01  0.89565882457E-01  0.51100000000E-03 0. -1.
         11    1    4    4    0    0 -0.29742452024E-01 -0.14719029846E-01 -0.25202602615E-01  0.41673679842E-01  0.51100000000E-03 0.  1.
</event>
<event>
 8    1  0.1111182E+005  0.1043930E+01  0.7957747E-01            NaN
         13   -1    0    0    0    0  0.00000000000E+00  0.00000000000E+00  0.74505805969E-08  0.10566000000E+00  0.10566000000E+00 0. -1.
     999900   -1    0    0    0    0 -0.00000000000E+00 -0.00000000000E+00 -0.74505805969E-08  0.93827000000E+00  0.93827000000E+00 0.  1.
     999902    2    1    2    0    0 -0.14075002526E-01  0.12444486039E-02  0.19382226087E-01  0.10199440659E+01  0.10196619893E+01 0.  0.
     999903    2    3    3    0    0  0.11838341611E+00  0.25015275872E-01 -0.36972069807E-01  0.12793168278E+00  0.18952157604E-01 0.  0.
         14    1    1    2    0    0  0.14075002526E-01 -0.12444486039E-02 -0.19382226087E-01  0.23985934139E-01  0.00000000000E+00 0.  1.
     999901    1    3    3    0    0 -0.13245841863E+00 -0.23770827268E-01  0.56354295894E-01  0.89201238308E+00  0.88000000000E+00 0. -1.
        -11    1    4    4    0    0  0.43249370518E-01  0.20848732134E-03 -0.15482987661E-01  0.45940565354E-01  0.51100000000E-03 0.  1.
         11    1    4    4    0    0  0.75134045591E-01  0.24806788551E-01 -0.21489082145E-01  0.81991117430E-01  0.51100000000E-03 0. -1.
</event>
<event>
 8    1  0.1111182E+005  0.1043930E+01  0.7957747E-01            NaN
         13   -1    0    0    0    0  0.00000000000E+00  0.00000000000E+00  0.74505805969E-08  0.10566000000E+00  0.10566000000E+00 0. -1.
     999900   -1    0    0    0    0 -0.00000000000E+00 -0.00000000000E+00 -0.74505805969E-08  0.93827000000E+00  0.93827000000E+00 0. -1.
     999902    2    1    2    0    0  0.24780723312E-02  0.21889142232E-01  0.96582344301E-02  0.10198767906E+01  0.10195931106E+01 0.  0.
     999903    2    3    3    0    0 -0.86479633101E-01  0.16963332990E-01  0.95148137219E-01  0.13125636520E+00  0.20213455490E-01 0.  0.
         14    1    1    2    0    0 -0.24780723312E-02 -0.21889142232E-01 -0.96582344301E-02  0.24053209400E-01  0.00000000000E+00 0. -1.
     999901    1    3    3    0    0  0.88957705432E-01  0.49258092424E-02 -0.85489902789E-01  0.88862042540E+00  0.88000000000E+00 0. -1.
        -11    1    4    4    0    0 -0.50328184201E-01  0.11555295499E-02  0.60831195976E-01  0.78961743258E-01  0.51100000000E-03 0. -1.
         11    1    4    4    0    0 -0.36151448900E-01  0.15807803440E-01  0.34316941244E-01  0.52294621946E-01  0.51100000000E-03 0.  1.
</event>
<event>
 8    1  0.1111182E+005  0.1043930E+01  0.7957747E-01            NaN
         13   -1    0    0    0    0  0.00000000000E+00  0.00000000000E+00  0.74505805969E-08  0.10566000000E+00  0.10566000000E+00 0. -1.
     999900   -1    0    0    0    0 -0.00000000000E+00 -0.00000000000E+00 -0.74505805969E-08  0.93827000000E+00  0.93827000000E+00 0. -1.
     999902    2    1    2    0    0  0.16711746423E-03  0.71382222728E-03 -0.24093004607E-01  0.10198258439E+01  0.10195409465E+01 0.  0.
     999903    2    3    3    0    0  0.10271067950E+00 -0.61930845541E-01 -0.49347907574E-01  0.13130046630E+00  0.20486169873E-01 0.  0.
         14    1    1    2    0    0 -0.16711746423E-03 -0.71382222728E-03  0.24093004607E-01  0.24104156102E-01  0.00000000000E+00 0. -1.
     999901    1    3    3    0    0 -0.10254356203E+00  0.62644667768E-01  0.25254902967E-01  0.88852537760E+00  0.88000000000E+00 0. -1.
        -11    1    4    4    0    0  0.53979997309E-01 -0.28674746456E-01 -0.14658121744E-01  0.62858594065E-01  0.51100000000E-03 0.  1.
         11    1    4    4    0    0  0.48730682189E-01 -0.33256099085E-01 -0.34689785830E-01  0.68441872234E-01  0.51100000000E-03 0. -1.
</event>
<event>
 8    1  0.1111182E+005  0.1043930E+01  0.7957747E-01            NaN
         13   -1    0    0    0    0  0.00000000000E+00  0.00000000000E+00  0.74505805969E-08  0.10566000000E+00  0.10566000000E+00 0. -1.
     999900   -1    0    0    0    0 -0.00000000000E+00 -0.00000000000E+00 -0.74505805969E-08  0.93827000000E+00  0.93827000000E+00 0.  1.
     999902    2    1    2    0    0 -0.23780597480E-01 -0.56911247808E-02  0.46100736667E-02  0.10190471043E+01  0.10187432662E+01 0.  0.
     999903    2    3    3    0    0 -0.18199192413E-01 -0.12326635258E+00 -0.33209460251E-01  0.13040465462E+00  0.19408797352E-01 0.  0.
         14    1    1    2    0    0  0.23780597480E-01  0.56911247808E-02 -0.46100736667E-02  0.24882895672E-01  0.00000000000E+00 0. -1.
     999901    1    3    3    0    0 -0.55814050670E-02  0.11757522780E+00  0.37819533917E-01  0.88864244971E+00  0.88000000000E+00 0.  1.
        -11    1    4    4    0    0 -0.18880645736E-01 -0.95716847844E-01 -0.32498183179E-01  0.10283280982E+00  0.51100000000E-03 0. -1.
         11    1    4    4    0    0  0.68145332270E-03 -0.27549504733E-01 -0.71127707166E-03  0.27571844802E-01  0.51100000000E-03 0.  1.
</event>
<event>
 8    1  0.1111182E+005  0.1043930E+01  0.7957747E-01            NaN
         13   -1    0    0    0    0  0.00000000000E+00  0.00000000000E+00  0.74505805969E-08  0.10566000000E+00  0.10566000000E+00 0. -1.
     999900   -1    0    0    0    0 -0.00000000000E+00 -0.00000000000E+00 -0.74505805969E-08  0.93827000000E+00  0.93827000000E+00 0. -1.
     999902    2    1    2    0    0 -0.16241431498E-01  0.12271087908E-01  0.33514148084E-02  0.10233000296E+01  0.10230920560E+01 0.  0.
     999903    2    3    3    0    0  0.17414758602E-01 -0.10165058070E+00 -0.77538451525E-01  0.13164199195E+00  0.26101498141E-01 0.  0.
         14    1    1    2    0    0  0.16241431498E-01 -0.12271087908E-01 -0.33514148084E-02  0.20629970354E-01  0.00000000000E+00 0.  1.
     999901    1    3    3    0    0 -0.33656190100E-01  0.11392166861E+00  0.80889866333E-01  0.89165803770E+00  0.88000000000E+00 0.  1.
        -11    1    4    4    0    0  0.20305534602E-01 -0.60542648641E-01 -0.56988003690E-01  0.85589840084E-01  0.51100000000E-03 0.  1.
         11    1    4    4    0    0 -0.28907760007E-02 -0.41107932063E-01 -0.20550447835E-01  0.46052151867E-01  0.51100000000E-03 0. -1.
</event>
<event>
 8    1  0.1111182E+005  0.1043930E+01  0.7957747E-01            NaN
         13   -1    0    0    0    0  0.00000000000E+00  0.00000000000E+00  0.74505805969E-08  0.10566000000E+00  0.10566000000E+00 0.  1.
     999900   -1    0    0    0    0 -0.00000000000E+00 -0.00000000000E+00 -0.74505805969E-08  0.93827000000E+00  0.93827000000E+00 0.  1.
     999902    2    1    2    0    0  0.23913030651E-02 -0.10676811797E-01  0.20950765736E-01  0.10202942807E+01  0.10200204763E+01 0.  0.
     999903    2    3    3    0    0 -0.46322663287E-01  0.41857458835E-01 -0.10967788373E+00  0.12777159521E+00  0.19962624264E-01 0.  0.
         14    1    1    2    0    0 -0.23913030651E-02  0.10676811797E-01 -0.20950765736E-01  0.23635719270E-01  0.00000000000E+00 0. -1.
     999901    1    3    3    0    0  0.48713966352E-01 -0.52534270631E-01  0.13062864947E+00  0.89252268552E+00  0.88000000000E+00 0. -1.
        -11    1    4    4    0    0 -0.25080636178E-01  0.35080659696E-01 -0.75842769367E-01  0.87247222202E-01  0.51100000000E-03 0.  1.
         11    1    4    4    0    0 -0.21242027109E-01  0.67767991387E-02 -0.33835114368E-01  0.40524373006E-01  0.51100000000E-03 0. -1.
</event>
<event>
 8    1  0.1111182E+005  0.1043930E+01  0.7957747E-01            NaN
         13   -1    0    0    0    0  0.00000000000E+00  0.00000000000E+00  0.74505805969E-08  0.10566000000E+00  0.10566000000E+00 0. -1.
     999900   -1    0    0    0    0 -0.00000000000E+00 -0.00000000000E+00 -0.74505805969E-08  0.93827000000E+00  0.93827000000E+00 0. -1.
     999902    2    1    2    0    0  0.29372675174E-02 -0.20502455458E-01  0.16423441500E-01  0.10174969213E+01  0.10171535170E+01 0.  0.
     999903    2    3    3    0    0  0.59088398656E-01  0.72120358055E-01 -0.81497657658E-01  0.12546526445E+00  0.20171253764E-01 0.  0.
         14    1    1    2    0    0 -0.29372675174E-02  0.20502455458E-01 -0.16423441500E-01  0.26433078727E-01  0.00000000000E+00 0.  1.
     999901    1    3    3    0    0 -0.56151131138E-01 -0.92622813513E-01  0.97921099158E-01  0.89203165682E+00  0.88000000000E+00 0.  1.
        -11    1    4    4    0    0  0.44514474018E-01  0.39313561297E-01 -0.48007182235E-01  0.76367828083E-01  0.51100000000E-03 0.  1.
         11    1    4    4    0    0  0.14573924637E-01  0.32806796759E-01 -0.33490475422E-01  0.49097436368E-01  0.51100000000E-03 0. -1.
</event>
<event>
 8    1  0.1111182E+005  0.1043930E+01  0.7957747E-01            NaN
         13   -1    0    0    0    0  0.00000000000E+00  0.00000000000E+00  0.74505805969E-08  0.10566000000E+00  0.10566000000E+00 0. -1.
     999900   -1    0    0    0    0 -0.00000000000E+00 -0.00000000000E+00 -0.74505805969E-08  0.93827000000E+00  0.93827000000E+00 0. -1.
     999902    2    1    2    0    0  0.15272485703E-01 -0.54944134736E-02 -0.17711342883E-01  0.10199064893E+01  0.10196235177E+01 0.  0.
     999903    2    3    3    0    0  0.54425144579E-02 -0.21616250310E-01 -0.12867760259E+00  0.13273680275E+00  0.23753950350E-01 0.  0.
         14    1    1    2    0    0 -0.15272485703E-01  0.54944134736E-02  0.17711342883E-01  0.24023510686E-01  0.00000000000E+00 0. -1.
     999901    1    3    3    0    0  0.98299712446E-02  0.16121836837E-01  0.11096625970E+00  0.88716968656E+00  0.88000000000E+00 0.  1.
        -11    1    4    4    0    0  0.81999254055E-02 -0.55702983461E-02 -0.15587990215E-01  0.18480085505E-01  0.51100000000E-03 0.  1.
         11    1    4    4    0    0 -0.27574109475E-02 -0.16045951964E-01 -0.11308961237E+00  0.11425671725E+00  0.51100000000E-03 0. -1.
</event>
<event>
 8    1  0.1111182E+005  0.1043930E+01  0.7957747E-01            NaN
         13   -1    0    0    0    0  0.00000000000E+00  0.00000000000E+00  0.74505805969E-08  0.10566000000E+00  0.10566000000E+00 0.  1.
     999900   -1    0    0    0    0 -0.00000000000E+00 -0.00000000000E+00 -0.74505805969E-08  0.93827000000E+00  0.93827000000E+00 0. -1.
     999902    2    1    2    0    0 -0.23688313336E-01 -0.47327109879E-03  0.53914610285E-03  0.10202308259E+01  0.10199555320E+01 0.  0.
     999903    2    3    3    0    0  0.37121392888E-01  0.50491625292E-02 -0.12240932949E+00  0.12958799890E+00  0.20137369751E-01 0.  0.
         14    1    1    2    0    0  0.23688313336E-01  0.47327109879E-03 -0.53914610285E-03  0.23699174094E-01  0.00000000000E+00 0. -1.
     999901    1    3    3    0    0 -0.60809706223E-01 -0.55224336280E-02  0.12294847559E+00  0.89064282700E+00  0.88000000000E+00 0.  1.
        -11    1    4    4    0    0  0.57308286836E-02 -0.65984241251E-02 -0.32027832775E-01  0.33202782889E-01  0.51100000000E-03 0.  1.
         11    1    4    4    0    0  0.31390564204E-01  0.11647586654E-01 -0.90381496717E-01  0.96385216012E-01  0.51100000000E-03 0. -1.
</event>
<event>
 8    1  0.1111182E+005  0.1043930E+01  0.7957747E-01            NaN
         13   -1    0    0    0    0  0.00000000000E+00  0.00000000000E+00  0.74505805969E-08  0.10566000000E+00  0.10566000000E+00 0.  1.
     999900   -1    0    0    0    0 -0.00000000000E+00 -0.00000000000E+00 -0.74505805969E-08  0.93827000000E+00  0.93827000000E+00 0. -1.
     999902    2    1    2    0    0 -0.21555903708E-01  0.79306819727E-02  0.40075946334E-02  0.10206144791E+01  0.10203481275E+01 0.  0.
     999903    2    3    3    0    0 -0.10373837374E+00 -0.58493500415E-01  0.55121022175E-01  0.13282018260E+00  0.20487411785E-01 0.  0.
         14    1    1    2    0    0  0.21555903708E-01 -0.79306819727E-02 -0.40075946334E-02  0.23315520924E-01  0.00000000000E+00 0.  1.
     999901    1    3    3    0    0  0.82182470035E-01  0.66424182387E-01 -0.51113427542E-01  0.88779429648E+00  0.88000000000E+00 0. -1.
        -11    1    4    4    0    0 -0.42968341646E-01 -0.15836318285E-01  0.28514301962E-01  0.53948066675E-01  0.51100000000E-03 0. -1.
         11    1    4    4    0    0 -0.60770032097E-01 -0.42657182130E-01  0.26606720214E-01  0.78872115921E-01  0.51100000000E-03 0.  1.
</event>
<event>
 8    1  0.1111182E+005  0.1043930E+01  0.7957747E-01            NaN
         13   -1    0    0    0    0  0.00000000000E+00  0.00000000000E+00  0.74505805969E-08  0.10566000000E+00  0.10566000000E+00 0. -1.
     999900   -1    0    0    0    0 -0.00000000000E+00 -0.00000000000E+00 -0.74505805969E-08  0.93827000000E+00  0.93827000000E+00 0.  1.
     999902    2    1    2    0    0 -0.42190453734E-02  0.18905428463E-01 -0.19048518217E-01  0.10167627106E+01  0.10163996989E+01 0.  0.
     999903    2    3    3    0    0 -0.12470678013E+00  0.66883121353E-02  0.17902183203E-01  0.12770033564E+00  0.19757859973E-01 0.  0.
         14    1    1    2    0    0  0.42190453734E-02 -0.18905428463E-01  0.19048518217E-01  0.27167289440E-01  0.00000000000E+00 0. -1.
     999901    1    3    3    0    0  0.12048773475E+00  0.12217116328E-01 -0.36950701420E-01  0.88906237492E+00  0.88000000000E+00 0.  1.
        -11    1    4    4    0    0 -0.37931903933E-01  0.10231252849E-01  0.15208901203E-02  0.39320250490E-01  0.51100000000E-03 0. -1.
         11    1    4    4    0    0 -0.86774876195E-01 -0.35429407133E-02  0.16381293082E-01  0.88380085153E-01  0.51100000000E-03 0.  1.
</event>
<event>
 8    1  0.1111182E+005  0.1043930E+01  0.7957747E-01            NaN
         13   -1    0    0    0    0  0.00000000000E+00  0.00000000000E+00  0.74505805969E-08  0.10566000000E+00  0.10566000000E+00 0.  1.
     999900   -1    0    0    0    0 -0.00000000000E+00 -0.00000000000E+00 -0.74505805969E-08  0.93827000000E+00  0.93827000000E+00 0. -1.
     999902    2    1    2    0    0  0.15619363791E-01 -0.39422383476E-02 -0.19457271481E-01  0.10186695332E+01  0.10183562867E+01 0.  0.
     999903    2    3    3    0    0  0.42940049511E-01  0.51540530581E-01 -0.11160442987E+00  0.13169949071E+00  0.19721382839E-01 0.  0.
         14    1    1    2    0    0 -0.15619363791E-01  0.39422383476E-02  0.19457271481E-01  0.25260466779E-01  0.00000000000E+00 0.  1.
     999901    1    3    3    0    0 -0.27320685720E-01 -0.55482768928E-01  0.92147158391E-01  0.88697004251E+00  0.88000000000E+00 0.  1.
        -11    1    4    4    0    0  0.27267841752E-01  0.19928886504E-01 -0.44332376889E-01  0.55734338362E-01  0.51100000000E-03 0. -1.
         11    1    4    4    0    0  0.15672207759E-01  0.31611644077E-01 -0.67272052983E-01  0.75965152345E-01  0.51100000000E-03 0.  1.
</event>
<event>
 8    1  0.1111182E+005  0.1043930E+01  0.7957747E-01            NaN
         13   -1    0    0    0    0  0.00000000000E+00  0.00000000000E+00  0.74505805969E-08  0.10566000000E+00  0.10566000000E+00 0.  1.
     999900   -1    0    0    0    0 -0.00000000000E+00 -0.00000000000E+00 -0.74505805969E-08  0.93827000000E+00  0.93827000000E+00 0. -1.
     999902    2    1    2    0    0  0.23201974461E-01 -0.90356947790E-02 -0.16092126237E-02  0.10189787482E+01  0.10186732177E+01 0.  0.
     999903    2    3    3    0    0  0.10671904690E+00 -0.75985799985E-01 -0.15248520899E-02  0.13249274999E+00  0.19728326213E-01 0.  0.
         14    1    1    2    0    0 -0.23201974461E-01  0.90356947790E-02  0.16092126237E-02  0.24951251758E-01  0.00000000000E+00 0. -1.
     999901    1    3    3    0    0 -0.83517072442E-01  0.66950105206E-01 -0.84360533828E-04  0.88648599825E+00  0.88000000000E+00 0. -1.
        -11    1    4    4    0    0  0.77194020841E-01 -0.58180260174E-01  0.71719779264E-02  0.96930686142E-01  0.51100000000E-03 0. -1.
         11    1    4    4    0    0  0.29525026062E-01 -0.17805539810E-01 -0.86968300163E-02  0.35562063849E-01  0.51100000000E-03 0.  1.
</event>
<event>
 8    1  0.1111182E+005  0.1043930E+01  0.7957747E-01            NaN
         13   -1    0    0    0    0  0.00000000000E+00  0.00000000000E+00  0.74505805969E-08  0.10566000000E+00  0.10566000000E+00 0. -1.
     999900   -1    0    0    0    0 -0.00000000000E+00 -0.00000000000E+00 -0.74505805969E-08  0.93827000000E+00  0.93827000000E+00 0.  1.
     999902    2    1    2    0    0  0.84361359026E-02 -0.93681552061E-02 -0.20623926214E-01  0.10197581765E+01  0.10194716580E+01 0.  0.
     999903    2    3    3    0    0 -0.37702341129E-01  0.10865740818E+00 -0.57306378229E-01  0.12992426220E+00  0.19193593806E-01 0.  0.
         14    1    1    2    0    0 -0.84361359026E-02  0.93681552061E-02  0.20623926214E-01  0.24171823543E-01  0.00000000000E+00 0. -1.
     999901    1    3    3    0    0  0.46138477032E-01 -0.11802556339E+00  0.36682452015E-01  0.88983391426E+00  0.88000000000E+00 0.  1.
        -11    1    4    4    0    0 -0.23953867892E-01  0.82566811532E-01 -0.50305293076E-01  0.99608984465E-01  0.51100000000E-03 0.  1.
         11    1    4    4    0    0 -0.13748473237E-01  0.26090596649E-01 -0.70010851524E-02  0.30315277735E-01  0.51100000000E-03 0. -1.
</event>
<event>
 8    1  0.1111182E+005  0.1043930E+01  0.7957747E-01            NaN
         13   -1    0    0    0    0  0.00000000000E+00  0.00000000000E+00  0.74505805969E-08  0.10566000000E+00  0.10566000000E+00 0.  1.
     999900   -1    0    0    0    0 -0.00000000000E+00 -0.00000000000E+00 -0.74505805969E-08  0.93827000000E+00  0.93827000000E+00 0. -1.
     999902    2    1    2    0    0 -0.40619658545E-02  0.23929873045E-01 -0.17480131229E-02  0.10195949648E+01  0.10193045169E+01 0.  0.
     999903    2    3    3    0    0  0.12078351192E-01  0.90282308043E-01 -0.93749935494E-01  0.13216749776E+00  0.19555442839E-01 0.  0.
         14    1    1    2    0    0  0.40619658545E-02 -0.23929873045E-01  0.17480131229E-02  0.24335035246E-01  0.00000000000E+00 0.  1.
     999901    1    3    3    0    0 -0.16140317046E-01 -0.66352434998E-01  0.92001922371E-01  0.88742746700E+00  0.88000000000E+00 0.  1.
        -11    1    4    4    0    0  0.87488334820E-02  0.73431963157E-01 -0.85684132714E-01  0.11318492400E+00  0.51100000000E-03 0.  1.
         11    1    4    4    0    0  0.33295177100E-02  0.16850344887E-01 -0.80658027793E-02  0.18982573757E-01  0.51100000000E-03 0. -1.
</event>
<event>
 8    1  0.1111182E+005  0.1043930E+01  0.7957747E-01            NaN
         13   -1    0    0    0    0  0.00000000000E+00  0.00000000000E+00  0.74505805969E-08  0.10566000000E+00  0.10566000000E+00 0. -1.
     999900   -1    0    0    0    0 -0.00000000000E+00 -0.00000000000E+00 -0.74505805969E-08  0.93827000000E+00  0.93827000000E+00 0. -1.
     999902    2    1    2    0    0  0.19868166367E-01 -0.10244203777E-01 -0.72196456296E-02  0.10204393417E+01  0.10201689267E+01 0.  0.
     999903    2    3    3    0    0 -0.77556247831E-01 -0.48482053926E-01  0.88812820518E-01  0.12904948071E+00  0.20014251240E-01 0.  0.
         14    1    1    2    0    0 -0.19868166367E-01  0.10244203777E-01  0.72196456296E-02  0.23490658331E-01  0.00000000000E+00 0. -1.
     999901    1    3    3    0    0  0.97424414198E-01  0.38237850148E-01 -0.96032466147E-01  0.89138986096E+00  0.88000000000E+00 0. -1.
        -11    1    4    4    0    0 -0.63085217633E-01 -0.37953827714E-01  0.59320200944E-01  0.94548321418E-01  0.51100000000E-03 0. -1.
         11    1    4    4    0    0 -0.14471030198E-01 -0.10528226212E-01  0.29492619574E-01  0.34501159292E-01  0.51100000000E-03 0.  1.
</event>
<event>
 8    1  0.1111182E+005  0.1043930E+01  0.7957747E-01            NaN
         13   -1    0    0    0    0  0.00000000000E+00  0.00000000000E+00  0.74505805969E-08  0.10566000000E+00  0.10566000000E+00 0.  1.
     999900   -1    0    0    0    0 -0.00000000000E+00 -0.00000000000E+00 -0.74505805969E-08  0.93827000000E+00  0.93827000000E+00 0.  1.
     999902    2    1    2    0    0  0.58356989722E-02  0.18913004427E-01 -0.13840285024E-01  0.10197781759E+01  0.10194921370E+01 0.  0.
     999903    2    3    3    0    0  0.65942674706E-01 -0.10606134372E+00 -0.24966141554E-01  0.12884876178E+00  0.19525629509E-01 0.  0.
         14    1    1    2    0    0 -0.58356989722E-02 -0.18913004427E-01  0.13840285024E-01  0.24151824124E-01  0.00000000000E+00 0.  1.
     999901    1    3    3    0    0 -0.60106975734E-01  0.12497434815E+00  0.11125856530E-01  0.89092941410E+00  0.88000000000E+00 0.  1.
        -11    1    4    4    0    0  0.23648754530E-01 -0.28324055067E-01 -0.14830938052E-01  0.39771013700E-01  0.51100000000E-03 0.  1.
         11    1    4    4    0    0  0.42293920177E-01 -0.77737288653E-01 -0.10135203502E-01  0.89077748075E-01  0.51100000000E-03 0. -1.
</event>
<event>
 8    1  0.1111182E+005  0.1043930E+01  0.7957747E-01            NaN
         13   -1    0    0    0    0  0.00000000000E+00  0.00000000000E+00  0.74505805969E-08  0.10566000000E+00  0.10566000000E+00 0.  1.
     999900   -1    0    0    0    0 -0.00000000000E+00 -0.00000000000E+00 -0.74505805969E-08  0.93827000000E+00  0.93827000000E+00 0.  1.
     999902    2    1    2    0    0  0.12216495793E-01  0.84267561700E-02 -0.17550697770E-01  0.10209456579E+01  0.10206869042E+01 0.  0.
     999903    2    3    3    0    0 -0.45075812211E-01  0.11747940481E+00  0.30694449587E-01  0.13105662945E+00  0.20011284013E-01 0.  0.
         14    1    1    2    0    0 -0.12216495793E-01 -0.84267561700E-02  0.17550697770E-01  0.22984342088E-01  0.00000000000E+00 0.  1.
     999901    1    3    3    0    0  0.57292308004E-01 -0.10905264864E+00 -0.48245147357E-01  0.88988902846E+00  0.88000000000E+00 0.  1.
        -11    1    4    4    0    0 -0.25519246111E-01  0.48343323388E-01  0.20966004132E-01  0.58550348321E-01  0.51100000000E-03 0. -1.
         11    1    4    4    0    0 -0.19556566100E-01  0.69136081418E-01  0.97284454547E-02  0.72506281131E-01  0.51100000000E-03 0.  1.
</event>
<event>
 8    1  0.1111182E+005  0.1043930E+01  0.7957747E-01            NaN
         13   -1    0    0    0    0  0.00000000000E+00  0.00000000000E+00  0.74505805969E-08  0.10566000000E+00  0.10566000000E+00 0.  1.
     999900   -1    0    0    0    0 -0.00000000000E+00 -0.00000000000E+00 -0.74505805969E-08  0.93827000000E+00  0.93827000000E+00 0. -1.
     999902    2    1    2    0    0 -0.13558781939E-01  0.18057915425E-01 -0.72936582724E-02  0.10201997171E+01  0.10199236914E+01 0.  0.
     999903    2    3    3    0    0 -0.98991553621E-01 -0.61756585128E-01 -0.56380637169E-01  0.13111105755E+00  0.19953186968E-01 0.  0.
         14    1    1    2    0    0  0.13558781939E-01 -0.18057915425E-01  0.72936582724E-02  0.23730282935E-01  0.00000000000E+00 0. -1.
     999901    1    3    3    0    0  0.85432771681E-01  0.79814500553E-01  0.49086978897E-01  0.88908865951E+00  0.88000000000E+00 0.  1.
        -11    1    4    4    0    0 -0.67271041993E-01 -0.31403673823E-01 -0.31526593569E-01  0.80658360035E-01  0.51100000000E-03 0. -1.
         11    1    4    4    0    0 -0.31720511627E-01 -0.30352911305E-01 -0.24854043600E-01  0.50452697518E-01  0.51100000000E-03 0.  1.
</event>
<event>
 8    1  0.1111182E+005  0.1043930E+01  0.7957747E-01            NaN
         13   -1    0    0    0    0  0.00000000000E+00  0.00000000000E+00  0.74505805969E-08  0.10566000000E+00  0.10566000000E+00 0.  1.
     999900   -1    0    0    0    0 -0.00000000000E+00 -0.00000000000E+00 -0.74505805969E-08  0.93827000000E+00  0.93827000000E+00 0.  1.
     999902    2    1    2    0    0 -0.58944191612E-02 -0.44677529410E-02  0.24488335331E-01  0.10183490782E+01  0.10180277312E+01 0.  0.
     999903    2    3    3    0    0 -0.51868070304E-01  0.11428642780E+00 -0.17518841883E-01  0.12819137588E+00  0.19350316081E-01 0.  0.
         14    1    1    2    0    0  0.58944191612E-02  0.44677529410E-02 -0.24488335331E-01  0.25580921815E-01  0.00000000000E+00 0. -1.
     999901    1    3    3    0    0  0.45973651143E-01 -0.11875418074E+00  0.42007177214E-01  0.89015770231E+00  0.88000000000E+00 0. -1.
        -11    1    4    4    0    0 -0.47679303721E-01  0.94065223877E-01 -0.89884120113E-02  0.10584250100E+00  0.51100000000E-03 0. -1.
         11    1    4    4    0    0 -0.41887665833E-02  0.20221203920E-01 -0.85304298712E-02  0.22348874877E-01  0.51100000000E-03 0.  1.
</event>
<event>
 8    1  0.1111182E+005  0.1043930E+01  0.7957747E-01            NaN
         13   -1    0    0    0    0  0.00000000000E+00  0.00000000000E+00  0.74505805969E-08  0.10566000000E+00  0.10566000000E+00 0. -1.
     999900   -1    0    0    0    0 -0.00000000000E+00 -0.00000000000E+00 -0.74505805969E-08  0.93827000000E+00  0.93827000000E+00 0. -1.
     999902    2    1    2    0    0 -0.63166131266E-02  0.23327122323E-01 -0.49752769922E-02  0.10192559728E+01  0.10189572761E+01 0.  0.
     999903    2    3    3    0    0  0.11095994035E+00  0.41655505937E-01  0.49137900056E-01  0.12963922634E+00  0.18560879485E-01 0.  0.
         14    1    1    2    0    0  0.63166131266E-02 -0.23327122323E-01  0.49752769922E-02  0.24674027203E-01  0.00000000000E+00 0. -1.
     999901    1    3    3    0    0 -0.11727655348E+00 -0.18328383614E-01 -0.54113177048E-01  0.88961674645E+00  0.88000000000E+00 0. -1.
        -11    1    4    4    0    0  0.55508633188E-01  0.11144835526E-01  0.21259794882E-01  0.60478555842E-01  0.51100000000E-03 0. -1.
         11    1    4    4    0    0  0.55451307164E-01  0.30510670411E-01  0.27878105174E-01  0.69160670501E-01  0.51100000000E-03 0.  1.
</event>
<event>
 8    1  0.1111182E+005  0.1043930E+01  0.7957747E-01            NaN
         13   -1    0    0    0    0  0.00000000000E+00  0.00000000000E+00  0.74505805969E-08  0.10566000000E+00  0.10566000000E+00 0. -1.
     999900   -1    0    0    0    0 -0.00000000000E+00 -0.00000000000E+00 -0.74505805969E-08  0.93827000000E+00  0.93827000000E+00 0.  1.
     999902    2    1    2    0    0 -0.18273155629E-01  0.12944197306E-01 -0.69179407901E-02  0.10204924582E+01  0.10202232789E+01 0.  0.
     999903    2    3    3    0    0 -0.10514783307E+00 -0.33431729886E-01 -0.71230711528E-01  0.13266698623E+00  0.18787432186E-01 0.  0.
         14    1    1    2    0    0  0.18273155629E-01 -0.12944197306E-01  0.69179407901E-02  0.23437541793E-01  0.00000000000E+00 0. -1.
     999901    1    3    3    0    0  0.86874677446E-01  0.46375927192E-01  0.64312770738E-01  0.88782547197E+00  0.88000000000E+00 0. -1.
        -11    1    4    4    0    0 -0.30266749126E-01 -0.17221354425E-01 -0.16689279925E-01  0.38619222368E-01  0.51100000000E-03 0. -1.
         11    1    4    4    0    0 -0.74881083949E-01 -0.16210375461E-01 -0.54541431603E-01  0.94047763866E-01  0.51100000000E-03 0.  1.
</event>
<event>
 8    1  0.1111182E+005  0.1043930E+01  0.7957747E-01            NaN
         13   -1    0    0    0    0  0.00000000000E+00  0.00000000000E+00  0.74505805969E-08  0.10566000000E+00  0.10566000000E+00 0.  1.
     999900   -1    0    0    0    0 -0.00000000000E+00 -0.00000000000E+00 -0.74505805969E-08  0.93827000000E+00  0.93827000000E+00 0.  1.
     999902    2    1    2    0    0 -0.17982069539E-01 -0.10646936701E-01 -0.12455088385E-01  0.10196022111E+01  0.10193119383E+01 0.  0.
     999903    2    3    3    0    0  0.97545938605E-01  0.19033190898E-01  0.77372282615E-01  0.12702359427E+00  0.16463623247E-01 0.  0.
         14    1    1    2    0    0  0.17982069539E-01  0.10646936701E-01  0.12455088385E-01  0.24327788899E-01  0.00000000000E+00 0.  1.
     999901    1    3    3    0    0 -0.11552800814E+00 -0.29680127599E-01 -0.89827371000E-01  0.89257861683E+00  0.88000000000E+00 0.  1.
        -11    1    4    4    0    0  0.50573225239E-01  0.16062828031E-01  0.47914212110E-01  0.71496142543E-01  0.51100000000E-03 0. -1.
         11    1    4    4    0    0  0.46972713367E-01  0.29703628670E-02  0.29458070505E-01  0.55527451729E-01  0.51100000000E-03 0.  1.
</event>
<event>
 8    1  0.1111182E+005  0.1043930E+01  0.7957747E-01            NaN
         13   -1    0    0    0    0  0.00000000000E+00  0.00000000000E+00  0.74505805969E-08  0.10566000000E+00  0.10566000000E+00 0.  1.
     999900   -1    0    0    0    0 -0.00000000000E+00 -0.00000000000E+00 -0.74505805969E-08  0.93827000000E+00  0.93827000000E+00 0. -1.
     999902    2    1    2    0    0  0.20209827054E-01 -0.12144502823E-01  0.92191848283E-03  0.10203338988E+01  0.10200610222E+01 0.  0.
     999903    2    3    3    0    0  0.76095738591E-01 -0.10509918861E+00  0.24327769343E-01  0.13336623164E+00  0.18929091483E-01 0.  0.
         14    1    1    2    0    0 -0.20209827054E-01  0.12144502823E-01 -0.92191848283E-03  0.23596101204E-01  0.00000000000E+00 0. -1.
     999901    1    3    3    0    0 -0.55885911537E-01  0.92954685783E-01 -0.23405850860E-01  0.88696766715E+00  0.88000000000E+00 0. -1.
        -11    1    4    4    0    0  0.18370994082E-01 -0.19738135336E-01 -0.18889163412E-02  0.27035468112E-01  0.51100000000E-03 0. -1.
         11    1    4    4    0    0  0.57724744509E-01 -0.85361053270E-01  0.26216685684E-01  0.10633076353E+00  0.51100000000E-03 0.  1.
</event>
<event>
 8    1  0.1111182E+005  0.1043930E+01  0.7957747E-01            NaN
         13   -1    0    0    0    0  0.00000000000E+00  0.00000000000E+00  0.74505805969E-08  0.10566000000E+00  0.10566000000E+00 0.  1.
     999900   -1    0    0    0    0 -0.00000000000E+00 -0.00000000000E+00 -0.74505805969E-08  0.93827000000E+00  0.93827000000E+00 0.  1.
     999902    2    1    2    0    0 -0.16677942699E-01 -0.11247012616E-01  0.12336251621E-01  0.10203327084E+01  0.10200598040E+01 0.  0.
     999903    2    3    3    0    0  0.52346953155E-01 -0.79321068314E-01  0.89154224366E-01  0.13168231922E+00  0.18966340957E-01 0.  0.
         14    1    1    2    0    0  0.16677942699E-01  0.11247012616E-01 -0.12336251621E-01  0.23597291572E-01  0.00000000000E+00 0. -1.
     999901    1    3    3    0    0 -0.69024895854E-01  0.68074055697E-01 -0.76817972746E-01  0.88865038921E+00  0.88000000000E+00 0.  1.
        -11    1    4    4    0    0  0.44152853181E-01 -0.69427569137E-01  0.67172791094E-01  0.10621726218E+00  0.51100000000E-03 0. -1.
         11    1    4    4    0    0  0.81940999742E-02 -0.98934991769E-02  0.21981433273E-01  0.25465057040E-01  0.51100000000E-03 0.  1.
</event>
<event>
 8    1  0.1111182E+005  0.1043930E+01  0.7957747E-01            NaN
         13   -1    0    0    0    0  0.00000000000E+00  0.00000000000E+00  0.74505805969E-08  0.10566000000E+00  0.10566000000E+00 0.  1.
     999900   -1    0    0    0    0 -0.00000000000E+00 -0.00000000000E+00 -0.74505805969E-08  0.93827000000E+00  0.93827000000E+00 0. -1.
     999902    2    1    2    0    0 -0.22475826740E-01  0.49141017840E-02  0.93994462678E-02  0.10190772180E+01  0.10187741239E+01 0.  0.
     999903    2    3    3    0    0  0.60729949968E-01  0.76582927175E-01  0.82184442968E-01  0.12926977951E+00  0.20082870090E-01 0.  0.
         14    1    1    2    0    0  0.22475826740E-01 -0.49141017840E-02 -0.93994462678E-02  0.24852782020E-01  0.00000000000E+00 0. -1.
     999901    1    3    3    0    0 -0.83205776708E-01 -0.71668825391E-01 -0.72784996700E-01  0.88980743847E+00  0.88000000000E+00 0. -1.
        -11    1    4    4    0    0  0.18755124133E-01  0.34874770116E-01  0.24139383919E-01  0.46378607664E-01  0.51100000000E-03 0. -1.
         11    1    4    4    0    0  0.41974825835E-01  0.41708157059E-01  0.58045059049E-01  0.82891171847E-01  0.51100000000E-03 0.  1.
</event>
<event>
 8    1  0.1111182E+005  0.1043930E+01  0.7957747E-01            NaN
         13   -1    0    0    0    0  0.00000000000E+00  0.00000000000E+00  0.74505805969E-08  0.10566000000E+00  0.10566000000E+00 0.  1.
     999900   -1    0    0    0    0 -0.00000000000E+00 -0.00000000000E+00 -0.74505805969E-08  0.93827000000E+00  0.93827000000E+00 0. -1.
     999902    2    1    2    0    0  0.71722613478E-02 -0.42942495774E-03 -0.20485696669E-01  0.10222207967E+01  0.10219902484E+01 0.  0.
     999903    2    3    3    0    0  0.11043989641E-01 -0.11528591582E+00  0.58313461633E-01  0.13125709875E+00  0.20375329931E-01 0.  0.
         14    1    1    2    0    0 -0.71722613478E-02  0.42942495774E-03  0.20485696669E-01  0.21709203270E-01  0.00000000000E+00 0.  1.
     999901    1    3    3    0    0 -0.38717282930E-02  0.11485649086E+00 -0.78799158301E-01  0.89096369798E+00  0.88000000000E+00 0. -1.
        -11    1    4    4    0    0  0.12155647822E-01 -0.75194590465E-01  0.47296457399E-01  0.89661598316E-01  0.51100000000E-03 0.  1.
         11    1    4    4    0    0 -0.11116581810E-02 -0.40091325357E-01  0.11017004234E-01  0.41595500431E-01  0.51100000000E-03 0. -1.
</event>
<event>
 8    1  0.1111182E+005  0.1043930E+01  0.7957747E-01            NaN
         13   -1    0    0    0    0  0.00000000000E+00  0.00000000000E+00  0.74505805969E-08  0.10566000000E+00  0.10566000000E+00 0. -1.
     999900   -1    0    0    0    0 -0.00000000000E+00 -0.00000000000E+00 -0.74505805969E-08  0.93827000000E+00  0.93827000000E+00 0. -1.
     999902    2    1    2    0    0 -0.77634535582E-02  0.21233976282E-01 -0.22287935127E-02  0.10212117148E+01  0.10209589835E+01 0.  0.
     999903    2    3    3    0    0  0.12866161648E+00 -0.57956601701E-02 -0.15425097949E-02  0.13028923114E+00  0.19634234939E-01 0.  0.
         14    1    1    2    0    0  0.77634535582E-02 -0.21233976282E-01  0.22287935127E-02  0.22718285156E-01  0.00000000000E+00 0.  1.
     999901    1    3    3    0    0 -0.13642507004E+00  0.27029636452E-01 -0.68628371781E-03  0.89092248370E+00  0.88000000000E+00 0.  1.
        -11    1    4    4    0    0  0.97363687022E-01  0.38446499976E-02  0.90300913816E-03  0.97445089310E-01  0.51100000000E-03 0. -1.
         11    1    4    4    0    0  0.31297929462E-01 -0.96403101677E-02 -0.24455189331E-02  0.32844141831E-01  0.51100000000E-03 0.  1.
</event>
<event>
 8    1  0.1111182E+005  0.1043930E+01  0.7957747E-01            NaN
         13   -1    0    0    0    0  0.00000000000E+00  0.00000000000E+00  0.74505805969E-08  0.10566000000E+00  0.10566000000E+00 0. -1.
     999900   -1    0    0    0    0 -0.00000000000E+00 -0.00000000000E+00 -0.74505805969E-08  0.93827000000E+00  0.93827000000E+00 0.  1.
     999902    2    1    2    0    0 -0.37566865786E-02 -0.23200462050E-01  0.26679317697E-02  0.10202764169E+01  0.10200021936E+01 0.  0.
     999903    2    3    3    0    0  0.10318963018E+00 -0.72544746795E-01  0.33353914736E-01  0.13189924326E+00  0.19341320507E-01 0.  0.
         14    1    1    2    0    0  0.37566865786E-02  0.23200462050E-01 -0.26679317697E-02  0.23653583096E-01  0.00000000000E+00 0. -1.
     999901    1    3    3    0    0 -0.10694631676E+00  0.49344284745E-01 -0.30685982966E-01  0.88837717365E+00  0.88000000000E+00 0.  1.
        -11    1    4    4    0    0  0.64569993332E-01 -0.41643950125E-01  0.10999576157E-01  0.77619291529E-01  0.51100000000E-03 0. -1.
         11    1    4    4    0    0  0.38619636850E-01 -0.30900796670E-01  0.22354338579E-01  0.54279951728E-01  0.51100000000E-03 0.  1.
</event>
<event>
 8    1  0.1111182E+005  0.1043930E+01  0.7957747E-01            NaN
         13   -1    0    0    0    0  0.00000000000E+00  0.00000000000E+00  0.74505805969E-08  0.10566000000E+00  0.10566000000E+00 0.  1.
     999900   -1    0    0    0    0 -0.00000000000E+00 -0.00000000000E+00 -0.74505805969E-08  0.93827000000E+00  0.93827000000E+00 0.  1.
     999902    2    1    2    0    0 -0.40035430232E-03  0.22926389279E-01 -0.35408271865E-02  0.10207283392E+01  0.10204646125E+01 0.  0.
     999903    2    3    3    0    0  0.79258424554E-01 -0.55844361287E-01  0.83619975103E-01  0.12935447951E+00  0.18433409437E-01 0.  0.
         14    1    1    2    0    0  0.40035430232E-03 -0.22926389279E-01  0.35408271865E-02  0.23201660848E-01  0.00000000000E+00 0. -1.
     999901    1    3    3    0    0 -0.79658778856E-01  0.78770750566E-01 -0.87160802289E-01  0.89137385964E+00  0.88000000000E+00 0.  1.
        -11    1    4    4    0    0  0.54770539655E-01 -0.29267168774E-01  0.46813826671E-01  0.77770011385E-01  0.51100000000E-03 0.  1.
         11    1    4    4    0    0  0.24487884899E-01 -0.26577192513E-01  0.36806148432E-01  0.51584468128E-01  0.51100000000E-03 0. -1.
</event>
<event>
 8    1  0.1111182E+005  0.1043930E+01  0.7957747E-01            NaN
         13   -1    0    0    0    0  0.00000000000E+00  0.00000000000E+00  0.74505805969E-08  0.10566000000E+00  0.10566000000E+00 0. -1.
     999900   -1    0    0    0    0 -0.00000000000E+00 -0.00000000000E+00 -0.74505805969E-08  0.93827000000E+00  0.93827000000E+00 0. -1.
     999902    2    1    2    0    0  0.33721893086E-02  0.18567406330E-01  0.13458203740E-01  0.10207514865E+01  0.10204882918E+01 0.  0.
     999903    2    3    3    0    0 -0.21751233133E-01 -0.11270402572E+00  0.58579256330E-01  0.12951678983E+00  0.12952066210E-01 0.  0.
         14    1    1    2    0    0 -0.33721893086E-02 -0.18567406330E-01 -0.13458203740E-01  0.23178513465E-01  0.00000000000E+00 0.  1.
     999901    1    3    3    0    0  0.25123422442E-01  0.13127143205E+00 -0.45121052590E-01  0.89123469671E+00  0.88000000000E+00 0.  1.
        -11    1    4    4    0    0 -0.21165315665E-01 -0.95010943510E-01  0.45214355599E-01  0.10732962800E+00  0.51100000000E-03 0.  1.
         11    1    4    4    0    0 -0.58591746765E-03 -0.17693082209E-01  0.13364900731E-01  0.22187161825E-01  0.51100000000E-03 0. -1.
</event>
<event>
 8    1  0.1111182E+005  0.1043930E+01  0.7957747E-01            NaN
         13   -1    0    0    0    0  0.00000000000E+00  0.00000000000E+00  0.74505805969E-08  0.10566000000E+00  0.10566000000E+00 0. -1.
     999900   -1    0    0    0    0 -0.00000000000E+00 -0.00000000000E+00 -0.74505805969E-08  0.93827000000E+00  0.93827000000E+00 0.  1.
     999902    2    1    2    0    0  0.18062298520E-01 -0.16127016313E-01  0.19518812444E-02  0.10196372619E+01  0.10193478350E+01 0.  0.
     999903    2    3    3    0    0  0.12439114480E+00 -0.42334471435E-01 -0.83805219238E-04  0.13284709606E+00  0.19569862841E-01 0.  0.
         14    1    1    2    0    0 -0.18062298520E-01  0.16127016313E-01 -0.19518812444E-02  0.24292738079E-01  0.00000000000E+00 0. -1.
     999901    1    3    3    0    0 -0.10632884628E+00  0.26207455122E-01  0.20356864636E-02  0.88679016586E+00  0.88000000000E+00 0. -1.
        -11    1    4    4    0    0  0.11271927525E+00 -0.40776667437E-01  0.50851224762E-02  0.11997704452E+00  0.51100000000E-03 0. -1.
         11    1    4    4    0    0  0.11671869547E-01 -0.15578039976E-02 -0.51689276954E-02  0.12870051536E-01  0.51100000000E-03 0.  1.
</event>
<event>
 8    1  0.1111182E+005  0.1043930E+01  0.7957747E-01            NaN
         13   -1    0    0    0    0  0.00000000000E+00  0.00000000000E+00  0.74505805969E-08  0.10566000000E+00  0.10566000000E+00 0.  1.
     999900   -1    0    0    0    0 -0.00000000000E+00 -0.00000000000E+00 -0.74505805969E-08  0.93827000000E+00  0.93827000000E+00 0. -1.
     999902    2    1    2    0    0 -0.12140406292E-01  0.73916910571E-03  0.19876224359E-01  0.10206276368E+01  0.10203615893E+01 0.  0.
     999903    2    3    3    0    0  0.38422878983E-01  0.11211855583E+00  0.53253850364E-01  0.13154041975E+00  0.20494420170E-01 0.  0.
         14    1    1    2    0    0  0.12140406292E-01 -0.73916910571E-03 -0.19876224359E-01  0.23302363200E-01  0.00000000000E+00 0.  1.
     999901    1    3    3    0    0 -0.50563285276E-01 -0.11137938673E+00 -0.33377626005E-01  0.88908721705E+00  0.88000000000E+00 0.  1.
        -11    1    4    4    0    0  0.31125604265E-01  0.74289454752E-01  0.27150567773E-01  0.85000828111E-01  0.51100000000E-03 0.  1.
         11    1    4    4    0    0  0.72972747186E-02  0.37829101080E-01  0.26103282591E-01  0.46539591638E-01  0.51100000000E-03 0. -1.
</event>
<event>
 8    1  0.1111182E+005  0.1043930E+01  0.7957747E-01            NaN
         13   -1    0    0    0    0  0.00000000000E+00  0.00000000000E+00  0.74505805969E-08  0.10566000000E+00  0.10566000000E+00 0. -1.
     999900   -1    0    0    0    0 -0.00000000000E+00 -0.00000000000E+00 -0.74505805969E-08  0.93827000000E+00  0.93827000000E+00 0. -1.
     999902    2    1    2    0    0 -0.54811014643E-02  0.23605516377E-01  0.34087779288E-02  0.10194579211E+01  0.10191641528E+01 0.  0.
     999903    2    3    3    0    0 -0.11333743974E+00 -0.56969565431E-01 -0.12314873047E-01  0.12908015484E+00  0.20472509458E-01 0.  0.
         14    1    1    2    0    0  0.54811014643E-02 -0.23605516377E-01 -0.34087779288E-02  0.24472078858E-01  0.00000000000E+00 0. -1.
     999901    1    3    3    0    0  0.10785633828E+00  0.80575081808E-01  0.15723650976E-01  0.89037776630E+00  0.88000000000E+00 0. -1.
        -11    1    4    4    0    0 -0.21046315058E-01 -0.17297343711E-01  0.31880978188E-02  0.27433019623E-01  0.51100000000E-03 0. -1.
         11    1    4    4    0    0 -0.92291124686E-01 -0.39672221720E-01 -0.15502970866E-01  0.10164713522E+00  0.51100000000E-03 0.  1.
</event>
<event>
 8    1  0.1111182E+005  0.1043930E+01  0.7957747E-01            NaN
         13   -1    0    0    0    0  0.00000000000E+00  0.00000000000E+00  0.74505805969E-08  0.10566000000E+00  0.10566000000E+00 0. -1.
     999900   -1    0    0    0    0 -0.00000000000E+00 -0.00000000000E+00 -0.74505805969E-08  0.93827000000E+00  0.93827000000E+00 0.  1.
     999902    2    1    2    0    0  0.67262613479E-02  0.23349145457E-01 -0.21083094197E-02  0.10195400399E+01  0.10192482636E+01 0.  0.
     999903    2    3    3    0    0  0.32606520156E-01  0.71580333747E-01 -0.10379501997E+00  0.13199498615E+00  0.21502113020E-01 0.  0.
         14    1    1    2    0    0 -0.67262613479E-02 -0.23349145457E-01  0.21083094197E-02  0.24389960104E-01  0.00000000000E+00 0.  1.
     999901    1    3    3    0    0 -0.25880258808E-01 -0.48231188290E-01  0.10168671055E+00  0.88754505374E+00  0.88000000000E+00 0. -1.
        -11    1    4    4    0    0  0.17028277697E-01  0.36216876285E-01 -0.70106482687E-01  0.80726726707E-01  0.51100000000E-03 0.  1.
         11    1    4    4    0    0  0.15578242459E-01  0.35363457462E-01 -0.33688537279E-01  0.51268259447E-01  0.51100000000E-03 0. -1.
</event>
<event>
 8    1  0.1111182E+005  0.1043930E+01  0.7957747E-01            NaN
         13   -1    0    0    0    0  0.00000000000E+00  0.00000000000E+00  0.74505805969E-08  0.10566000000E+00  0.10566000000E+00 0.  1.
     999900   -1    0    0    0    0 -0.00000000000E+00 -0.00000000000E+00 -0.74505805969E-08  0.93827000000E+00  0.93827000000E+00 0. -1.
     999902    2    1    2    0    0  0.28055692100E-02 -0.18430681259E-01  0.13136709750E-01  0.10211235454E+01  0.10208688263E+01 0.  0.
     999903    2    3    3    0    0 -0.10204389088E+00  0.24134742333E-01 -0.73760185778E-01  0.12963249380E+00  0.19198359022E-01 0.  0.
         14    1    1    2    0    0 -0.28055692100E-02  0.18430681259E-01 -0.13136709750E-01  0.22806454641E-01  0.00000000000E+00 0. -1.
     999901    1    3    3    0    0  0.10484946008E+00 -0.42565423591E-01  0.86896895528E-01  0.89149105156E+00  0.88000000000E+00 0.  1.
        -11    1    4    4    0    0 -0.66027164379E-01  0.18302093732E-01 -0.37144642138E-01  0.77939326603E-01  0.51100000000E-03 0. -1.
         11    1    4    4    0    0 -0.36016726496E-01  0.58326486006E-02 -0.36615543640E-01  0.51693167192E-01  0.51100000000E-03 0.  1.
</event>
<event>
 8    1  0.1111182E+005  0.1043930E+01  0.7957747E-01            NaN
         13   -1    0    0    0    0  0.00000000000E+00  0.00000000000E+00  0.74505805969E-08  0.10566000000E+00  0.10566000000E+00 0. -1.
     999900   -1    0    0    0    0 -0.00000000000E+00 -0.00000000000E+00 -0.74505805969E-08  0.93827000000E+00  0.93827000000E+00 0. -1.
     999902    2    1    2    0    0 -0.11352241449E-01 -0.20595687067E-01  0.32964358286E-02  0.10201829538E+01  0.10199065335E+01 0.  0.
     999903    2    3    3    0    0 -0.10125711596E+00  0.23598989640E-01  0.77845163951E-01  0.13136712997E+00  0.19685970679E-01 0.  0.
         14    1    1    2    0    0  0.11352241449E-01  0.20595687067E-01 -0.32964358286E-02  0.23747046150E-01  0.00000000000E+00 0. -1.
     999901    1    3    3    0    0  0.89904874513E-01 -0.44194676707E-01 -0.74548728123E-01  0.88881582388E+00  0.88000000000E+00 0.  1.
        -11    1    4    4    0    0 -0.53828974017E-01  0.67247266969E-02  0.30383864760E-01  0.62178941384E-01  0.51100000000E-03 0. -1.
         11    1    4    4    0    0 -0.47428141946E-01  0.16874262943E-01  0.47461299191E-01  0.69188188588E-01  0.51100000000E-03 0.  1.
</event>
<event>
 8    1  0.1313142E+005  0.1043930E+01  0.7957747E-01            NaN
         13   -1    0    0    0    0  0.00000000000E+00  0.00000000000E+00  0.74505805969E-08  0.10566000000E+00  0.10566000000E+00 0. -1.
     999900   -1    0    0    0    0 -0.00000000000E+00 -0.00000000000E+00 -0.74505805969E-08  0.93827000000E+00  0.93827000000E+00 0. -1.
     999902    2    1    2    0    0  0.16571973080E-01 -0.98489691576E-02  0.12271646799E-01  0.10210777397E+01  0.10208219848E+01 0.  0.
     999903    2    3    3    0    0 -0.64851284593E-01  0.25463581901E-01 -0.10649798281E+00  0.12867483291E+00  0.19008134140E-01 0.  0.
         14    1    1    2    0    0 -0.16571973080E-01  0.98489691576E-02 -0.12271646799E-01  0.22852260291E-01  0.00000000000E+00 0.  1.
     999901    1    3    3    0    0  0.81423257673E-01 -0.35312551058E-01  0.11876962961E+00  0.89240290680E+00  0.88000000000E+00 0.  1.
        -11    1    4    4    0    0 -0.51800201432E-01  0.16061281075E-01 -0.68223971570E-01  0.87155017274E-01  0.51100000000E-03 0.  1.
         11    1    4    4    0    0 -0.13051083161E-01  0.94023008261E-02 -0.38274011243E-01  0.41519815632E-01  0.51100000000E-03 0. -1.
</event>
<event>
 8    1  0.1111182E+005  0.1043930E+01  0.7957747E-01            NaN
         13   -1    0    0    0    0  0.00000000000E+00  0.00000000000E+00  0.74505805969E-08  0.10566000000E+00  0.10566000000E+00 0. -1.
     999900   -1    0    0    0    0 -0.00000000000E+00 -0.00000000000E+00 -0.74505805969E-08  0.93827000000E+00  0.93827000000E+00 0. -1.
     999902    2    1    2    0    0  0.13430763151E-01  0.18641031497E-01  0.83207537140E-02  0.10194941985E+01  0.10192013110E+01 0.  0.
     999903    2    3    3    0    0 -0.30320941883E-01  0.30738669350E-01 -0.11990489816E+00  0.12904353598E+00  0.20268800258E-01 0.  0.
         14    1    1    2    0    0 -0.13430763151E-01 -0.18641031497E-01 -0.83207537140E-02  0.24435801530E-01  0.00000000000E+00 0.  1.
     999901    1    3    3    0    0  0.43751705033E-01 -0.12097637853E-01  0.12822565188E+00  0.89045066249E+00  0.88000000000E+00 0.  1.
        -11    1    4    4    0    0 -0.29955902951E-01  0.33261910157E-01 -0.10903342731E+00  0.11786543251E+00  0.51100000000E-03 0. -1.
         11    1    4    4    0    0 -0.36503893134E-03 -0.25232408074E-02 -0.10871470856E-01  0.11178103469E-01  0.51100000000E-03 0.  1.
</event>
<event>
 8    1  0.1111182E+005  0.1043930E+01  0.7957747E-01            NaN
         13   -1    0    0    0    0  0.00000000000E+00  0.00000000000E+00  0.74505805969E-08  0.10566000000E+00  0.10566000000E+00 0.  1.
     999900   -1    0    0    0    0 -0.00000000000E+00 -0.00000000000E+00 -0.74505805969E-08  0.93827000000E+00  0.93827000000E+00 0.  1.
     999902    2    1    2    0    0  0.20480998873E-01 -0.32123121225E-02  0.12136333461E-01  0.10199074928E+01  0.10196245451E+01 0.  0.
     999903    2    3    3    0    0 -0.46596692370E-01 -0.11936992343E+00  0.20559873499E-03  0.12966350949E+00  0.19802854894E-01 0.  0.
         14    1    1    2    0    0 -0.20480998873E-01  0.32123121225E-02 -0.12136333461E-01  0.24022507236E-01  0.00000000000E+00 0. -1.
     999901    1    3    3    0    0  0.67077691243E-01  0.11615761131E+00  0.11930734726E-01  0.89024398328E+00  0.88000000000E+00 0. -1.
        -11    1    4    4    0    0 -0.11247279653E-01 -0.28180315328E-01  0.84871917954E-02  0.31510712736E-01  0.51100000000E-03 0. -1.
         11    1    4    4    0    0 -0.35349412717E-01 -0.91189608104E-01 -0.82815930604E-02  0.98152796752E-01  0.51100000000E-03 0.  1.
</event>
<event>
 8    1  0.1111182E+005  0.1043930E+01  0.7957747E-01            NaN
         13   -1    0    0    0    0  0.00000000000E+00  0.00000000000E+00  0.74505805969E-08  0.10566000000E+00  0.10566000000E+00 0.  1.
     999900   -1    0    0    0    0 -0.00000000000E+00 -0.00000000000E+00 -0.74505805969E-08  0.93827000000E+00  0.93827000000E+00 0. -1.
     999902    2    1    2    0    0 -0.74784775646E-02 -0.89396027423E-02 -0.20604218651E-01  0.10202576966E+01  0.10199830339E+01 0.  0.
     999903    2    3    3    0    0 -0.10686162787E-02 -0.95504877061E-01  0.84758763635E-01  0.12973201413E+00  0.22891570351E-01 0.  0.
         14    1    1    2    0    0  0.74784775646E-02  0.89396027423E-02  0.20604218651E-01  0.23672303439E-01  0.00000000000E+00 0.  1.
     999901    1    3    3    0    0 -0.64098612859E-02  0.86565274319E-01 -0.10536298229E+00  0.89052568243E+00  0.88000000000E+00 0. -1.
        -11    1    4    4    0    0  0.86071448588E-02 -0.75437045207E-01  0.65093108962E-01  0.10001102283E+00  0.51100000000E-03 0.  1.
         11    1    4    4    0    0 -0.96757611375E-02 -0.20067831854E-01  0.19665654673E-01  0.29720991296E-01  0.51100000000E-03 0. -1.
</event>
<event>
 8    1  0.1111182E+005  0.1043930E+01  0.7957747E-01            NaN
         13   -1    0    0    0    0  0.00000000000E+00  0.00000000000E+00  0.74505805969E-08  0.10566000000E+00  0.10566000000E+00 0. -1.
     999900   -1    0    0    0    0 -0.00000000000E+00 -0.00000000000E+00 -0.74505805969E-08  0.93827000000E+00  0.93827000000E+00 0. -1.
     999902    2    1    2    0    0  0.16362186726E-01 -0.11805450819E-02  0.14650692485E-01  0.10219355091E+01  0.10216987947E+01 0.  0.
     999903    2    3    3    0    0  0.10407313936E+00  0.12606743761E-01  0.82433804331E-01  0.13487415223E+00  0.20138433878E-01 0.  0.
         14    1    1    2    0    0 -0.16362186726E-01  0.11805450819E-02 -0.14650692485E-01  0.21994490934E-01  0.00000000000E+00 0.  1.
     999901    1    3    3    0    0 -0.87710952629E-01 -0.13787288843E-01 -0.67783111846E-01  0.88706135684E+00  0.88000000000E+00 0. -1.
        -11    1    4    4    0    0  0.21978153558E-01 -0.28309009212E-02  0.10035912424E-01  0.24331746609E-01  0.51100000000E-03 0. -1.
         11    1    4    4    0    0  0.82094985797E-01  0.15437644682E-01  0.72397891907E-01  0.11054240562E+00  0.51100000000E-03 0.  1.
</event>
<event>
 8    1  0.1111182E+005  0.1043930E+01  0.7957747E-01            NaN
         13   -1    0    0    0    0  0.00000000000E+00  0.00000000000E+00  0.74505805969E-08  0.10566000000E+00  0.10566000000E+00 0. -1.
     999900   -1    0    0    0    0 -0.00000000000E+00 -0.00000000000E+00 -0.74505805969E-08  0.93827000000E+00  0.93827000000E+00 0. -1.
     999902    2    1    2    0    0 -0.11104660685E-01 -0.16780821984E-01  0.45179721463E-02  0.10233066747E+01  0.10230988363E+01 0.  0.
     999903    2    3    3    0    0 -0.12599941766E+00  0.31442844883E-01  0.29786357966E-01  0.13416955445E+00  0.15803052768E-01 0.  0.
         14    1    1    2    0    0  0.11104660685E-01  0.16780821984E-01 -0.45179721463E-02  0.20623325331E-01  0.00000000000E+00 0. -1.
     999901    1    3    3    0    0  0.11489475697E+00 -0.48223666867E-01 -0.25268385820E-01  0.88913712022E+00  0.88000000000E+00 0.  1.
        -11    1    4    4    0    0 -0.11473040432E+00  0.29418502708E-01  0.22422306895E-01  0.12054681640E+00  0.51100000000E-03 0. -1.
         11    1    4    4    0    0 -0.11269013340E-01  0.20243421755E-02  0.73640510714E-02  0.13622738053E-01  0.51100000000E-03 0.  1.
</event>
<event>
 8    1  0.1111182E+005  0.1043930E+01  0.7957747E-01            NaN
         13   -1    0    0    0    0  0.00000000000E+00  0.00000000000E+00  0.74505805969E-08  0.10566000000E+00  0.10566000000E+00 0.  1.
     999900   -1    0    0    0    0 -0.00000000000E+00 -0.00000000000E+00 -0.74505805969E-08  0.93827000000E+00  0.93827000000E+00 0. -1.
     999902    2    1    2    0    0 -0.15889613076E-01  0.77303329514E-02  0.15248750687E-01  0.10205898576E+01  0.10203229367E+01 0.  0.
     999903    2    3    3    0    0  0.90609910309E-01  0.75543243097E-01 -0.48875741798E-01  0.12926910172E+00  0.20117780694E-01 0.  0.
         14    1    1    2    0    0  0.15889613076E-01 -0.77303329514E-02 -0.15248750687E-01  0.23340142433E-01  0.00000000000E+00 0.  1.
     999901    1    3    3    0    0 -0.10649952338E+00 -0.67812910146E-01  0.64124492485E-01  0.89132075585E+00  0.88000000000E+00 0.  1.
        -11    1    4    4    0    0  0.26135535432E-01  0.19901908985E-01 -0.23532572388E-01  0.40412810813E-01  0.51100000000E-03 0. -1.
         11    1    4    4    0    0  0.64474374876E-01  0.55641334112E-01 -0.25343169409E-01  0.88856290910E-01  0.51100000000E-03 0.  1.
</event>
<event>
 8    1  0.1111182E+005  0.1043930E+01  0.7957747E-01            NaN
         13   -1    0    0    0    0  0.00000000000E+00  0.00000000000E+00  0.74505805969E-08  0.10566000000E+00  0.10566000000E+00 0. -1.
     999900   -1    0    0    0    0 -0.00000000000E+00 -0.00000000000E+00 -0.74505805969E-08  0.93827000000E+00  0.93827000000E+00 0.  1.
     999902    2    1    2    0    0  0.15086519821E-01  0.99511464606E-02  0.15620100148E-01  0.10200424316E+01  0.10197626912E+01 0.  0.
     999903    2    3    3    0    0  0.10652367734E+00 -0.73332011007E-01 -0.73391918838E-02  0.13109700740E+00  0.20191184703E-01 0.  0.
         14    1    1    2    0    0 -0.15086519821E-01 -0.99511464606E-02 -0.15620100148E-01  0.23887568416E-01  0.00000000000E+00 0.  1.
     999901    1    3    3    0    0 -0.91437157515E-01  0.83283157467E-01  0.22959292032E-01  0.88894542419E+00  0.88000000000E+00 0.  1.
        -11    1    4    4    0    0  0.71235561134E-01 -0.49068250011E-01 -0.14397556174E-01  0.87691214350E-01  0.51100000000E-03 0.  1.
         11    1    4    4    0    0  0.35288116201E-01 -0.24263760995E-01  0.70583642904E-02  0.43405793048E-01  0.51100000000E-03 0. -1.
</event>
<event>
 8    1  0.1111182E+005  0.1043930E+01  0.7957747E-01            NaN
         13   -1    0    0    0    0  0.00000000000E+00  0.00000000000E+00  0.74505805969E-08  0.10566000000E+00  0.10566000000E+00 0.  1.
     999900   -1    0    0    0    0 -0.00000000000E+00 -0.00000000000E+00 -0.74505805969E-08  0.93827000000E+00  0.93827000000E+00 0. -1.
     999902    2    1    2    0    0 -0.13858388657E-01 -0.14099588091E-01  0.13396862644E-01  0.10200484329E+01  0.10197688347E+01 0.  0.
     999903    2    3    3    0    0  0.73237110339E-01  0.74320545470E-01  0.73796090997E-01  0.12928931124E+00  0.19561317543E-01 0.  0.
         14    1    1    2    0    0  0.13858388657E-01  0.14099588091E-01 -0.13396862644E-01  0.23881567143E-01  0.00000000000E+00 0. -1.
     999901    1    3    3    0    0 -0.87095498996E-01 -0.88420133560E-01 -0.60399228353E-01  0.89075912162E+00  0.88000000000E+00 0. -1.
        -11    1    4    4    0    0  0.23496223746E-01  0.15931077472E-01  0.28393668163E-01  0.40153869956E-01  0.51100000000E-03 0. -1.
         11    1    4    4    0    0  0.49740886593E-01  0.58389467998E-01  0.45402422834E-01  0.89135441281E-01  0.51100000000E-03 0.  1.
</event>
<event>
 8    1  0.1111182E+005  0.1043930E+01  0.7957747E-01            NaN
         13   -1    0    0    0    0  0.00000000000E+00  0.00000000000E+00  0.74505805969E-08  0.10566000000E+00  0.10566000000E+00 0.  1.
     999900   -1    0    0    0    0 -0.00000000000E+00 -0.00000000000E+00 -0.74505805969E-08  0.93827000000E+00  0.93827000000E+00 0. -1.
     999902    2    1    2    0    0  0.17621250657E-01  0.89284277369E-02 -0.14765520695E-01  0.10192673583E+01  0.10189689405E+01 0.  0.
     999903    2    3    3    0    0 -0.11115993994E-01 -0.83011007269E-01 -0.97582949011E-01  0.13014564815E+00  0.20026610922E-01 0.  0.
         14    1    1    2    0    0 -0.17621250657E-01 -0.89284277369E-02  0.14765520695E-01  0.24662641747E-01  0.00000000000E+00 0.  1.
     999901    1    3    3    0    0  0.28737244651E-01  0.91939435006E-01  0.82817428316E-01  0.88912171010E+00  0.88000000000E+00 0.  1.
        -11    1    4    4    0    0  0.18930222113E-02 -0.53568547963E-01 -0.66275112703E-01  0.85239806128E-01  0.51100000000E-03 0. -1.
         11    1    4    4    0    0 -0.13009016206E-01 -0.29442459306E-01 -0.31307836308E-01  0.44905842025E-01  0.51100000000E-03 0.  1.
</event>
<event>
 8    1  0.1111182E+005  0.1043930E+01  0.7957747E-01            NaN
         13   -1    0    0    0    0  0.00000000000E+00  0.00000000000E+00  0.74505805969E-08  0.10566000000E+00  0.10566000000E+00 0.  1.
     999900   -1    0    0    0    0 -0.00000000000E+00 -0.00000000000E+00 -0.74505805969E-08  0.93827000000E+00  0.93827000000E+00 0.  1.
     999902    2    1    2    0    0  0.89663023103E-02  0.17882365460E-01  0.10489471730E-01  0.10213423355E+01  0.10210925343E+01 0.  0.
     999903    2    3    3    0    0 -0.11060442830E+00 -0.63048755811E-01 -0.10836856050E-01  0.12932113715E+00  0.19950786854E-01 0.  0.
         14    1    1    2    0    0 -0.89663023103E-02 -0.17882365460E-01 -0.10489471730E-01  0.22587664526E-01  0.00000000000E+00 0. -1.
     999901    1    3    3    0    0  0.11957073061E+00  0.80931121271E-01  0.21326327780E-01  0.89202119833E+00  0.88000000000E+00 0. -1.
        -11    1    4    4    0    0 -0.62393225940E-01 -0.41547884039E-01 -0.14695405966E-01  0.76389510988E-01  0.51100000000E-03 0. -1.
         11    1    4    4    0    0 -0.48211202355E-01 -0.21500871772E-01  0.38585499156E-02  0.52931626160E-01  0.51100000000E-03 0.  1.
</event>
<event>
 8    1  0.1111182E+005  0.1043930E+01  0.7957747E-01            NaN
         13   -1    0    0    0    0  0.00000000000E+00  0.00000000000E+00  0.74505805969E-08  0.10566000000E+00  0.10566000000E+00 0. -1.
     999900   -1    0    0    0    0 -0.00000000000E+00 -0.00000000000E+00 -0.74505805969E-08  0.93827000000E+00  0.93827000000E+00 0.  1.
     999902    2    1    2    0    0  0.18907234783E-01 -0.14522178137E-01  0.23207824521E-03  0.10200882080E+01  0.10198095514E+01 0.  0.
     999903    2    3    3    0    0 -0.61594655477E-01 -0.68585719967E-01  0.89861213317E-01  0.13023608392E+00  0.19710335604E-01 0.  0.
         14    1    1    2    0    0 -0.18907234783E-01  0.14522178137E-01 -0.23207824521E-03  0.23841791990E-01  0.00000000000E+00 0.  1.
     999901    1    3    3    0    0  0.80501890260E-01  0.54063541830E-01 -0.89629135072E-01  0.88985212409E+00  0.88000000000E+00 0.  1.
        -11    1    4    4    0    0 -0.13213544024E-01 -0.28469794577E-01  0.28510569263E-01  0.42405667424E-01  0.51100000000E-03 0. -1.
         11    1    4    4    0    0 -0.48381111453E-01 -0.40115925389E-01  0.61350644054E-01  0.87830416497E-01  0.51100000000E-03 0.  1.
</event>
<event>
 8    1  0.1111182E+005  0.1043930E+01  0.7957747E-01            NaN
         13   -1    0    0    0    0  0.00000000000E+00  0.00000000000E+00  0.74505805969E-08  0.10566000000E+00  0.10566000000E+00 0. -1.
     999900   -1    0    0    0    0 -0.00000000000E+00 -0.00000000000E+00 -0.74505805969E-08  0.93827000000E+00  0.93827000000E+00 0. -1.
     999902    2    1    2    0    0 -0.10367056151E-01 -0.18516328071E-01 -0.97074260432E-02  0.10205940968E+01  0.10203272740E+01 0.  0.
     999903    2    3    3    0    0  0.70370020874E-01  0.46221675293E-01  0.94735518939E-01  0.12839579291E+00  0.20549403469E-01 0.  0.
         14    1    1    2    0    0  0.10367056151E-01  0.18516328071E-01  0.97074260432E-02  0.23335903214E-01  0.00000000000E+00 0.  1.
     999901    1    3    3    0    0 -0.80737077025E-01 -0.64738003363E-01 -0.10444294498E+00  0.89219830388E+00  0.88000000000E+00 0. -1.
        -11    1    4    4    0    0  0.78673865591E-02 -0.14430970823E-02  0.99911229842E-02  0.12808667376E-01  0.51100000000E-03 0. -1.
         11    1    4    4    0    0  0.62502634315E-01  0.47664772375E-01  0.84744395955E-01  0.11558712553E+00  0.51100000000E-03 0.  1.
</event>
<event>
 8    1  0.1111182E+005  0.1043930E+01  0.7957747E-01            NaN
         13   -1    0    0    0    0  0.00000000000E+00  0.00000000000E+00  0.74505805969E-08  0.10566000000E+00  0.10566000000E+00 0. -1.
     999900   -1    0    0    0    0 -0.00000000000E+00 -0.00000000000E+00 -0.74505805969E-08  0.93827000000E+00  0.93827000000E+00 0. -1.
     999902    2    1    2    0    0 -0.20233384476E-01  0.75305559239E-02 -0.12182208834E-01  0.10191407819E+01  0.10188392553E+01 0.  0.
     999903    2    3    3    0    0  0.94355673252E-01  0.30849764633E-01 -0.79720973315E-01  0.12883975288E+00  0.19736952207E-01 0.  0.
         14    1    1    2    0    0  0.20233384476E-01 -0.75305559239E-02  0.12182208834E-01  0.24789218059E-01  0.00000000000E+00 0.  1.
     999901    1    3    3    0    0 -0.11458905773E+00 -0.23319208709E-01  0.67538764481E-01  0.89030102906E+00  0.88000000000E+00 0.  1.
        -11    1    4    4    0    0  0.22307050765E-01  0.10748673094E-02 -0.25373065858E-01  0.33805523892E-01  0.51100000000E-03 0. -1.
         11    1    4    4    0    0  0.72048622486E-01  0.29774897323E-01 -0.54347907457E-01  0.95034228985E-01  0.51100000000E-03 0.  1.
</event>
<event>
 8    1  0.1111182E+005  0.1043930E+01  0.7957747E-01            NaN
         13   -1    0    0    0    0  0.00000000000E+00  0.00000000000E+00  0.74505805969E-08  0.10566000000E+00  0.10566000000E+00 0. -1.
     999900   -1    0    0    0    0 -0.00000000000E+00 -0.00000000000E+00 -0.74505805969E-08  0.93827000000E+00  0.93827000000E+00 0.  1.
     999902    2    1    2    0    0 -0.23565649694E-01  0.14188567513E-01 -0.22794495017E-02  0.10163283482E+01  0.10159534734E+01 0.  0.
     999903    2    3    3    0    0 -0.46161214295E-01 -0.22120102854E-01  0.11614294127E+00  0.12736673949E+00  0.10627646205E-01 0.  0.
         14    1    1    2    0    0  0.23565649694E-01 -0.14188567513E-01  0.22794495017E-02  0.27601651827E-01  0.00000000000E+00 0. -1.
     999901    1    3    3    0    0  0.22595564601E-01  0.36308670367E-01 -0.11842239078E+00  0.88896160869E+00  0.88000000000E+00 0.  1.
        -11    1    4    4    0    0 -0.22249401212E-01 -0.81460659145E-02  0.65299690014E-01  0.69467293607E-01  0.51100000000E-03 0.  1.
         11    1    4    4    0    0 -0.23911813083E-01 -0.13974036940E-01  0.50843251260E-01  0.57899445878E-01  0.51100000000E-03 0. -1.
</event>
<event>
 8    1  0.1111182E+005  0.1043930E+01  0.7957747E-01            NaN
         13   -1    0    0    0    0  0.00000000000E+00  0.00000000000E+00  0.74505805969E-08  0.10566000000E+00  0.10566000000E+00 0.  1.
     999900   -1    0    0    0    0 -0.00000000000E+00 -0.00000000000E+00 -0.74505805969E-08  0.93827000000E+00  0.93827000000E+00 0.  1.
     999902    2    1    2    0    0 -0.51449990084E-02 -0.11224466983E-01  0.19743381984E-01  0.10206435059E+01  0.10203778248E+01 0.  0.
     999903    2    3    3    0    0  0.10861489045E+00 -0.70013299346E-01  0.12926650815E-01  0.13134945609E+00  0.19660234034E-01 0.  0.
         14    1    1    2    0    0  0.51449990084E-02  0.11224466983E-01 -0.19743381984E-01  0.23286494068E-01  0.00000000000E+00 0. -1.
     999901    1    3    3    0    0 -0.11375988945E+00  0.58788832363E-01  0.68167311689E-02  0.88929404984E+00  0.88000000000E+00 0. -1.
        -11    1    4    4    0    0  0.56700719465E-01 -0.45108585740E-01  0.13811084827E-01  0.73761529813E-01  0.51100000000E-03 0.  1.
         11    1    4    4    0    0  0.51914170981E-01 -0.24904713605E-01 -0.88443401250E-03  0.57587926277E-01  0.51100000000E-03 0. -1.
</event>
<event>
 8    1  0.1111182E+005  0.1043930E+01  0.7957747E-01            NaN
         13   -1    0    0    0    0  0.00000000000E+00  0.00000000000E+00  0.74505805969E-08  0.10566000000E+00  0.10566000000E+00 0.  1.
     999900   -1    0    0    0    0 -0.00000000000E+00 -0.00000000000E+00 -0.74505805969E-08  0.93827000000E+00  0.93827000000E+00 0. -1.
     999902    2    1    2    0    0  0.17342247121E-01 -0.12222526794E-01 -0.94389195044E-02  0.10207085251E+01  0.10204443426E+01 0.  0.
     999903    2    3    3    0    0  0.40165212291E-02 -0.12596663366E+00  0.34460281926E-01  0.13220279256E+00  0.20157928764E-01 0.  0.
         14    1    1    2    0    0 -0.17342247121E-01  0.12222526794E-01  0.94389195044E-02  0.23221474929E-01  0.00000000000E+00 0.  1.
     999901    1    3    3    0    0  0.13325725892E-01  0.11374410687E+00 -0.43899201430E-01  0.88850573251E+00  0.88000000000E+00 0. -1.
        -11    1    4    4    0    0  0.11700510269E-01 -0.54471083000E-01  0.15757138781E-01  0.57901203504E-01  0.51100000000E-03 0.  1.
         11    1    4    4    0    0 -0.76839890399E-02 -0.71495550661E-01  0.18703143145E-01  0.74301589057E-01  0.51100000000E-03 0. -1.
</event>
<event>
 8    1  0.1111182E+005  0.1043930E+01  0.7957747E-01            NaN
         13   -1    0    0    0    0  0.00000000000E+00  0.00000000000E+00  0.74505805969E-08  0.10566000000E+00  0.10566000000E+00 0. -1.
     999900   -1    0    0    0    0 -0.00000000000E+00 -0.00000000000E+00 -0.74505805969E-08  0.93827000000E+00  0.93827000000E+00 0.  1.
     999902    2    1    2    0    0 -0.58649155502E-03 -0.37174592249E-02 -0.22454837682E-01  0.10211619695E+01  0.10209081177E+01 0.  0.
     999903    2    3    3    0    0  0.14231812906E-01 -0.12288185637E+00 -0.43895660616E-01  0.13274796438E+00  0.19816606692E-01 0.  0.
         14    1    1    2    0    0  0.58649155502E-03  0.37174592249E-02  0.22454837682E-01  0.22768030454E-01  0.00000000000E+00 0. -1.
     999901    1    3    3    0    0 -0.14818304461E-01  0.11916439715E+00  0.21440822934E-01  0.88841400517E+00  0.88000000000E+00 0. -1.
        -11    1    4    4    0    0  0.17395066508E-01 -0.97867358402E-01 -0.40354528356E-01  0.10728167252E+00  0.51100000000E-03 0.  1.
         11    1    4    4    0    0 -0.31632536023E-02 -0.25014497970E-01 -0.35411322609E-02  0.25466291853E-01  0.51100000000E-03 0. -1.
</event>
<event>
 8    1  0.1111182E+005  0.1043930E+01  0.7957747E-01            NaN
         13   -1    0    0    0    0  0.00000000000E+00  0.00000000000E+00  0.74505805969E-08  0.10566000000E+00  0.10566000000E+00 0.  1.
     999900   -1    0    0    0    0 -0.00000000000E+00 -0.00000000000E+00 -0.74505805969E-08  0.93827000000E+00  0.93827000000E+00 0.  1.
     999902    2    1    2    0    0  0.93190630583E-02 -0.17429689706E-02 -0.22904505811E-01  0.10191409043E+01  0.10188393807E+01 0.  0.
     999903    2    3    3    0    0  0.88643774794E-01 -0.68265720748E-02  0.90477886095E-01  0.12831330053E+00  0.19332209539E-01 0.  0.
         14    1    1    2    0    0 -0.93190630583E-02  0.17429689706E-02  0.22904505811E-01  0.24789095658E-01  0.00000000000E+00 0. -1.
     999901    1    3    3    0    0 -0.79324711736E-01  0.50836031042E-02 -0.11338239191E+00  0.89082760381E+00  0.88000000000E+00 0.  1.
        -11    1    4    4    0    0  0.46875005239E-01  0.12562307346E-02  0.35614099533E-01  0.58885222581E-01  0.51100000000E-03 0.  1.
         11    1    4    4    0    0  0.41768769555E-01 -0.80828028094E-02  0.54863786561E-01  0.69428077953E-01  0.51100000000E-03 0. -1.
</event>
<event>
 8    1  0.1111182E+005  0.1043930E+01  0.7957747E-01            NaN
         13   -1    0    0    0    0  0.00000000000E+00  0.00000000000E+00  0.74505805969E-08  0.10566000000E+00  0.10566000000E+00 0.  1.
     999900   -1    0    0    0    0 -0.00000000000E+00 -0.00000000000E+00 -0.74505805969E-08  0.93827000000E+00  0.93827000000E+00 0.  1.
     999902    2    1    2    0    0 -0.44933722391E-02  0.31736209402E-02  0.23350523766E-01  0.10199402267E+01  0.10196580587E+01 0.  0.
     999903    2    3    3    0    0 -0.11355733920E+00 -0.34315604298E-01  0.53718902654E-01  0.13189595451E+00  0.20928266229E-01 0.  0.
         14    1    1    2    0    0  0.44933722391E-02 -0.31736209402E-02 -0.23350523766E-01  0.23989773323E-01  0.00000000000E+00 0. -1.
     999901    1    3    3    0    0  0.10906396696E+00  0.37489225238E-01 -0.30368378888E-01  0.88804427217E+00  0.88000000000E+00 0.  1.
        -11    1    4    4    0    0 -0.59669856988E-01 -0.26444115395E-01  0.22033957735E-01  0.68887876194E-01  0.51100000000E-03 0. -1.
         11    1    4    4    0    0 -0.53887482216E-01 -0.78714889023E-02  0.31684944919E-01  0.63008078313E-01  0.51100000000E-03 0.  1.
</event>
<event>
 8    1  0.1927619E+005  0.1043930E+01  0.7957747E-01            NaN
         13   -1    0    0    0    0  0.00000000000E+00  0.00000000000E+00  0.74505805969E-08  0.10566000000E+00  0.10566000000E+00 0.  1.
     999900   -1    0    0    0    0 -0.00000000000E+00 -0.00000000000E+00 -0.74505805969E-08  0.93827000000E+00  0.93827000000E+00 0. -1.
     999902    2    1    2    0    0  0.11731647269E-01 -0.15000627920E-02  0.19392803785E-01  0.10212151904E+01  0.10209625373E+01 0.  0.
     999903    2    3    3    0    0  0.65615579561E-02  0.68014159843E-01 -0.10799418577E+00  0.12931474637E+00  0.19763083936E-01 0.  0.
         14    1    1    2    0    0 -0.11731647269E-01  0.15000627920E-02 -0.19392803785E-01  0.22714809589E-01  0.00000000000E+00 0. -1.
     999901    1    3    3    0    0  0.51700893126E-02 -0.69514222635E-01  0.12738698956E+00  0.89190044404E+00  0.88000000000E+00 0.  1.
        -11    1    4    4    0    0  0.12141631974E-01  0.33703687924E-01 -0.46861740484E-01  0.58988487426E-01  0.51100000000E-03 0. -1.
         11    1    4    4    0    0 -0.55800740176E-02  0.34310471919E-01 -0.61132445287E-01  0.70326258944E-01  0.51100000000E-03 0.  1.
</event>
<event>
 8    1  0.1111182E+005  0.1043930E+01  0.7957747E-01            NaN
         13   -1    0    0    0    0  0.00000000000E+00  0.00000000000E+00  0.74505805969E-08  0.10566000000E+00  0.10566000000E+00 0. -1.
     999900   -1    0    0    0    0 -0.00000000000E+00 -0.00000000000E+00 -0.74505805969E-08  0.93827000000E+00  0.93827000000E+00 0. -1.
     999902    2    1    2    0    0 -0.15090951475E-01 -0.17877282765E-01 -0.20962200436E-02  0.10204411049E+01  0.10201707310E+01 0.  0.
     999903    2    3    3    0    0  0.43477563287E-01 -0.96515448904E-01  0.74806722568E-01  0.13166200146E+00  0.23093429809E-01 0.  0.
         14    1    1    2    0    0  0.15090951475E-01  0.17877282765E-01  0.20962200436E-02  0.23488895120E-01  0.00000000000E+00 0.  1.
     999901    1    3    3    0    0 -0.58568514763E-01  0.78638166138E-01 -0.76902942611E-01  0.88877910342E+00  0.88000000000E+00 0. -1.
        -11    1    4    4    0    0  0.46159752602E-01 -0.93152441883E-01  0.70990326294E-01  0.12588879115E+00  0.51100000000E-03 0.  1.
         11    1    4    4    0    0 -0.26821893150E-02 -0.33630070210E-02  0.38163962743E-02  0.57732103086E-02  0.51100000000E-03 0. -1.
</event>
<event>
 8    1  0.1111182E+005  0.1043930E+01  0.7957747E-01            NaN
         13   -1    0    0    0    0  0.00000000000E+00  0.00000000000E+00  0.74505805969E-08  0.10566000000E+00  0.10566000000E+00 0. -1.
     999900   -1    0    0    0    0 -0.00000000000E+00 -0.00000000000E+00 -0.74505805969E-08  0.93827000000E+00  0.93827000000E+00 0. -1.
     999902    2    1    2    0    0 -0.58382487350E-03  0.20947525234E-01 -0.12866719145E-01  0.10193395115E+01  0.10190428585E+01 0.  0.
     999903    2    3    3    0    0 -0.58697262671E-02  0.94422744948E-01 -0.90844435445E-01  0.13282551106E+00  0.20971325377E-01 0.  0.
         14    1    1    2    0    0  0.58382487350E-03 -0.20947525234E-01  0.12866719145E-01  0.24590488537E-01  0.00000000000E+00 0. -1.
     999901    1    3    3    0    0  0.52859013936E-02 -0.73475219713E-01  0.77977716300E-01  0.88651400040E+00  0.88000000000E+00 0.  1.
        -11    1    4    4    0    0  0.78095693614E-02  0.29471345614E-01 -0.27058634030E-01  0.40767393619E-01  0.51100000000E-03 0.  1.
         11    1    4    4    0    0 -0.13679295629E-01  0.64951399334E-01 -0.63785801415E-01  0.92058117445E-01  0.51100000000E-03 0. -1.
</event>
<event>
 8    1  0.1111182E+005  0.1043930E+01  0.7957747E-01            NaN
         13   -1    0    0    0    0  0.00000000000E+00  0.00000000000E+00  0.74505805969E-08  0.10566000000E+00  0.10566000000E+00 0. -1.
     999900   -1    0    0    0    0 -0.00000000000E+00 -0.00000000000E+00 -0.74505805969E-08  0.93827000000E+00  0.93827000000E+00 0.  1.
     999902    2    1    2    0    0  0.10580177527E-01 -0.12680218209E-01 -0.15556363741E-01  0.10212423703E+01  0.10209903282E+01 0.  0.
     999903    2    3    3    0    0 -0.10048839787E-01 -0.56626996982E-01  0.11365279170E+00  0.13048321001E+00  0.28307508977E-01 0.  0.
         14    1    1    2    0    0 -0.10580177527E-01  0.12680218209E-01  0.15556363741E-01  0.22687629739E-01  0.00000000000E+00 0. -1.
     999901    1    3    3    0    0  0.20629017313E-01  0.43946778773E-01 -0.12920915544E+00  0.89075916025E+00  0.88000000000E+00 0.  1.
        -11    1    4    4    0    0  0.65283304569E-02 -0.22084763457E-01  0.25505730660E-01  0.34367998094E-01  0.51100000000E-03 0. -1.
         11    1    4    4    0    0 -0.16577170244E-01 -0.34542233525E-01  0.88147061043E-01  0.96115211916E-01  0.51100000000E-03 0.  1.
</event>
<event>
 8    1  0.1111182E+005  0.1043930E+01  0.7957747E-01            NaN
         13   -1    0    0    0    0  0.00000000000E+00  0.00000000000E+00  0.74505805969E-08  0.10566000000E+00  0.10566000000E+00 0. -1.
     999900   -1    0    0    0    0 -0.00000000000E+00 -0.00000000000E+00 -0.74505805969E-08  0.93827000000E+00  0.93827000000E+00 0.  1.
     999902    2    1    2    0    0 -0.36937498629E-02  0.19233092773E-03  0.25086975626E-01  0.10185718233E+01  0.10182561181E+01 0.  0.
     999903    2    3    3    0    0 -0.76183927139E-01 -0.72123051646E-02 -0.99206702290E-01  0.12685517952E+00  0.19855948508E-01 0.  0.
         14    1    1    2    0    0  0.36937498629E-02 -0.19233092773E-03 -0.25086975626E-01  0.25358176695E-01  0.00000000000E+00 0.  1.
     999901    1    3    3    0    0  0.72490177276E-01  0.74046360923E-02  0.12429367792E+00  0.89171664379E+00  0.88000000000E+00 0. -1.
        -11    1    4    4    0    0 -0.43588486547E-01 -0.13071755039E-01 -0.50827122168E-01  0.68223781837E-01  0.51100000000E-03 0.  1.
         11    1    4    4    0    0 -0.32595440592E-01  0.58594498748E-02 -0.48379580122E-01  0.58631397681E-01  0.51100000000E-03 0. -1.
</event>
<event>
 8    1  0.1111182E+005  0.1043930E+01  0.7957747E-01            NaN
         13   -1    0    0    0    0  0.00000000000E+00  0.00000000000E+00  0.74505805969E-08  0.10566000000E+00  0.10566000000E+00 0.  1.
     999900   -1    0    0    0    0 -0.00000000000E+00 -0.00000000000E+00 -0.74505805969E-08  0.93827000000E+00  0.93827000000E+00 0. -1.
     999902    2    1    2    0    0 -0.77876384611E-02 -0.81572912960E-02  0.20907945232E-01  0.10201743504E+01  0.10198977274E+01 0.  0.
     999903    2    3    3    0    0  0.12499842215E+00 -0.20142932713E-01  0.22955821074E-01  0.13012941486E+00  0.19399783799E-01 0.  0.
         14    1    1    2    0    0  0.77876384611E-02  0.81572912960E-02 -0.20907945232E-01  0.23755649600E-01  0.00000000000E+00 0. -1.
     999901    1    3    3    0    0 -0.13278606061E+00  0.11985641417E-01 -0.20478758427E-02  0.89004493554E+00  0.88000000000E+00 0. -1.
        -11    1    4    4    0    0  0.35638888671E-01 -0.11357470720E-01 -0.16471986484E-03  0.37408699262E-01  0.51100000000E-03 0.  1.
         11    1    4    4    0    0  0.89359533478E-01 -0.87854619937E-02  0.23120540939E-01  0.92720715594E-01  0.51100000000E-03 0. -1.
</event>
<event>
 8    1  0.1111182E+005  0.1043930E+01  0.7957747E-01            NaN
         13   -1    0    0    0    0  0.00000000000E+00  0.00000000000E+00  0.74505805969E-08  0.10566000000E+00  0.10566000000E+00 0. -1.
     999900   -1    0    0    0    0 -0.00000000000E+00 -0.00000000000E+00 -0.74505805969E-08  0.93827000000E+00  0.93827000000E+00 0. -1.
     999902    2    1    2    0    0  0.10001010373E-01 -0.19279452480E-01  0.56075157663E-02  0.10214987332E+01  0.10212524175E+01 0.  0.
     999903    2    3    3    0    0 -0.86152424359E-02 -0.97301929031E-01  0.89325427236E-01  0.13389366315E+00  0.20164158407E-01 0.  0.
         14    1    1    2    0    0 -0.10001010373E-01  0.19279452480E-01 -0.56075157663E-02  0.22431266783E-01  0.00000000000E+00 0.  1.
     999901    1    3    3    0    0  0.18616252809E-01  0.78022476551E-01 -0.83717911470E-01  0.88760507007E+00  0.88000000000E+00 0.  1.
        -11    1    4    4    0    0 -0.13461819221E-02 -0.50019476181E-01  0.58498709506E-01  0.76981298625E-01  0.51100000000E-03 0.  1.
         11    1    4    4    0    0 -0.72690605138E-02 -0.47282452850E-01  0.30826717730E-01  0.56912364520E-01  0.51100000000E-03 0. -1.
</event>
<event>
 8    1  0.1111182E+005  0.1043930E+01  0.7957747E-01            NaN
         13   -1    0    0    0    0  0.00000000000E+00  0.00000000000E+00  0.74505805969E-08  0.10566000000E+00  0.10566000000E+00 0.  1.
     999900   -1    0    0    0    0 -0.00000000000E+00 -0.00000000000E+00 -0.74505805969E-08  0.93827000000E+00  0.93827000000E+00 0. -1.
     999902    2    1    2    0    0 -0.15830520706E-01 -0.96999083436E-02 -0.14614679836E-01  0.10203019981E+01  0.10200283745E+01 0.  0.
     999903    2    3    3    0    0  0.12490038229E+00  0.15121298614E-01  0.11780963489E-01  0.12838383516E+00  0.22690501592E-01 0.  0.
         14    1    1    2    0    0  0.15830520706E-01  0.96999083436E-02  0.14614679836E-01  0.23628001913E-01  0.00000000000E+00 0.  1.
     999901    1    3    3    0    0 -0.14073090299E+00 -0.24821206958E-01 -0.26395643325E-01  0.89191816293E+00  0.88000000000E+00 0. -1.
        -11    1    4    4    0    0  0.77519640428E-01  0.20397262489E-01  0.67869613678E-02  0.80446671372E-01  0.51100000000E-03 0.  1.
         11    1    4    4    0    0  0.47380741859E-01 -0.52759638749E-02  0.49940021212E-02  0.47937163789E-01  0.51100000000E-03 0. -1.
</event>
<event>
 8    1  0.1111182E+005  0.1043930E+01  0.7957747E-01            NaN
         13   -1    0    0    0    0  0.00000000000E+00  0.00000000000E+00  0.74505805969E-08  0.10566000000E+00  0.10566000000E+00 0. -1.
     999900   -1    0    0    0    0 -0.00000000000E+00 -0.00000000000E+00 -0.74505805969E-08  0.93827000000E+00  0.93827000000E+00 0.  1.
     999902    2    1    2    0    0  0.13946237580E-01  0.10878073305E-01  0.16031154703E-01  0.10200589308E+01  0.10197795813E+01 0.  0.
     999903    2    3    3    0    0  0.15888812154E-01  0.73302936277E-01  0.10803427754E+00  0.13306106629E+00  0.20200678732E-01 0.  0.
         14    1    1    2    0    0 -0.13946237580E-01 -0.10878073305E-01 -0.16031154703E-01  0.23871069155E-01  0.00000000000E+00 0.  1.
     999901    1    3    3    0    0 -0.19425745738E-02 -0.62424862971E-01 -0.92003122833E-01  0.88699786455E+00  0.88000000000E+00 0.  1.
        -11    1    4    4    0    0  0.10728173379E-01  0.68891663323E-01  0.90446460963E-01  0.11420148161E+00  0.51100000000E-03 0. -1.
         11    1    4    4    0    0  0.51606387744E-02  0.44112729535E-02  0.17587816574E-01  0.18859584684E-01  0.51100000000E-03 0.  1.
</event>
<event>
 8    1  0.1111182E+005  0.1043930E+01  0.7957747E-01            NaN
         13   -1    0    0    0    0  0.00000000000E+00  0.00000000000E+00  0.74505805969E-08  0.10566000000E+00  0.10566000000E+00 0. -1.
     999900   -1    0    0    0    0 -0.00000000000E+00 -0.00000000000E+00 -0.74505805969E-08  0.93827000000E+00  0.93827000000E+00 0. -1.
     999902    2    1    2    0    0  0.69053012909E-02 -0.97935155503E-02 -0.21974360579E-01  0.10189006441E+01  0.10185931739E+01 0.  0.
     999903    2    3    3    0    0 -0.23516939838E-01 -0.61461779591E-01 -0.11285225582E+00  0.13219104447E+00  0.20205043564E-01 0.  0.
         14    1    1    2    0    0 -0.69053012909E-02  0.97935155503E-02  0.21974360579E-01  0.25029355877E-01  0.00000000000E+00 0. -1.
     999901    1    3    3    0    0  0.30422241129E-01  0.51668264041E-01  0.90877895242E-01  0.88670959965E+00  0.88000000000E+00 0.  1.
        -11    1    4    4    0    0 -0.19720517618E-01 -0.29156023829E-01 -0.46797027884E-01  0.58559332992E-01  0.51100000000E-03 0. -1.
         11    1    4    4    0    0 -0.37964222196E-02 -0.32305755762E-01 -0.66055227938E-01  0.73631711483E-01  0.51100000000E-03 0.  1.
</event>
<event>
 8    1  0.1111182E+005  0.1043930E+01  0.7957747E-01            NaN
         13   -1    0    0    0    0  0.00000000000E+00  0.00000000000E+00  0.74505805969E-08  0.10566000000E+00  0.10566000000E+00 0.  1.
     999900   -1    0    0    0    0 -0.00000000000E+00 -0.00000000000E+00 -0.74505805969E-08  0.93827000000E+00  0.93827000000E+00 0. -1.
     999902    2    1    2    0    0 -0.16417804830E-01 -0.15905026000E-01 -0.55682069197E-02  0.10204030135E+01  0.10201317517E+01 0.  0.
     999903    2    3    3    0    0  0.44330921635E-01 -0.39422965493E-01 -0.11517748252E+00  0.13121366661E+00  0.20779148318E-01 0.  0.
         14    1    1    2    0    0  0.16417804830E-01  0.15905026000E-01  0.55682069197E-02  0.23526986543E-01  0.00000000000E+00 0.  1.
     999901    1    3    3    0    0 -0.60748726464E-01  0.23517939493E-01  0.10960927560E+00  0.88918934685E+00  0.88000000000E+00 0.  1.
        -11    1    4    4    0    0  0.32420171245E-02 -0.13388373911E-01 -0.32230834309E-01  0.35054914524E-01  0.51100000000E-03 0.  1.
         11    1    4    4    0    0  0.41088904510E-01 -0.26034591581E-01 -0.82946648212E-01  0.96158752089E-01  0.51100000000E-03 0. -1.
</event>
<event>
 8    1  0.1111182E+005  0.1043930E+01  0.7957747E-01            NaN
         13   -1    0    0    0    0  0.00000000000E+00  0.00000000000E+00  0.74505805969E-08  0.10566000000E+00  0.10566000000E+00 0. -1.
     999900   -1    0    0    0    0 -0.00000000000E+00 -0.00000000000E+00 -0.74505805969E-08  0.93827000000E+00  0.93827000000E+00 0. -1.
     999902    2    1    2    0    0 -0.14158343613E-01  0.15135390793E-01 -0.61663153348E-02  0.10223068135E+01  0.10220781080E+01 0.  0.
     999903    2    3    3    0    0 -0.78238916030E-01 -0.55345303665E-01  0.88683055720E-01  0.13209883152E+00  0.20024642233E-01 0.  0.
         14    1    1    2    0    0  0.14158343613E-01 -0.15135390793E-01  0.61663153348E-02  0.21623186470E-01  0.00000000000E+00 0. -1.
     999901    1    3    3    0    0  0.64080572417E-01  0.70480694458E-01 -0.94849371055E-01  0.89020798201E+00  0.88000000000E+00 0. -1.
        -11    1    4    4    0    0 -0.55267780046E-01 -0.28234227888E-01  0.61316707197E-01  0.87245050507E-01  0.51100000000E-03 0.  1.
         11    1    4    4    0    0 -0.22971135984E-01 -0.27111075777E-01  0.27366348524E-01  0.44853781008E-01  0.51100000000E-03 0. -1.
</event>
<event>
 8    1  0.1111182E+005  0.1043930E+01  0.7957747E-01            NaN
         13   -1    0    0    0    0  0.00000000000E+00  0.00000000000E+00  0.74505805969E-08  0.10566000000E+00  0.10566000000E+00 0. -1.
     999900   -1    0    0    0    0 -0.00000000000E+00 -0.00000000000E+00 -0.74505805969E-08  0.93827000000E+00  0.93827000000E+00 0.  1.
     999902    2    1    2    0    0  0.38658516818E-02 -0.20873689888E-01 -0.98493611296E-02  0.10205277426E+01  0.10202593825E+01 0.  0.
     999903    2    3    3    0    0 -0.82043752681E-01 -0.69683270511E-01 -0.74800546227E-01  0.13261924968E+00  0.20144679847E-01 0.  0.
         14    1    1    2    0    0 -0.38658516818E-02  0.20873689888E-01  0.98493611296E-02  0.23402257443E-01  0.00000000000E+00 0. -1.
     999901    1    3    3    0    0  0.85909604362E-01  0.48809580623E-01  0.64951185098E-01  0.88790849288E+00  0.88000000000E+00 0.  1.
        -11    1    4    4    0    0 -0.49884495819E-01 -0.32107102488E-01 -0.33167336855E-01  0.67968097725E-01  0.51100000000E-03 0. -1.
         11    1    4    4    0    0 -0.32159256862E-01 -0.37576168023E-01 -0.41633209372E-01  0.64651151953E-01  0.51100000000E-03 0.  1.
</event>
<event>
 8    1  0.1111182E+005  0.1043930E+01  0.7957747E-01            NaN
         13   -1    0    0    0    0  0.00000000000E+00  0.00000000000E+00  0.74505805969E-08  0.10566000000E+00  0.10566000000E+00 0.  1.
     999900   -1    0    0    0    0 -0.00000000000E+00 -0.00000000000E+00 -0.74505805969E-08  0.93827000000E+00  0.93827000000E+00 0. -1.
     999902    2    1    2    0    0  0.52788185282E-02 -0.18582958299E-01  0.29377848697E-02  0.10243897123E+01  0.10242033293E+01 0.  0.
     999903    2    3    3    0    0  0.12264167099E+00 -0.37302322692E-01 -0.39047680639E-01  0.13540870402E+00  0.19451298655E-01 0.  0.
         14    1    1    2    0    0 -0.52788185282E-02  0.18582958299E-01 -0.29377848697E-02  0.19540287719E-01  0.00000000000E+00 0. -1.
     999901    1    3    3    0    0 -0.11736285246E+00  0.18719364393E-01  0.41985465509E-01  0.88898100826E+00  0.88000000000E+00 0.  1.
        -11    1    4    4    0    0  0.96663053255E-01 -0.36218736552E-01 -0.35504900155E-01  0.10916227278E+00  0.51100000000E-03 0.  1.
         11    1    4    4    0    0  0.25978617733E-01 -0.10835861401E-02 -0.35427804834E-02  0.26246431239E-01  0.51100000000E-03 0. -1.
</event>
<event>
 8    1  0.1111182E+005  0.1043930E+01  0.7957747E-01            NaN
         13   -1    0    0    0    0  0.00000000000E+00  0.00000000000E+00  0.74505805969E-08  0.10566000000E+00  0.10566000000E+00 0. -1.
     999900   -1    0    0    0    0 -0.00000000000E+00 -0.00000000000E+00 -0.74505805969E-08  0.93827000000E+00  0.93827000000E+00 0. -1.
     999902    2    1    2    0    0 -0.17451847750E-01 -0.14224668516E-01 -0.78863541589E-02  0.10200741251E+01  0.10197951353E+01 0.  0.
     999903    2    3    3    0    0 -0.10833088493E+00  0.53341125283E-01 -0.50492758743E-01  0.13179520406E+00  0.15479045562E-01 0.  0.
         14    1    1    2    0    0  0.17451847750E-01  0.14224668516E-01  0.78863541589E-02  0.23855874878E-01  0.00000000000E+00 0. -1.
     999901    1    3    3    0    0  0.90879037181E-01 -0.67565793799E-01  0.42606404584E-01  0.88827892106E+00  0.88000000000E+00 0.  1.
        -11    1    4    4    0    0 -0.41972450291E-01  0.28026472396E-01 -0.16896422140E-01  0.53225181451E-01  0.51100000000E-03 0.  1.
         11    1    4    4    0    0 -0.66358434640E-01  0.25314652886E-01 -0.33596336603E-01  0.78570022609E-01  0.51100000000E-03 0. -1.
</event>
<event>
 8    1  0.1111182E+005  0.1043930E+01  0.7957747E-01            NaN
         13   -1    0    0    0    0  0.00000000000E+00  0.00000000000E+00  0.74505805969E-08  0.10566000000E+00  0.10566000000E+00 0. -1.
     999900   -1    0    0    0    0 -0.00000000000E+00 -0.00000000000E+00 -0.74505805969E-08  0.93827000000E+00  0.93827000000E+00 0. -1.
     999902    2    1    2    0    0  0.94633098959E-02 -0.11115906112E-01 -0.22064325269E-01  0.10174733930E+01  0.10171293691E+01 0.  0.
     999903    2    3    3    0    0 -0.70020765361E-01  0.10259407850E+00 -0.13849111525E-01  0.12656645706E+00  0.19970419091E-01 0.  0.
         14    1    1    2    0    0 -0.94633098959E-02  0.11115906112E-01  0.22064325269E-01  0.26456606972E-01  0.00000000000E+00 0.  1.
     999901    1    3    3    0    0  0.79484075256E-01 -0.11370998461E+00 -0.82152137445E-02  0.89090693597E+00  0.88000000000E+00 0. -1.
        -11    1    4    4    0    0 -0.44845740708E-01  0.48113539716E-01 -0.81728382833E-02  0.66280536889E-01  0.51100000000E-03 0.  1.
         11    1    4    4    0    0 -0.25175024652E-01  0.54480538780E-01 -0.56762732413E-02  0.60285920172E-01  0.51100000000E-03 0. -1.
</event>
<event>
 8    1  0.1111182E+005  0.1043930E+01  0.7957747E-01            NaN
         13   -1    0    0    0    0  0.00000000000E+00  0.00000000000E+00  0.74505805969E-08  0.10566000000E+00  0.10566000000E+00 0. -1.
     999900   -1    0    0    0    0 -0.00000000000E+00 -0.00000000000E+00 -0.74505805969E-08  0.93827000000E+00  0.93827000000E+00 0.  1.
     999902    2    1    2    0    0 -0.21201948443E-01 -0.21550541562E-02 -0.95207286707E-02  0.10205888100E+01  0.10203218649E+01 0.  0.
     999903    2    3    3    0    0  0.13343222075E-02  0.10109263442E+00  0.79325928566E-01  0.12982414007E+00  0.18444599540E-01 0.  0.
         14    1    1    2    0    0  0.21201948443E-01  0.21550541562E-02  0.95207286707E-02  0.23341190000E-01  0.00000000000E+00 0. -1.
     999901    1    3    3    0    0 -0.22536270651E-01 -0.10324768858E+00 -0.88846657236E-01  0.89076466993E+00  0.88000000000E+00 0.  1.
        -11    1    4    4    0    0  0.71199266159E-02  0.64681306059E-01  0.42569120137E-01  0.77760888747E-01  0.51100000000E-03 0.  1.
         11    1    4    4    0    0 -0.57856044083E-02  0.36411328363E-01  0.36756808429E-01  0.52063251324E-01  0.51100000000E-03 0. -1.
</event>
<event>
 8    1  0.1111182E+005  0.1043930E+01  0.7957747E-01            NaN
         13   -1    0    0    0    0  0.00000000000E+00  0.00000000000E+00  0.74505805969E-08  0.10566000000E+00  0.10566000000E+00 0. -1.
     999900   -1    0    0    0    0 -0.00000000000E+00 -0.00000000000E+00 -0.74505805969E-08  0.93827000000E+00  0.93827000000E+00 0. -1.
     999902    2    1    2    0    0 -0.70046891269E-02 -0.15413065107E-01  0.19648644997E-01  0.10179935875E+01  0.10176631302E+01 0.  0.
     999903    2    3    3    0    0  0.85493088271E-01 -0.91866709150E-01  0.26374662608E-01  0.12982342480E+00  0.20246935732E-01 0.  0.
         14    1    1    2    0    0  0.70046891269E-02  0.15413065107E-01 -0.19648644997E-01  0.25936412550E-01  0.00000000000E+00 0.  1.
     999901    1    3    3    0    0 -0.92497777398E-01  0.76453644044E-01 -0.67260176117E-02  0.88817016265E+00  0.88000000000E+00 0.  1.
        -11    1    4    4    0    0  0.32520149477E-01 -0.21355151945E-01  0.72137330757E-02  0.39571475869E-01  0.51100000000E-03 0.  1.
         11    1    4    4    0    0  0.52972938794E-01 -0.70511557205E-01  0.19160929533E-01  0.90251948930E-01  0.51100000000E-03 0. -1.
</event>
<event>
 8    1  0.1111182E+005  0.1043930E+01  0.7957747E-01            NaN
         13   -1    0    0    0    0  0.00000000000E+00  0.00000000000E+00  0.74505805969E-08  0.10566000000E+00  0.10566000000E+00 0.  1.
     999900   -1    0    0    0    0 -0.00000000000E+00 -0.00000000000E+00 -0.74505805969E-08  0.93827000000E+00  0.93827000000E+00 0.  1.
     999902    2    1    2    0    0  0.80107003005E-02  0.23164999316E-01 -0.82157214589E-02  0.10180787603E+01  0.10177504978E+01 0.  0.
     999903    2    3    3    0    0 -0.71851184741E-01  0.96179043704E-01  0.44813954487E-01  0.12986644457E+00  0.21071348136E-01 0.  0.
         14    1    1    2    0    0 -0.80107003005E-02 -0.23164999316E-01  0.82157214589E-02  0.25851239656E-01  0.00000000000E+00 0. -1.
     999901    1    3    3    0    0  0.79861885042E-01 -0.73014044388E-01 -0.53029675946E-01  0.88821231577E+00  0.88000000000E+00 0.  1.
        -11    1    4    4    0    0 -0.35587277992E-01  0.55182860089E-01  0.14315032838E-01  0.67207021126E-01  0.51100000000E-03 0.  1.
         11    1    4    4    0    0 -0.36263906749E-01  0.40996183615E-01  0.30498921649E-01  0.62659423445E-01  0.51100000000E-03 0. -1.
</event>
<event>
 8    1  0.1111182E+005  0.1043930E+01  0.7957747E-01            NaN
         13   -1    0    0    0    0  0.00000000000E+00  0.00000000000E+00  0.74505805969E-08  0.10566000000E+00  0.10566000000E+00 0. -1.
     999900   -1    0    0    0    0 -0.00000000000E+00 -0.00000000000E+00 -0.74505805969E-08  0.93827000000E+00  0.93827000000E+00 0. -1.
     999902    2    1    2    0    0  0.21625729353E-01 -0.96436371437E-02  0.66950046852E-02  0.10193231921E+01  0.10190261405E+01 0.  0.
     999903    2    3    3    0    0 -0.12255686557E+00 -0.63408678009E-02  0.27321434482E-01  0.12734506537E+00  0.20246308026E-01 0.  0.
         14    1    1    2    0    0 -0.21625729353E-01  0.96436371437E-02 -0.66950046852E-02  0.24606807902E-01  0.00000000000E+00 0.  1.
     999901    1    3    3    0    0  0.14418259492E+00 -0.33027693428E-02 -0.20626429797E-01  0.89197812673E+00  0.88000000000E+00 0. -1.
        -11    1    4    4    0    0 -0.91389148747E-01 -0.73426307049E-02  0.11591763497E-01  0.92414938383E-01  0.51100000000E-03 0. -1.
         11    1    4    4    0    0 -0.31167716820E-01  0.10017629039E-02  0.15729670986E-01  0.34930126982E-01  0.51100000000E-03 0.  1.
</event>
<event>
 8    1  0.1111182E+005  0.1043930E+01  0.7957747E-01            NaN
         13   -1    0    0    0    0  0.00000000000E+00  0.00000000000E+00  0.74505805969E-08  0.10566000000E+00  0.10566000000E+00 0.  1.
     999900   -1    0    0    0    0 -0.00000000000E+00 -0.00000000000E+00 -0.74505805969E-08  0.93827000000E+00  0.93827000000E+00 0.  1.
     999902    2    1    2    0    0  0.17216990551E-02 -0.12901105446E-01 -0.20877133911E-01  0.10193280186E+01  0.10190310849E+01 0.  0.
     999903    2    3    3    0    0  0.38285412193E-01  0.97508003591E-01  0.69330552527E-01  0.12710354953E+00  0.19365000364E-01 0.  0.
         14    1    1    2    0    0 -0.17216990551E-02  0.12901105446E-01  0.20877133911E-01  0.24601981418E-01  0.00000000000E+00 0.  1.
     999901    1    3    3    0    0 -0.36563713138E-01 -0.11040910904E+00 -0.90207686438E-01  0.89222446905E+00  0.88000000000E+00 0. -1.
        -11    1    4    4    0    0  0.20105540508E-01  0.27018152407E-01  0.20140438263E-01  0.39244256816E-01  0.51100000000E-03 0.  1.
         11    1    4    4    0    0  0.18179871685E-01  0.70489851185E-01  0.49190114264E-01  0.87859292717E-01  0.51100000000E-03 0. -1.
</event>
<event>
 8    1  0.1111182E+005  0.1043930E+01  0.7957747E-01            NaN
         13   -1    0    0    0    0  0.00000000000E+00  0.00000000000E+00  0.74505805969E-08  0.10566000000E+00  0.10566000000E+00 0. -1.
     999900   -1    0    0    0    0 -0.00000000000E+00 -0.00000000000E+00 -0.74505805969E-08  0.93827000000E+00  0.93827000000E+00 0. -1.
     999902    2    1    2    0    0 -0.15467430370E-01  0.16890774073E-01 -0.40667579789E-02  0.10206689129E+01  0.10204038179E+01 0.  0.
     999903    2    3    3    0    0 -0.96485952928E-01 -0.80366296286E-01  0.31219608986E-01  0.13091160533E+00  0.19872184955E-01 0.  0.
         14    1    1    2    0    0  0.15467430370E-01 -0.16890774073E-01  0.40667579789E-02  0.23261087066E-01  0.00000000000E+00 0.  1.
     999901    1    3    3    0    0  0.81018522558E-01  0.97257070359E-01 -0.35286366965E-01  0.88975730760E+00  0.88000000000E+00 0.  1.
        -11    1    4    4    0    0 -0.50794371792E-01 -0.46836839789E-01  0.26634588557E-01  0.74050119485E-01  0.51100000000E-03 0.  1.
         11    1    4    4    0    0 -0.45691581136E-01 -0.33529456497E-01  0.45850204298E-02  0.56861485850E-01  0.51100000000E-03 0. -1.
</event>
<event>
 8    1  0.1274610E+005  0.1043930E+01  0.7957747E-01            NaN
         13   -1    0    0    0    0  0.00000000000E+00  0.00000000000E+00  0.74505805969E-08  0.10566000000E+00  0.10566000000E+00 0. -1.
     999900   -1    0    0    0    0 -0.00000000000E+00 -0.00000000000E+00 -0.74505805969E-08  0.93827000000E+00  0.93827000000E+00 0. -1.
     999902    2    1    2    0    0  0.96708527250E-02  0.22578023278E-01 -0.62902384407E-02  0.10185753234E+01  0.10182597064E+01 0.  0.
     999903    2    3    3    0    0  0.71880188737E-02  0.36467975298E-01  0.12218805328E+00  0.12913405680E+00  0.19081494274E-01 0.  0.
         14    1    1    2    0    0 -0.96708527250E-02 -0.22578023278E-01  0.62902384407E-02  0.25354676634E-01  0.00000000000E+00 0. -1.
     999901    1    3    3    0    0  0.24828338513E-02 -0.13889952020E-01 -0.12847829172E+00  0.88944126657E+00  0.88000000000E+00 0. -1.
        -11    1    4    4    0    0  0.11254828157E-01  0.10214891368E-01  0.45158185840E-01  0.47650162978E-01  0.51100000000E-03 0. -1.
         11    1    4    4    0    0 -0.40668092837E-02  0.26253083930E-01  0.77029867438E-01  0.81483893820E-01  0.51100000000E-03 0.  1.
</event>
<event>
 8    1  0.1111182E+005  0.1043930E+01  0.7957747E-01            NaN
         13   -1    0    0    0    0  0.00000000000E+00  0.00000000000E+00  0.74505805969E-08  0.10566000000E+00  0.10566000000E+00 0.  1.
     999900   -1    0    0    0    0 -0.00000000000E+00 -0.00000000000E+00 -0.74505805969E-08  0.93827000000E+00  0.93827000000E+00 0. -1.
     999902    2    1    2    0    0  0.17758491701E-01 -0.83032120084E-02 -0.13046479394E-01  0.10203817945E+01  0.10201100375E+01 0.  0.
     999903    2    3    3    0    0  0.44916267272E-01  0.80498537954E-01  0.89066172525E-01  0.12962352806E+00  0.19287049023E-01 0.  0.
         14    1    1    2    0    0 -0.17758491701E-01  0.83032120084E-02  0.13046479394E-01  0.23548205489E-01  0.00000000000E+00 0.  1.
     999901    1    3    3    0    0 -0.27157775571E-01 -0.88801749963E-01 -0.10211265192E+00  0.89075826645E+00  0.88000000000E+00 0. -1.
        -11    1    4    4    0    0  0.15863773943E-01  0.22957038340E-01  0.39223272115E-01  0.48139496564E-01  0.51100000000E-03 0.  1.
         11    1    4    4    0    0  0.29052493330E-01  0.57541499614E-01  0.49842900410E-01  0.81484031495E-01  0.51100000000E-03 0. -1.
</event>
<event>
 8    1  0.1111182E+005  0.1043930E+01  0.7957747E-01            NaN
         13   -1    0    0    0    0  0.00000000000E+00  0.00000000000E+00  0.74505805969E-08  0.10566000000E+00  0.10566000000E+00 0. -1.
     999900   -1    0    0    0    0 -0.00000000000E+00 -0.00000000000E+00 -0.74505805969E-08  0.93827000000E+00  0.93827000000E+00 0.  1.
     999902    2    1    2    0    0 -0.51704529520E-03  0.14538297991E-01 -0.18580229752E-01  0.10203322378E+01  0.10200593223E+01 0.  0.
     999903    2    3    3    0    0  0.65110539084E-01 -0.10640627919E+00 -0.28969681057E-01  0.12957833726E+00  0.19738908671E-01 0.  0.
         14    1    1    2    0    0  0.51704529520E-03 -0.14538297991E-01  0.18580229752E-01  0.23597762224E-01  0.00000000000E+00 0. -1.
     999901    1    3    3    0    0 -0.65627584379E-01  0.12094457718E+00  0.10389451305E-01  0.89075390051E+00  0.88000000000E+00 0.  1.
        -11    1    4    4    0    0  0.14616615592E-01 -0.40009163710E-01 -0.13911772687E-01  0.44812689860E-01  0.51100000000E-03 0.  1.
         11    1    4    4    0    0  0.50493923492E-01 -0.66397115484E-01 -0.15057908370E-01  0.84765647403E-01  0.51100000000E-03 0. -1.
</event>
<event>
 8    1  0.1111182E+005  0.1043930E+01  0.7957747E-01            NaN
         13   -1    0    0    0    0  0.00000000000E+00  0.00000000000E+00  0.74505805969E-08  0.10566000000E+00  0.10566000000E+00 0.  1.
     999900   -1    0    0    0    0 -0.00000000000E+00 -0.00000000000E+00 -0.74505805969E-08  0.93827000000E+00  0.93827000000E+00 0.  1.
     999902    2    1    2    0    0 -0.14986466312E-01 -0.55463103784E-02  0.16901885756E-01  0.10206699597E+01  0.10204048889E+01 0.  0.
     999903    2    3    3    0    0  0.10236472039E+00 -0.70087739721E-01 -0.30957639126E-01  0.12925118539E+00  0.18885609975E-01 0.  0.
         14    1    1    2    0    0  0.14986466312E-01  0.55463103784E-02 -0.16901885756E-01  0.23260040272E-01  0.00000000000E+00 0. -1.
     999901    1    3    3    0    0 -0.11735118670E+00  0.64541429343E-01  0.47859524882E-01  0.89141877434E+00  0.88000000000E+00 0. -1.
        -11    1    4    4    0    0  0.41278773860E-01 -0.38852601126E-01 -0.17539260631E-01  0.59340951880E-01  0.51100000000E-03 0. -1.
         11    1    4    4    0    0  0.61085946532E-01 -0.31235138595E-01 -0.13418378495E-01  0.69910233509E-01  0.51100000000E-03 0.  1.
</event>
<event>
 8    1  0.1111182E+005  0.1043930E+01  0.7957747E-01            NaN
         13   -1    0    0    0    0  0.00000000000E+00  0.00000000000E+00  0.74505805969E-08  0.10566000000E+00  0.10566000000E+00 0.  1.
     999900   -1    0    0    0    0 -0.00000000000E+00 -0.00000000000E+00 -0.74505805969E-08  0.93827000000E+00  0.93827000000E+00 0. -1.
     999902    2    1    2    0    0 -0.15246245614E-02 -0.10394210827E-01  0.21217319051E-01  0.10202543009E+01  0.10199795585E+01 0.  0.
     999903    2    3    3    0    0 -0.50303257978E-01  0.65227391216E-01  0.10124271893E+00  0.13205272111E+00  0.20069944850E-01 0.  0.
         14    1    1    2    0    0  0.15246245614E-02  0.10394210827E-01 -0.21217319051E-01  0.23675699071E-01  0.00000000000E+00 0. -1.
     999901    1    3    3    0    0  0.48778633417E-01 -0.75621602043E-01 -0.80025399883E-01  0.88820157982E+00  0.88000000000E+00 0. -1.
        -11    1    4    4    0    0 -0.18582114798E-01  0.40380527819E-01  0.54860310382E-01  0.70610174858E-01  0.51100000000E-03 0.  1.
         11    1    4    4    0    0 -0.31721143180E-01  0.24846863398E-01  0.46382408552E-01  0.61442546248E-01  0.51100000000E-03 0. -1.
</event>
<event>
 8    1  0.1288024E+005  0.1043930E+01  0.7957747E-01            NaN
         13   -1    0    0    0    0  0.00000000000E+00  0.00000000000E+00  0.74505805969E-08  0.10566000000E+00  0.10566000000E+00 0. -1.
     999900   -1    0    0    0    0 -0.00000000000E+00 -0.00000000000E+00 -0.74505805969E-08  0.93827000000E+00  0.93827000000E+00 0. -1.
     999902    2    1    2    0    0 -0.39151727229E-02 -0.27292465524E-02 -0.30928384615E-01  0.10126355542E+01  0.10121518776E+01 0.  0.
     999903    2    3    3    0    0  0.12726713862E-01  0.36279587857E-01 -0.11984807259E+00  0.12713831959E+00  0.17955892172E-01 0.  0.
         14    1    1    2    0    0  0.39151727229E-02  0.27292465524E-02  0.30928384615E-01  0.31294445819E-01  0.00000000000E+00 0. -1.
     999901    1    3    3    0    0 -0.16641886585E-01 -0.39008834410E-01  0.88919687980E-01  0.88549723459E+00  0.88000000000E+00 0.  1.
        -11    1    4    4    0    0  0.44570018208E-02  0.82776637991E-02 -0.57801526951E-01  0.58563318059E-01  0.51100000000E-03 0.  1.
         11    1    4    4    0    0  0.82697120408E-02  0.28001924058E-01 -0.62046545643E-01  0.68575001535E-01  0.51100000000E-03 0. -1.
</event>
<event>
 8    1  0.1111182E+005  0.1043930E+01  0.7957747E-01            NaN
         13   -1    0    0    0    0  0.00000000000E+00  0.00000000000E+00  0.74505805969E-08  0.10566000000E+00  0.10566000000E+00 0.  1.
     999900   -1    0    0    0    0 -0.00000000000E+00 -0.00000000000E+00 -0.74505805969E-08  0.93827000000E+00  0.93827000000E+00 0. -1.
     999902    2    1    2    0    0  0.20850688207E-01  0.95085373897E-02  0.32470117177E-02  0.10207846642E+01  0.10205222311E+01 0.  0.
     999903    2    3    3    0    0  0.12231057744E+00 -0.27755482003E-01  0.40743029956E-01  0.13337908186E+00  0.19993520290E-01 0.  0.
         14    1    1    2    0    0 -0.20850688207E-01 -0.95085373897E-02 -0.32470117177E-02  0.23145335753E-01  0.00000000000E+00 0. -1.
     999901    1    3    3    0    0 -0.10145988923E+00  0.37264019392E-01 -0.37496018238E-01  0.88740558238E+00  0.88000000000E+00 0. -1.
        -11    1    4    4    0    0  0.52614347924E-01 -0.63908759866E-02  0.25863139410E-01  0.58976910774E-01  0.51100000000E-03 0.  1.
         11    1    4    4    0    0  0.69696229516E-01 -0.21364606016E-01  0.14879890546E-01  0.74402171088E-01  0.51100000000E-03 0. -1.
</event>
<event>
 8    1  0.1111182E+005  0.1043930E+01  0.7957747E-01            NaN
         13   -1    0    0    0    0  0.00000000000E+00  0.00000000000E+00  0.74505805969E-08  0.10566000000E+00  0.10566000000E+00 0. -1.
     999900   -1    0    0    0    0 -0.00000000000E+00 -0.00000000000E+00 -0.74505805969E-08  0.93827000000E+00  0.93827000000E+00 0. -1.
     999902    2    1    2    0    0 -0.99208211513E-02  0.10260956301E-01  0.19014541894E-01  0.10201547456E+01  0.10198776605E+01 0.  0.
     999903    2    3    3    0    0 -0.54235127601E-01  0.66740204040E-01  0.10003191906E+00  0.13352208293E+00  0.20641169968E-01 0.  0.
         14    1    1    2    0    0  0.99208211513E-02 -0.10260956301E-01 -0.19014541894E-01  0.23775254362E-01  0.00000000000E+00 0.  1.
     999901    1    3    3    0    0  0.44314306449E-01 -0.56479247738E-01 -0.81017377166E-01  0.88663266271E+00  0.88000000000E+00 0. -1.
        -11    1    4    4    0    0 -0.20988527738E-01  0.33718371918E-01  0.59631819279E-01  0.71649577060E-01  0.51100000000E-03 0. -1.
         11    1    4    4    0    0 -0.33246599862E-01  0.33021832122E-01  0.40400099781E-01  0.61872505868E-01  0.51100000000E-03 0.  1.
</event>
<event>
 8    1  0.1111182E+005  0.1043930E+01  0.7957747E-01            NaN
         13   -1    0    0    0    0  0.00000000000E+00  0.00000000000E+00  0.74505805969E-08  0.10566000000E+00  0.10566000000E+00 0.  1.
     999900   -1    0    0    0    0 -0.00000000000E+00 -0.00000000000E+00 -0.74505805969E-08  0.93827000000E+00  0.93827000000E+00 0. -1.
     999902    2    1    2    0    0  0.20712165458E-01  0.66248511649E-02 -0.23409958346E-02  0.10220584954E+01  0.10218244494E+01 0.  0.
     999903    2    3    3    0    0  0.70285584939E-01  0.10363561078E+00 -0.43866883401E-01  0.13436879134E+00  0.21219457007E-01 0.  0.
         14    1    1    2    0    0 -0.20712165458E-01 -0.66248511649E-02  0.23409958346E-02  0.21871504576E-01  0.00000000000E+00 0. -1.
     999901    1    3    3    0    0 -0.49573419481E-01 -0.97010759611E-01  0.41525887566E-01  0.88768970408E+00  0.88000000000E+00 0.  1.
        -11    1    4    4    0    0  0.61633411343E-02  0.95183013122E-02 -0.11068182854E-01  0.15854041330E-01  0.51100000000E-03 0. -1.
         11    1    4    4    0    0  0.64122243805E-01  0.94117309463E-01 -0.32798700547E-01  0.11851475001E+00  0.51100000000E-03 0.  1.
</event>
<event>
 8    1  0.1111182E+005  0.1043930E+01  0.7957747E-01            NaN
         13   -1    0    0    0    0  0.00000000000E+00  0.00000000000E+00  0.74505805969E-08  0.10566000000E+00  0.10566000000E+00 0. -1.
     999900   -1    0    0    0    0 -0.00000000000E+00 -0.00000000000E+00 -0.74505805969E-08  0.93827000000E+00  0.93827000000E+00 0.  1.
     999902    2    1    2    0    0 -0.77616420031E-02 -0.15295606433E-01 -0.19336035395E-01  0.10180827385E+01  0.10177545782E+01 0.  0.
     999903    2    3    3    0    0 -0.45862140458E-01 -0.97400513045E-01 -0.72663091368E-01  0.13183410601E+00  0.22585632422E-01 0.  0.
         14    1    1    2    0    0  0.77616420031E-02  0.15295606433E-01  0.19336035395E-01  0.25847261509E-01  0.00000000000E+00 0.  1.
     999901    1    3    3    0    0  0.38100498455E-01  0.82104906613E-01  0.53327055974E-01  0.88624863248E+00  0.88000000000E+00 0.  1.
        -11    1    4    4    0    0 -0.18259772056E-02 -0.20703178725E-01 -0.80048742106E-02  0.22277677936E-01  0.51100000000E-03 0. -1.
         11    1    4    4    0    0 -0.44036163252E-01 -0.76697334320E-01 -0.64658217158E-01  0.10955642808E+00  0.51100000000E-03 0.  1.
</event>
<event>
 8    1  0.1111182E+005  0.1043930E+01  0.7957747E-01            NaN
         13   -1    0    0    0    0  0.00000000000E+00  0.00000000000E+00  0.74505805969E-08  0.10566000000E+00  0.10566000000E+00 0.  1.
     999900   -1    0    0    0    0 -0.00000000000E+00 -0.00000000000E+00 -0.74505805969E-08  0.93827000000E+00  0.93827000000E+00 0.  1.
     999902    2    1    2    0    0  0.17431897106E-01  0.13077292633E-01 -0.11241269094E-01  0.10194095443E+01  0.10191145991E+01 0.  0.
     999903    2    3    3    0    0  0.10439113782E+00 -0.52413493331E-01  0.54370823987E-01  0.13027743970E+00  0.19270206404E-01 0.  0.
         14    1    1    2    0    0 -0.17431897106E-01 -0.13077292633E-01  0.11241269094E-01  0.24520455750E-01  0.00000000000E+00 0.  1.
     999901    1    3    3    0    0 -0.86959240711E-01  0.65490785964E-01 -0.65612093082E-01  0.88913210455E+00  0.88000000000E+00 0.  1.
        -11    1    4    4    0    0  0.90463060028E-01 -0.38456054082E-01  0.48998814068E-01  0.10983432171E+00  0.51100000000E-03 0.  1.
         11    1    4    4    0    0  0.13928077789E-01 -0.13957439248E-01  0.53720099190E-02  0.20443117982E-01  0.51100000000E-03 0. -1.
</event>
<event>
 8    1  0.1111182E+005  0.1043930E+01  0.7957747E-01            NaN
         13   -1    0    0    0    0  0.00000000000E+00  0.00000000000E+00  0.74505805969E-08  0.10566000000E+00  0.10566000000E+00 0.  1.
     999900   -1    0    0    0    0 -0.00000000000E+00 -0.00000000000E+00 -0.74505805969E-08  0.93827000000E+00  0.93827000000E+00 0.  1.
     999902    2    1    2    0    0 -0.31563228927E-02  0.22880610945E-01 -0.52547785108E-02  0.10202425048E+01  0.10199674854E+01 0.  0.
     999903    2    3    3    0    0 -0.43211016156E-01  0.12460909877E+00 -0.36846002729E-03  0.13346353584E+00  0.20439183501E-01 0.  0.
         14    1    1    2    0    0  0.31563228927E-02 -0.22880610945E-01  0.52547785108E-02  0.23687495195E-01  0.00000000000E+00 0.  1.
     999901    1    3    3    0    0  0.40054693264E-01 -0.10172848783E+00 -0.48863184835E-02  0.88677896896E+00  0.88000000000E+00 0.  1.
        -11    1    4    4    0    0 -0.34379719415E-01  0.69900252852E-01 -0.32754002797E-02  0.77967941000E-01  0.51100000000E-03 0.  1.
         11    1    4    4    0    0 -0.88312967416E-02  0.54708845921E-01  0.29069402524E-02  0.55495594841E-01  0.51100000000E-03 0. -1.
</event>
<event>
 8    1  0.1111182E+005  0.1043930E+01  0.7957747E-01            NaN
         13   -1    0    0    0    0  0.00000000000E+00  0.00000000000E+00  0.74505805969E-08  0.10566000000E+00  0.10566000000E+00 0. -1.
     999900   -1    0    0    0    0 -0.00000000000E+00 -0.00000000000E+00 -0.74505805969E-08  0.93827000000E+00  0.93827000000E+00 0. -1.
     999902    2    1    2    0    0 -0.33559083514E-02 -0.95491968041E-02  0.23335574222E-01  0.10184938386E+01  0.10181761641E+01 0.  0.
     999903    2    3    3    0    0  0.43476132104E-02 -0.39231352711E-01 -0.11878372488E+00  0.12656431799E+00  0.18733726693E-01 0.  0.
         14    1    1    2    0    0  0.33559083514E-02  0.95491968041E-02 -0.23335574222E-01  0.25436161360E-01  0.00000000000E+00 0.  1.
     999901    1    3    3    0    0 -0.77035215617E-02  0.29682155907E-01  0.14211929910E+00  0.89192952065E+00  0.88000000000E+00 0.  1.
        -11    1    4    4    0    0 -0.36593944945E-02 -0.21553011732E-02 -0.25603181606E-01  0.25958053096E-01  0.51100000000E-03 0.  1.
         11    1    4    4    0    0  0.80070077049E-02 -0.37076051538E-01 -0.93180543277E-01  0.10060626490E+00  0.51100000000E-03 0. -1.
</event>
<event>
 8    1  0.1111182E+005  0.1043930E+01  0.7957747E-01            NaN
         13   -1    0    0    0    0  0.00000000000E+00  0.00000000000E+00  0.74505805969E-08  0.10566000000E+00  0.10566000000E+00 0.  1.
     999900   -1    0    0    0    0 -0.00000000000E+00 -0.00000000000E+00 -0.74505805969E-08  0.93827000000E+00  0.93827000000E+00 0.  1.
     999902    2    1    2    0    0  0.19622481553E-01 -0.23469709442E-03 -0.12491169988E-01  0.10206678807E+01  0.10204027619E+01 0.  0.
     999903    2    3    3    0    0 -0.41171546998E-01 -0.79428227810E-01 -0.93853577178E-01  0.13129317314E+00  0.20626771624E-01 0.  0.
         14    1    1    2    0    0 -0.19622481553E-01  0.23469709442E-03  0.12491169988E-01  0.23262119265E-01  0.00000000000E+00 0.  1.
     999901    1    3    3    0    0  0.60794028551E-01  0.79193530715E-01  0.81362407190E-01  0.88937470760E+00  0.88000000000E+00 0. -1.
        -11    1    4    4    0    0 -0.33007909086E-01 -0.48015996598E-01 -0.50316573809E-01  0.76987510107E-01  0.51100000000E-03 0.  1.
         11    1    4    4    0    0 -0.81636379119E-02 -0.31412231212E-01 -0.43537003368E-01  0.54305663028E-01  0.51100000000E-03 0. -1.
</event>
<event>
 8    1  0.1111182E+005  0.1043930E+01  0.7957747E-01            NaN
         13   -1    0    0    0    0  0.00000000000E+00  0.00000000000E+00  0.74505805969E-08  0.10566000000E+00  0.10566000000E+00 0. -1.
     999900   -1    0    0    0    0 -0.00000000000E+00 -0.00000000000E+00 -0.74505805969E-08  0.93827000000E+00  0.93827000000E+00 0.  1.
     999902    2    1    2    0    0 -0.16346350943E-01 -0.17904811759E-01  0.94403250677E-02  0.10179125979E+01  0.10175800469E+01 0.  0.
     999903    2    3    3    0    0  0.11408394480E+00  0.28134429629E-01 -0.39838507321E-01  0.12574665085E+00  0.20455340236E-01 0.  0.
         14    1    1    2    0    0  0.16346350943E-01  0.17904811759E-01 -0.94403250677E-02  0.26017402074E-01  0.00000000000E+00 0.  1.
     999901    1    3    3    0    0 -0.13043029574E+00 -0.46039241387E-01  0.49278832388E-01  0.89216594707E+00  0.88000000000E+00 0. -1.
        -11    1    4    4    0    0  0.25808474330E-01 -0.11574555501E-03 -0.29232756266E-02  0.25978787609E-01  0.51100000000E-03 0.  1.
         11    1    4    4    0    0  0.88275470468E-01  0.28250175184E-01 -0.36915231694E-01  0.99767863244E-01  0.51100000000E-03 0. -1.
</event>
<event>
 8    1  0.1111182E+005  0.1043930E+01  0.7957747E-01            NaN
         13   -1    0    0    0    0  0.00000000000E+00  0.00000000000E+00  0.74505805969E-08  0.10566000000E+00  0.10566000000E+00 0. -1.
     999900   -1    0    0    0    0 -0.00000000000E+00 -0.00000000000E+00 -0.74505805969E-08  0.93827000000E+00  0.93827000000E+00 0. -1.
     999902    2    1    2    0    0 -0.80424014203E-02  0.15401563397E-01 -0.16331787974E-01  0.10200843364E+01  0.10198055882E+01 0.  0.
     999903    2    3    3    0    0 -0.18941801777E-01 -0.46767100709E-01 -0.12028184237E+00  0.13172103595E+00  0.18350916669E-01 0.  0.
         14    1    1    2    0    0  0.80424014203E-02 -0.15401563397E-01  0.16331787974E-01  0.23845663633E-01  0.00000000000E+00 0. -1.
     999901    1    3    3    0    0  0.10899400357E-01  0.62168664106E-01  0.10395005440E+00  0.88836330042E+00  0.88000000000E+00 0.  1.
        -11    1    4    4    0    0 -0.19423118334E-01 -0.24651181288E-01 -0.65232903331E-01  0.72391512367E-01  0.51100000000E-03 0. -1.
         11    1    4    4    0    0  0.48131655672E-03 -0.22115919421E-01 -0.55048939042E-01  0.59329523579E-01  0.51100000000E-03 0.  1.
</event>
<event>
 8    1  0.1111182E+005  0.1043930E+01  0.7957747E-01            NaN
         13   -1    0    0    0    0  0.00000000000E+00  0.00000000000E+00  0.74505805969E-08  0.10566000000E+00  0.10566000000E+00 0. -1.
     999900   -1    0    0    0    0 -0.00000000000E+00 -0.00000000000E+00 -0.74505805969E-08  0.93827000000E+00  0.93827000000E+00 0.  1.
     999902    2    1    2    0    0 -0.20041299918E-01 -0.28079573694E-02 -0.12596746065E-01  0.10200927112E+01  0.10198141610E+01 0.  0.
     999903    2    3    3    0    0 -0.10898918610E+00  0.36338835756E-01 -0.64361605315E-01  0.13323094150E+00  0.20221618666E-01 0.  0.
         14    1    1    2    0    0  0.20041299918E-01  0.28079573694E-02  0.12596746065E-01  0.23837288823E-01  0.00000000000E+00 0. -1.
     999901    1    3    3    0    0  0.88947886185E-01 -0.39146793126E-01  0.51764859250E-01  0.88686176968E+00  0.88000000000E+00 0. -1.
        -11    1    4    4    0    0 -0.65216335870E-01  0.18457934173E-01 -0.26977601607E-01  0.72951476391E-01  0.51100000000E-03 0. -1.
         11    1    4    4    0    0 -0.43772850234E-01  0.17880901583E-01 -0.37384003708E-01  0.60279465104E-01  0.51100000000E-03 0.  1.
</event>
<event>
 8    1  0.1111182E+005  0.1043930E+01  0.7957747E-01            NaN
         13   -1    0    0    0    0  0.00000000000E+00  0.00000000000E+00  0.74505805969E-08  0.10566000000E+00  0.10566000000E+00 0. -1.
     999900   -1    0    0    0    0 -0.00000000000E+00 -0.00000000000E+00 -0.74505805969E-08  0.93827000000E+00  0.93827000000E+00 0.  1.
     999902    2    1    2    0    0  0.15485467223E-01  0.18046475547E-01 -0.45830143301E-02  0.10197126716E+01  0.10194250603E+01 0.  0.
     999903    2    3    3    0    0  0.81428716856E-01 -0.98772598919E-01 -0.36976015966E-02  0.12954639932E+00  0.19543159778E-01 0.  0.
         14    1    1    2    0    0 -0.15485467223E-01 -0.18046475547E-01  0.45830143301E-02  0.24217328406E-01  0.00000000000E+00 0. -1.
     999901    1    3    3    0    0 -0.65943249633E-01  0.11681907447E+00 -0.88541273342E-03  0.89016627227E+00  0.88000000000E+00 0.  1.
        -11    1    4    4    0    0  0.44416711418E-01 -0.38735619472E-01 -0.39072575839E-03  0.58938156204E-01  0.51100000000E-03 0.  1.
         11    1    4    4    0    0  0.37012005438E-01 -0.60036979447E-01 -0.33068758383E-02  0.70608243120E-01  0.51100000000E-03 0. -1.
</event>
<event>
 8    1  0.1111182E+005  0.1043930E+01  0.7957747E-01            NaN
         13   -1    0    0    0    0  0.00000000000E+00  0.00000000000E+00  0.74505805969E-08  0.10566000000E+00  0.10566000000E+00 0.  1.
     999900   -1    0    0    0    0 -0.00000000000E+00 -0.00000000000E+00 -0.74505805969E-08  0.93827000000E+00  0.93827000000E+00 0.  1.
     999902    2    1    2    0    0 -0.17272175873E-01  0.11589476602E-01  0.10734322322E-01  0.10205233833E+01  0.10202549222E+01 0.  0.
     999903    2    3    3    0    0  0.54168258898E-01  0.11710519264E+00  0.11009310590E-01  0.13134546096E+00  0.21968131005E-01 0.  0.
         14    1    1    2    0    0  0.17272175873E-01 -0.11589476602E-01 -0.10734322322E-01  0.23406616650E-01  0.00000000000E+00 0. -1.
     999901    1    3    3    0    0 -0.71440434771E-01 -0.10551571604E+00 -0.27498826801E-03  0.88917792239E+00  0.88000000000E+00 0.  1.
        -11    1    4    4    0    0  0.35913539777E-01  0.56537568220E-01  0.12148272373E-01  0.68074375519E-01  0.51100000000E-03 0. -1.
         11    1    4    4    0    0  0.18254719121E-01  0.60567624417E-01 -0.11389617832E-02  0.63271085439E-01  0.51100000000E-03 0.  1.
</event>
<event>
 8    1  0.1111182E+005  0.1043930E+01  0.7957747E-01            NaN
         13   -1    0    0    0    0  0.00000000000E+00  0.00000000000E+00  0.74505805969E-08  0.10566000000E+00  0.10566000000E+00 0.  1.
     999900   -1    0    0    0    0 -0.00000000000E+00 -0.00000000000E+00 -0.74505805969E-08  0.93827000000E+00  0.93827000000E+00 0. -1.
     999902    2    1    2    0    0 -0.11699412924E-01  0.15379949174E-01  0.14111616394E-01  0.10200018405E+01  0.10197211373E+01 0.  0.
     999903    2    3    3    0    0 -0.36069017691E-01 -0.11312755833E-01  0.12481471080E+00  0.13232985534E+00  0.22439387296E-01 0.  0.
         14    1    1    2    0    0  0.11699412924E-01 -0.15379949174E-01 -0.14111616394E-01  0.23928159491E-01  0.00000000000E+00 0.  1.
     999901    1    3    3    0    0  0.24369604766E-01  0.26692705007E-01 -0.11070309440E+00  0.88767198517E+00  0.88000000000E+00 0. -1.
        -11    1    4    4    0    0 -0.26349223145E-01  0.18498051089E-02  0.91058640349E-01  0.94813714422E-01  0.51100000000E-03 0. -1.
         11    1    4    4    0    0 -0.97197945455E-02 -0.13162560942E-01  0.33756070448E-01  0.37516140922E-01  0.51100000000E-03 0.  1.
</event>
<event>
 8    1  0.1111182E+005  0.1043930E+01  0.7957747E-01            NaN
         13   -1    0    0    0    0  0.00000000000E+00  0.00000000000E+00  0.74505805969E-08  0.10566000000E+00  0.10566000000E+00 0.  1.
     999900   -1    0    0    0    0 -0.00000000000E+00 -0.00000000000E+00 -0.74505805969E-08  0.93827000000E+00  0.93827000000E+00 0. -1.
     999902    2    1    2    0    0  0.21230572238E-01 -0.89512045550E-02  0.54087912791E-02  0.10202632241E+01  0.10199886912E+01 0.  0.
     999903    2    3    3    0    0 -0.53802855507E-01  0.80290432682E-01 -0.81959338968E-01  0.12828380990E+00  0.19952488490E-01 0.  0.
         14    1    1    2    0    0 -0.21230572238E-01  0.89512045550E-02 -0.54087912791E-02  0.23666775945E-01  0.00000000000E+00 0.  1.
     999901    1    3    3    0    0  0.75033427745E-01 -0.89241637237E-01  0.87368130247E-01  0.89197941416E+00  0.88000000000E+00 0.  1.
        -11    1    4    4    0    0 -0.16253806728E-01  0.16799701323E-01 -0.30097777790E-01  0.38112380490E-01  0.51100000000E-03 0. -1.
         11    1    4    4    0    0 -0.37549048779E-01  0.63490731360E-01 -0.51861561177E-01  0.90171429408E-01  0.51100000000E-03 0.  1.
</event>
<event>
 8    1  0.1111182E+005  0.1043930E+01  0.7957747E-01            NaN
         13   -1    0    0    0    0  0.00000000000E+00  0.00000000000E+00  0.74505805969E-08  0.10566000000E+00  0.10566000000E+00 0.  1.
     999900   -1    0    0    0    0 -0.00000000000E+00 -0.00000000000E+00 -0.74505805969E-08  0.93827000000E+00  0.93827000000E+00 0. -1.
     999902    2    1    2    0    0 -0.13464542445E-01 -0.17032721065E-01  0.38024943838E-02  0.10218876214E+01  0.10216498639E+01 0.  0.
     999903    2    3    3    0    0 -0.22903569751E-01 -0.11634374231E+00 -0.58899375694E-01  0.13403442483E+00  0.20872247149E-01 0.  0.
         14    1    1    2    0    0  0.13464542445E-01  0.17032721065E-01 -0.38024943838E-02  0.22042378585E-01  0.00000000000E+00 0. -1.
     999901    1    3    3    0    0  0.94390273061E-02  0.99311021240E-01  0.62701870078E-01  0.88785319659E+00  0.88000000000E+00 0.  1.
        -11    1    4    4    0    0 -0.19465397038E-01 -0.97533969551E-01 -0.57432466937E-01  0.11485001645E+00  0.51100000000E-03 0. -1.
         11    1    4    4    0    0 -0.34381727132E-02 -0.18809772755E-01 -0.14669087568E-02  0.19184408383E-01  0.51100000000E-03 0.  1.
</event>
<event>
 8    1  0.1111182E+005  0.1043930E+01  0.7957747E-01            NaN
         13   -1    0    0    0    0  0.00000000000E+00  0.00000000000E+00  0.74505805969E-08  0.10566000000E+00  0.10566000000E+00 0. -1.
     999900   -1    0    0    0    0 -0.00000000000E+00 -0.00000000000E+00 -0.74505805969E-08  0.93827000000E+00  0.93827000000E+00 0.  1.
     999902    2    1    2    0    0 -0.13912371913E-01  0.19606290730E-01 -0.54774579600E-02  0.10192730887E+01  0.10189748113E+01 0.  0.
     999903    2    3    3    0    0 -0.97991601108E-01  0.25704033194E-01 -0.82079140093E-01  0.13193193845E+00  0.20149440060E-01 0.  0.
         14    1    1    2    0    0  0.13912371913E-01 -0.19606290730E-01  0.54774579600E-02  0.24656911286E-01  0.00000000000E+00 0. -1.
     999901    1    3    3    0    0  0.84079229196E-01 -0.60977424638E-02  0.76601682133E-01  0.88734115026E+00  0.88000000000E+00 0.  1.
        -11    1    4    4    0    0 -0.27830866549E-01 -0.18839314291E-02 -0.22314234629E-01  0.35725236439E-01  0.51100000000E-03 0. -1.
         11    1    4    4    0    0 -0.70160734559E-01  0.27587964623E-01 -0.59764905464E-01  0.96206702012E-01  0.51100000000E-03 0.  1.
</event>
<event>
 8    1  0.1111182E+005  0.1043930E+01  0.7957747E-01            NaN
         13   -1    0    0    0    0  0.00000000000E+00  0.00000000000E+00  0.74505805969E-08  0.10566000000E+00  0.10566000000E+00 0.  1.
     999900   -1    0    0    0    0 -0.00000000000E+00 -0.00000000000E+00 -0.74505805969E-08  0.93827000000E+00  0.93827000000E+00 0. -1.
     999902    2    1    2    0    0  0.72508223340E-02 -0.20658817244E-01  0.15267236972E-02  0.10219825163E+01  0.10217468236E+01 0.  0.
     999903    2    3    3    0    0 -0.47069969666E-01 -0.15302693065E-01 -0.12075671104E+00  0.13185180967E+00  0.18787282756E-01 0.  0.
         14    1    1    2    0    0 -0.72508223340E-02  0.20658817244E-01 -0.15267236972E-02  0.21947483676E-01  0.00000000000E+00 0. -1.
     999901    1    3    3    0    0  0.54320792000E-01 -0.53561241792E-02  0.12228343474E+00  0.89013070665E+00  0.88000000000E+00 0.  1.
        -11    1    4    4    0    0 -0.14431788778E-01 -0.33923369548E-02 -0.60522231977E-01  0.62313611369E-01  0.51100000000E-03 0. -1.
         11    1    4    4    0    0 -0.32638180888E-01 -0.11910356110E-01 -0.60234479065E-01  0.69538198306E-01  0.51100000000E-03 0.  1.
</event>
<event>
 8    1  0.1111182E+005  0.1043930E+01  0.7957747E-01            NaN
         13   -1    0    0    0    0  0.00000000000E+00  0.00000000000E+00  0.74505805969E-08  0.10566000000E+00  0.10566000000E+00 0. -1.
     999900   -1    0    0    0    0 -0.00000000000E+00 -0.00000000000E+00 -0.74505805969E-08  0.93827000000E+00  0.93827000000E+00 0.  1.
     999902    2    1    2    0    0 -0.23548025930E-02  0.51737920800E-02  0.31649267046E-01  0.10117742956E+01  0.10112631883E+01 0.  0.
     999903    2    3    3    0    0 -0.75878917285E-01 -0.93325547558E-01 -0.10079297360E-01  0.12225240806E+00  0.19411108338E-01 0.  0.
         14    1    1    2    0    0  0.23548025930E-02 -0.51737920800E-02 -0.31649267046E-01  0.32155704382E-01  0.00000000000E+00 0.  1.
     999901    1    3    3    0    0  0.73524114692E-01  0.98499339638E-01  0.41728564406E-01  0.88952188755E+00  0.88000000000E+00 0. -1.
        -11    1    4    4    0    0 -0.41940294133E-01 -0.50219347146E-01 -0.15121053608E-01  0.67155628826E-01  0.51100000000E-03 0.  1.
         11    1    4    4    0    0 -0.33938623151E-01 -0.43106200412E-01  0.50417562486E-02  0.55096779238E-01  0.51100000000E-03 0. -1.
</event>
<event>
 8    1  0.1111182E+005  0.1043930E+01  0.7957747E-01            NaN
         13   -1    0    0    0    0  0.00000000000E+00  0.00000000000E+00  0.74505805969E-08  0.10566000000E+00  0.10566000000E+00 0.  1.
     999900   -1    0    0    0    0 -0.00000000000E+00 -0.00000000000E+00 -0.74505805969E-08  0.93827000000E+00  0.93827000000E+00 0.  1.
     999902    2    1    2    0    0 -0.17727738005E-02 -0.16028392013E-01  0.16661688891E-01  0.10207424181E+01  0.10204790151E+01 0.  0.
     999903    2    3    3    0    0 -0.75221335041E-01  0.43482946318E-01 -0.93020121531E-01  0.12890925541E+00  0.20392088068E-01 0.  0.
         14    1    1    2    0    0  0.17727738005E-02  0.16028392013E-01 -0.16661688891E-01  0.23187581895E-01  0.00000000000E+00 0. -1.
     999901    1    3    3    0    0  0.73448561240E-01 -0.59511338331E-01  0.10968181042E+00  0.89183316269E+00  0.88000000000E+00 0. -1.
        -11    1    4    4    0    0 -0.58922306275E-02  0.30634291782E-03 -0.14277458507E-01  0.15457010389E-01  0.51100000000E-03 0. -1.
         11    1    4    4    0    0 -0.69329104413E-01  0.43176603400E-01 -0.78742663024E-01  0.11345224502E+00  0.51100000000E-03 0.  1.
</event>
<event>
 8    1  0.1111182E+005  0.1043930E+01  0.7957747E-01            NaN
         13   -1    0    0    0    0  0.00000000000E+00  0.00000000000E+00  0.74505805969E-08  0.10566000000E+00  0.10566000000E+00 0. -1.
     999900   -1    0    0    0    0 -0.00000000000E+00 -0.00000000000E+00 -0.74505805969E-08  0.93827000000E+00  0.93827000000E+00 0. -1.
     999902    2    1    2    0    0  0.14490806170E-01 -0.62679838784E-02  0.18410346310E-01  0.10196769190E+01  0.10193884477E+01 0.  0.
     999903    2    3    3    0    0 -0.14897478612E-01  0.12435570922E+00  0.28070364742E-01  0.12949742228E+00  0.17186032590E-01 0.  0.
         14    1    1    2    0    0 -0.14490806170E-01  0.62679838784E-02 -0.18410346310E-01  0.24253080971E-01  0.00000000000E+00 0.  1.
     999901    1    3    3    0    0  0.29388284782E-01 -0.13062369309E+00 -0.96600184321E-02  0.89017949675E+00  0.88000000000E+00 0.  1.
        -11    1    4    4    0    0 -0.12420821865E-01  0.41521417292E-01  0.61679472614E-02  0.43779100084E-01  0.51100000000E-03 0.  1.
         11    1    4    4    0    0 -0.24766567469E-02  0.82834291924E-01  0.21902417481E-01  0.85718322194E-01  0.51100000000E-03 0. -1.
</event>
<event>
 8    1  0.1111182E+005  0.1043930E+01  0.7957747E-01            NaN
         13   -1    0    0    0    0  0.00000000000E+00  0.00000000000E+00  0.74505805969E-08  0.10566000000E+00  0.10566000000E+00 0.  1.
     999900   -1    0    0    0    0 -0.00000000000E+00 -0.00000000000E+00 -0.74505805969E-08  0.93827000000E+00  0.93827000000E+00 0. -1.
     999902    2    1    2    0    0  0.17698268085E-01 -0.85219608579E-02 -0.13225135230E-01  0.10202496978E+01  0.10199748473E+01 0.  0.
     999903    2    3    3    0    0  0.20986257943E-01 -0.11599596855E+00 -0.57584301938E-01  0.13259593148E+00  0.19241659853E-01 0.  0.
         14    1    1    2    0    0 -0.17698268085E-01  0.85219608579E-02  0.13225135230E-01  0.23680302192E-01  0.00000000000E+00 0.  1.
     999901    1    3    3    0    0 -0.32879898583E-02  0.10747400769E+00  0.44359166708E-01  0.88765376633E+00  0.88000000000E+00 0.  1.
        -11    1    4    4    0    0  0.74618948885E-02 -0.42554029821E-01 -0.31588365484E-01  0.53522063528E-01  0.51100000000E-03 0.  1.
         11    1    4    4    0    0  0.13524363055E-01 -0.73441938725E-01 -0.25995936454E-01  0.79073867952E-01  0.51100000000E-03 0. -1.
</event>
<event>
 8    1  0.1111182E+005  0.1043930E+01  0.7957747E-01            NaN
         13   -1    0    0    0    0  0.00000000000E+00  0.00000000000E+00  0.74505805969E-08  0.10566000000E+00  0.10566000000E+00 0. -1.
     999900   -1    0    0    0    0 -0.00000000000E+00 -0.00000000000E+00 -0.74505805969E-08  0.93827000000E+00  0.93827000000E+00 0. -1.
     999902    2    1    2    0    0 -0.14942054510E-01 -0.10683908373E-01 -0.13852832469E-01  0.10209232215E+01  0.10206639566E+01 0.  0.
     999903    2    3    3    0    0 -0.10464071080E+00  0.43910776147E-02  0.77018619461E-01  0.13158036018E+00  0.20311659758E-01 0.  0.
         14    1    1    2    0    0  0.14942054510E-01  0.10683908373E-01  0.13852832469E-01  0.23006778534E-01  0.00000000000E+00 0. -1.
     999901    1    3    3    0    0  0.89698656291E-01 -0.15074985987E-01 -0.90871451931E-01  0.88934286129E+00  0.88000000000E+00 0. -1.
        -11    1    4    4    0    0 -0.20427283801E-01 -0.24498716177E-02  0.66654213587E-02  0.21632493090E-01  0.51100000000E-03 0.  1.
         11    1    4    4    0    0 -0.84213427000E-01  0.68409492324E-02  0.70353198103E-01  0.10994786709E+00  0.51100000000E-03 0. -1.
</event>
<event>
 8    1  0.1111182E+005  0.1043930E+01  0.7957747E-01            NaN
         13   -1    0    0    0    0  0.00000000000E+00  0.00000000000E+00  0.74505805969E-08  0.10566000000E+00  0.10566000000E+00 0.  1.
     999900   -1    0    0    0    0 -0.00000000000E+00 -0.00000000000E+00 -0.74505805969E-08  0.93827000000E+00  0.93827000000E+00 0.  1.
     999902    2    1    2    0    0 -0.24463527358E-02  0.27836526670E-02  0.23291804854E-01  0.10203452266E+01  0.10200726150E+01 0.  0.
     999903    2    3    3    0    0  0.28770174007E-01  0.12461631530E+00 -0.18158433484E-01  0.13043748334E+00  0.18090312389E-01 0.  0.
         14    1    1    2    0    0  0.24463527358E-02 -0.27836526670E-02 -0.23291804854E-01  0.23584773419E-01  0.00000000000E+00 0. -1.
     999901    1    3    3    0    0 -0.31216526742E-01 -0.12183266263E+00  0.41450238338E-01  0.88990774324E+00  0.88000000000E+00 0. -1.
        -11    1    4    4    0    0  0.23056641665E-01  0.60930341333E-01 -0.69463460803E-02  0.65518150650E-01  0.51100000000E-03 0.  1.
         11    1    4    4    0    0  0.57135323412E-02  0.63685973965E-01 -0.11212087404E-01  0.64919332688E-01  0.51100000000E-03 0. -1.
</event>
<event>
 8    1  0.1111182E+005  0.1043930E+01  0.7957747E-01            NaN
         13   -1    0    0    0    0  0.00000000000E+00  0.00000000000E+00  0.74505805969E-08  0.10566000000E+00  0.10566000000E+00 0.  1.
     999900   -1    0    0    0    0 -0.00000000000E+00 -0.00000000000E+00 -0.74505805969E-08  0.93827000000E+00  0.93827000000E+00 0. -1.
     999902    2    1    2    0    0  0.34655784317E-02  0.86553898570E-02  0.22504867903E-01  0.10195702979E+01  0.10192792538E+01 0.  0.
     999903    2    3    3    0    0 -0.52321322328E-01 -0.73151242687E-01 -0.87455891127E-01  0.12721617987E+00  0.21137607511E-01 0.  0.
         14    1    1    2    0    0 -0.34655784317E-02 -0.86553898570E-02 -0.22504867903E-01  0.24359702108E-01  0.00000000000E+00 0. -1.
     999901    1    3    3    0    0  0.55786900759E-01  0.81806632544E-01  0.10996075903E+00  0.89235411802E+00  0.88000000000E+00 0.  1.
        -11    1    4    4    0    0 -0.16467590162E-01 -0.37640260141E-01 -0.30847992657E-01  0.51379280661E-01  0.51100000000E-03 0. -1.
         11    1    4    4    0    0 -0.35853732166E-01 -0.35510982546E-01 -0.56607898470E-01  0.75836899210E-01  0.51100000000E-03 0.  1.
</event>
<event>
 8    1  0.1111182E+005  0.1043930E+01  0.7957747E-01            NaN
         13   -1    0    0    0    0  0.00000000000E+00  0.00000000000E+00  0.74505805969E-08  0.10566000000E+00  0.10566000000E+00 0.  1.
     999900   -1    0    0    0    0 -0.00000000000E+00 -0.00000000000E+00 -0.74505805969E-08  0.93827000000E+00  0.93827000000E+00 0.  1.
     999902    2    1    2    0    0  0.22019671597E-01 -0.54461396257E-02 -0.31801137370E-02  0.10210249897E+01  0.10207680393E+01 0.  0.
     999903    2    3    3    0    0  0.13158541561E+00 -0.16550697542E-01  0.15650789460E-02  0.13414817732E+00  0.20115586336E-01 0.  0.
         14    1    1    2    0    0 -0.22019671597E-01  0.54461396257E-02  0.31801137370E-02  0.22905010314E-01  0.00000000000E+00 0.  1.
     999901    1    3    3    0    0 -0.10956574402E+00  0.11104557916E-01 -0.47451926830E-02  0.88687681237E+00  0.88000000000E+00 0.  1.
        -11    1    4    4    0    0  0.43780844217E-01  0.22082922046E-02 -0.49852046899E-02  0.44122015611E-01  0.51100000000E-03 0.  1.
         11    1    4    4    0    0  0.87804571397E-01 -0.18758989747E-01  0.65502836358E-02  0.90026161704E-01  0.51100000000E-03 0. -1.
</event>
<event>
 8    1  0.1111182E+005  0.1043930E+01  0.7957747E-01            NaN
         13   -1    0    0    0    0  0.00000000000E+00  0.00000000000E+00  0.74505805969E-08  0.10566000000E+00  0.10566000000E+00 0. -1.
     999900   -1    0    0    0    0 -0.00000000000E+00 -0.00000000000E+00 -0.74505805969E-08  0.93827000000E+00  0.93827000000E+00 0. -1.
     999902    2    1    2    0    0 -0.11952610911E-01 -0.10212013152E-01  0.16818734244E-01  0.10209078380E+01  0.10206482224E+01 0.  0.
     999903    2    3    3    0    0 -0.11567977141E+00  0.47279389240E-01 -0.35286312666E-01  0.13142511134E+00  0.20255514486E-01 0.  0.
         14    1    1    2    0    0  0.11952610911E-01  0.10212013152E-01 -0.16818734244E-01  0.23022161970E-01  0.00000000000E+00 0.  1.
     999901    1    3    3    0    0  0.10372716050E+00 -0.57491402391E-01  0.52105046911E-01  0.88948272669E+00  0.88000000000E+00 0.  1.
        -11    1    4    4    0    0 -0.41018752253E-01  0.26309594849E-01 -0.91335904472E-02  0.49582420403E-01  0.51100000000E-03 0.  1.
         11    1    4    4    0    0 -0.74661019158E-01  0.20969794391E-01 -0.26152722219E-01  0.81842690932E-01  0.51100000000E-03 0. -1.
</event>
<event>
 8    1  0.1111182E+005  0.1043930E+01  0.7957747E-01            NaN
         13   -1    0    0    0    0  0.00000000000E+00  0.00000000000E+00  0.74505805969E-08  0.10566000000E+00  0.10566000000E+00 0. -1.
     999900   -1    0    0    0    0 -0.00000000000E+00 -0.00000000000E+00 -0.74505805969E-08  0.93827000000E+00  0.93827000000E+00 0.  1.
     999902    2    1    2    0    0 -0.17757059472E-01  0.14296331252E-01 -0.96373535882E-04  0.10211329051E+01  0.10208783974E+01 0.  0.
     999903    2    3    3    0    0  0.52546627559E-01  0.11929140075E+00 -0.61406842631E-02  0.13208672703E+00  0.20435486147E-01 0.  0.
         14    1    1    2    0    0  0.17757059472E-01 -0.14296331252E-01  0.96373535882E-04  0.22797094907E-01  0.00000000000E+00 0. -1.
     999901    1    3    3    0    0 -0.70303687030E-01 -0.10499506950E+00  0.60443107272E-02  0.88904617806E+00  0.88000000000E+00 0.  1.
        -11    1    4    4    0    0  0.25534219469E-01  0.47613642903E-01 -0.11706398194E-01  0.55284321774E-01  0.51100000000E-03 0.  1.
         11    1    4    4    0    0  0.27012408090E-01  0.71677757849E-01  0.55657139304E-02  0.76802405259E-01  0.51100000000E-03 0. -1.
</event>
<event>
 8    1  0.1111182E+005  0.1043930E+01  0.7957747E-01            NaN
         13   -1    0    0    0    0  0.00000000000E+00  0.00000000000E+00  0.74505805969E-08  0.10566000000E+00  0.10566000000E+00 0. -1.
     999900   -1    0    0    0    0 -0.00000000000E+00 -0.00000000000E+00 -0.74505805969E-08  0.93827000000E+00  0.93827000000E+00 0. -1.
     999902    2    1    2    0    0 -0.12459893330E-01  0.98272214370E-02  0.29746012337E-01  0.10102157823E+01  0.10096530485E+01 0.  0.
     999903    2    3    3    0    0 -0.69565427797E-01  0.98815393914E-01 -0.10635411792E-01  0.12296689035E+00  0.20097594873E-01 0.  0.
         14    1    1    2    0    0  0.12459893330E-01 -0.98272214370E-02 -0.29746012337E-01  0.33714217667E-01  0.00000000000E+00 0. -1.
     999901    1    3    3    0    0  0.57105534467E-01 -0.88988172477E-01  0.40381424129E-01  0.88724889198E+00  0.88000000000E+00 0.  1.
        -11    1    4    4    0    0 -0.50926570054E-01  0.64612175022E-01 -0.15469299295E-01  0.83712657587E-01  0.51100000000E-03 0.  1.
         11    1    4    4    0    0 -0.18638857743E-01  0.34203218892E-01  0.48338875028E-02  0.39254232765E-01  0.51100000000E-03 0. -1.
</event>
<event>
 8    1  0.1111182E+005  0.1043930E+01  0.7957747E-01            NaN
         13   -1    0    0    0    0  0.00000000000E+00  0.00000000000E+00  0.74505805969E-08  0.10566000000E+00  0.10566000000E+00 0.  1.
     999900   -1    0    0    0    0 -0.00000000000E+00 -0.00000000000E+00 -0.74505805969E-08  0.93827000000E+00  0.93827000000E+00 0.  1.
     999902    2    1    2    0    0 -0.22530105705E-01 -0.14434890619E-02 -0.75615901536E-02  0.10201210317E+01  0.10198431509E+01 0.  0.
     999903    2    3    3    0    0 -0.10905625091E+00 -0.56145625156E-01 -0.48185559595E-01  0.13325610156E+00  0.19741918910E-01 0.  0.
         14    1    1    2    0    0  0.22530105705E-01  0.14434890619E-02  0.75615901536E-02  0.23808968256E-01  0.00000000000E+00 0. -1.
     999901    1    3    3    0    0  0.86526145207E-01  0.54702136094E-01  0.40623969442E-01  0.88686493018E+00  0.88000000000E+00 0.  1.
        -11    1    4    4    0    0 -0.10522934355E+00 -0.57715088921E-01 -0.45849287803E-01  0.12847826488E+00  0.51100000000E-03 0.  1.
         11    1    4    4    0    0 -0.38269073618E-02  0.15694637649E-02 -0.23362717924E-02  0.47778366813E-02  0.51100000000E-03 0. -1.
</event>
<event>
 8    1  0.1111182E+005  0.1043930E+01  0.7957747E-01            NaN
         13   -1    0    0    0    0  0.00000000000E+00  0.00000000000E+00  0.74505805969E-08  0.10566000000E+00  0.10566000000E+00 0.  1.
     999900   -1    0    0    0    0 -0.00000000000E+00 -0.00000000000E+00 -0.74505805969E-08  0.93827000000E+00  0.93827000000E+00 0. -1.
     999902    2    1    2    0    0  0.16222337524E-01 -0.13105143645E-01  0.12163980416E-01  0.10197872693E+01  0.10195014484E+01 0.  0.
     999903    2    3    3    0    0 -0.17691020285E-01 -0.36533313079E-01  0.12293359536E+00  0.13188586571E+00  0.25170568946E-01 0.  0.
         14    1    1    2    0    0 -0.16222337524E-01  0.13105143645E-01 -0.12163980416E-01  0.24142730671E-01  0.00000000000E+00 0. -1.
     999901    1    3    3    0    0  0.33913357809E-01  0.23428169433E-01 -0.11076961495E+00  0.88790140362E+00  0.88000000000E+00 0. -1.
        -11    1    4    4    0    0 -0.14270901529E-01 -0.38996369791E-01  0.95684459635E-01  0.10430796913E+00  0.51100000000E-03 0.  1.
         11    1    4    4    0    0 -0.34201187561E-02  0.24630567125E-02  0.27249135727E-01  0.27577896576E-01  0.51100000000E-03 0. -1.
</event>
<event>
 8    1  0.1111182E+005  0.1043930E+01  0.7957747E-01            NaN
         13   -1    0    0    0    0  0.00000000000E+00  0.00000000000E+00  0.74505805969E-08  0.10566000000E+00  0.10566000000E+00 0. -1.
     999900   -1    0    0    0    0 -0.00000000000E+00 -0.00000000000E+00 -0.74505805969E-08  0.93827000000E+00  0.93827000000E+00 0.  1.
     999902    2    1    2    0    0 -0.14071456042E-01 -0.17832482454E-01 -0.63387040993E-02  0.10203464787E+01  0.10200738964E+01 0.  0.
     999903    2    3    3    0    0 -0.25533365586E-02  0.66330693776E-01 -0.11013152544E+00  0.13018410193E+00  0.20314207752E-01 0.  0.
         14    1    1    2    0    0  0.14071456042E-01  0.17832482454E-01  0.63387040993E-02  0.23583521265E-01  0.00000000000E+00 0. -1.
     999901    1    3    3    0    0 -0.11518119483E-01 -0.84163176229E-01  0.10379282134E+00  0.89016237680E+00  0.88000000000E+00 0. -1.
        -11    1    4    4    0    0 -0.74828380226E-02  0.14966466148E-01 -0.17971321939E-01  0.24560486703E-01  0.51100000000E-03 0. -1.
         11    1    4    4    0    0  0.49295014640E-02  0.51364227628E-01 -0.92160203500E-01  0.10562361523E+00  0.51100000000E-03 0.  1.
</event>
<event>
 8    1  0.1111182E+005  0.1043930E+01  0.7957747E-01            NaN
         13   -1    0    0    0    0  0.00000000000E+00  0.00000000000E+00  0.74505805969E-08  0.10566000000E+00  0.10566000000E+00 0.  1.
     999900   -1    0    0    0    0 -0.00000000000E+00 -0.00000000000E+00 -0.74505805969E-08  0.93827000000E+00  0.93827000000E+00 0. -1.
     999902    2    1    2    0    0  0.17486061829E-01  0.31745880768E-02  0.16479670809E-01  0.10196932527E+01  0.10194051745E+01 0.  0.
     999903    2    3    3    0    0 -0.10859433670E+00  0.64168086905E-01  0.16262061937E-01  0.12861720596E+00  0.19174401459E-01 0.  0.
         14    1    1    2    0    0 -0.17486061829E-01 -0.31745880768E-02 -0.16479670809E-01  0.24236747260E-01  0.00000000000E+00 0. -1.
     999901    1    3    3    0    0  0.12608039852E+00 -0.60993498828E-01  0.21760887218E-03  0.89107604678E+00  0.88000000000E+00 0. -1.
        -11    1    4    4    0    0 -0.59308393805E-01  0.25289728235E-01  0.12869508147E-01  0.65749078251E-01  0.51100000000E-03 0.  1.
         11    1    4    4    0    0 -0.49285942890E-01  0.38878358670E-01  0.33925537899E-02  0.62868127709E-01  0.51100000000E-03 0. -1.
</event>
<event>
 8    1  0.1111182E+005  0.1043930E+01  0.7957747E-01            NaN
         13   -1    0    0    0    0  0.00000000000E+00  0.00000000000E+00  0.74505805969E-08  0.10566000000E+00  0.10566000000E+00 0. -1.
     999900   -1    0    0    0    0 -0.00000000000E+00 -0.00000000000E+00 -0.74505805969E-08  0.93827000000E+00  0.93827000000E+00 0.  1.
     999902    2    1    2    0    0  0.11157288253E-02 -0.20736486491E-01 -0.10924916808E-01  0.10204651213E+01  0.10201953065E+01 0.  0.
     999903    2    3    3    0    0  0.89961164625E-01 -0.84486949943E-01 -0.45954853318E-01  0.13300541550E+00  0.18642321686E-01 0.  0.
         14    1    1    2    0    0 -0.11157288253E-02  0.20736486491E-01  0.10924916808E-01  0.23464878650E-01  0.00000000000E+00 0.  1.
     999901    1    3    3    0    0 -0.88845435800E-01  0.63750463452E-01  0.35029936509E-01  0.88745970585E+00  0.88000000000E+00 0. -1.
        -11    1    4    4    0    0  0.19671288617E-01 -0.25397349123E-01 -0.18894423810E-01  0.37272581215E-01  0.51100000000E-03 0.  1.
         11    1    4    4    0    0  0.70289876009E-01 -0.59089600820E-01 -0.27060429508E-01  0.95732834287E-01  0.51100000000E-03 0. -1.
</event>
<event>
 8    1  0.1111182E+005  0.1043930E+01  0.7957747E-01            NaN
         13   -1    0    0    0    0  0.00000000000E+00  0.00000000000E+00  0.74505805969E-08  0.10566000000E+00  0.10566000000E+00 0.  1.
     999900   -1    0    0    0    0 -0.00000000000E+00 -0.00000000000E+00 -0.74505805969E-08  0.93827000000E+00  0.93827000000E+00 0.  1.
     999902    2    1    2    0    0  0.14619486013E-01 -0.19029418976E-01  0.46907604886E-02  0.10194790002E+01  0.10191857438E+01 0.  0.
     999903    2    3    3    0    0 -0.10514086152E+00  0.25067900433E-01 -0.64943452120E-01  0.12755073066E+00  0.19197305130E-01 0.  0.
         14    1    1    2    0    0 -0.14619486013E-01  0.19029418976E-01 -0.46907604886E-02  0.24450999812E-01  0.00000000000E+00 0.  1.
     999901    1    3    3    0    0  0.11976034754E+00 -0.44097319409E-01  0.69634212609E-01  0.89192826953E+00  0.88000000000E+00 0. -1.
        -11    1    4    4    0    0 -0.84322329934E-01  0.24803422894E-01 -0.45130192741E-01  0.98805164494E-01  0.51100000000E-03 0.  1.
         11    1    4    4    0    0 -0.20818531588E-01  0.26447753894E-03 -0.19813259380E-01  0.28745566164E-01  0.51100000000E-03 0. -1.
</event>
<event>
 8    1  0.1111182E+005  0.1043930E+01  0.7957747E-01            NaN
         13   -1    0    0    0    0  0.00000000000E+00  0.00000000000E+00  0.74505805969E-08  0.10566000000E+00  0.10566000000E+00 0. -1.
     999900   -1    0    0    0    0 -0.00000000000E+00 -0.00000000000E+00 -0.74505805969E-08  0.93827000000E+00  0.93827000000E+00 0.  1.
     999902    2    1    2    0    0 -0.20333429706E-01  0.55238854956E-02  0.82164150717E-02  0.10213142720E+01  0.10210638428E+01 0.  0.
     999903    2    3    3    0    0 -0.78321093961E-01 -0.28863549278E-01 -0.10045393036E+00  0.13207059967E+00  0.19604921235E-01 0.  0.
         14    1    1    2    0    0  0.20333429706E-01 -0.55238854956E-02 -0.82164150717E-02  0.22615727961E-01  0.00000000000E+00 0. -1.
     999901    1    3    3    0    0  0.57987664255E-01  0.34387434774E-01  0.10867034543E+00  0.88924367237E+00  0.88000000000E+00 0. -1.
        -11    1    4    4    0    0 -0.18773021094E-01 -0.14129117142E-01 -0.19753440151E-01  0.30700452619E-01  0.51100000000E-03 0. -1.
         11    1    4    4    0    0 -0.59548072868E-01 -0.14734432137E-01 -0.80700490204E-01  0.10137014705E+00  0.51100000000E-03 0.  1.
</event>
<event>
 8    1  0.1111182E+005  0.1043930E+01  0.7957747E-01            NaN
         13   -1    0    0    0    0  0.00000000000E+00  0.00000000000E+00  0.74505805969E-08  0.10566000000E+00  0.10566000000E+00 0.  1.
     999900   -1    0    0    0    0 -0.00000000000E+00 -0.00000000000E+00 -0.74505805969E-08  0.93827000000E+00  0.93827000000E+00 0. -1.
     999902    2    1    2    0    0  0.49125875745E-02  0.16893215822E-01 -0.13558383108E-01  0.10217186513E+01  0.10214771943E+01 0.  0.
     999903    2    3    3    0    0 -0.52931741206E-01  0.91266829012E-01  0.76833909182E-01  0.13208492489E+00  0.20287298417E-01 0.  0.
         14    1    1    2    0    0 -0.49125875745E-02 -0.16893215822E-01  0.13558383108E-01  0.22211348675E-01  0.00000000000E+00 0.  1.
     999901    1    3    3    0    0  0.57844328780E-01 -0.74373613190E-01 -0.90392292289E-01  0.88963372644E+00  0.88000000000E+00 0. -1.
        -11    1    4    4    0    0 -0.30177773536E-01  0.56669352401E-01  0.58258423010E-01  0.86697280752E-01  0.51100000000E-03 0.  1.
         11    1    4    4    0    0 -0.22753967669E-01  0.34597476611E-01  0.18575486172E-01  0.45387644134E-01  0.51100000000E-03 0. -1.
</event>
<event>
 8    1  0.1111182E+005  0.1043930E+01  0.7957747E-01            NaN
         13   -1    0    0    0    0  0.00000000000E+00  0.00000000000E+00  0.74505805969E-08  0.10566000000E+00  0.10566000000E+00 0.  1.
     999900   -1    0    0    0    0 -0.00000000000E+00 -0.00000000000E+00 -0.74505805969E-08  0.93827000000E+00  0.93827000000E+00 0.  1.
     999902    2    1    2    0    0  0.11169695199E-01 -0.16684322311E-01 -0.11840248951E-01  0.10206207701E+01  0.10203545640E+01 0.  0.
     999903    2    3    3    0    0 -0.78806596060E-01 -0.83362321651E-01 -0.62386345926E-01  0.13208456012E+00  0.19862492552E-01 0.  0.
         14    1    1    2    0    0 -0.11169695199E-01  0.16684322311E-01  0.11840248951E-01  0.23309229868E-01  0.00000000000E+00 0. -1.
     999901    1    3    3    0    0  0.89976291258E-01  0.66677999340E-01  0.50546096975E-01  0.88853621001E+00  0.88000000000E+00 0.  1.
        -11    1    4    4    0    0 -0.27044721984E-01 -0.32435351369E-01 -0.12720112645E-01  0.44108178293E-01  0.51100000000E-03 0.  1.
         11    1    4    4    0    0 -0.51761874075E-01 -0.50926970282E-01 -0.49666233282E-01  0.87976381826E-01  0.51100000000E-03 0. -1.
</event>
<event>
 8    1  0.1111182E+005  0.1043930E+01  0.7957747E-01            NaN
         13   -1    0    0    0    0  0.00000000000E+00  0.00000000000E+00  0.74505805969E-08  0.10566000000E+00  0.10566000000E+00 0. -1.
     999900   -1    0    0    0    0 -0.00000000000E+00 -0.00000000000E+00 -0.74505805969E-08  0.93827000000E+00  0.93827000000E+00 0.  1.
     999902    2    1    2    0    0 -0.10438538072E-01  0.17313956832E-01  0.12764333190E-01  0.10200204960E+01  0.10197402355E+01 0.  0.
     999903    2    3    3    0    0 -0.51678194683E-01 -0.46713702667E-01  0.10966273936E+00  0.13143197958E+00  0.19890777499E-01 0.  0.
         14    1    1    2    0    0  0.10438538072E-01 -0.17313956832E-01 -0.12764333190E-01  0.23909503970E-01  0.00000000000E+00 0.  1.
     999901    1    3    3    0    0  0.41239656610E-01  0.64027659499E-01 -0.96898406166E-01  0.88858851646E+00  0.88000000000E+00 0.  1.
        -11    1    4    4    0    0 -0.32916230506E-01 -0.22910356358E-01  0.77326883812E-01  0.87109533004E-01  0.51100000000E-03 0.  1.
         11    1    4    4    0    0 -0.18761964177E-01 -0.23803346309E-01  0.32335855544E-01  0.44322446571E-01  0.51100000000E-03 0. -1.
</event>
<event>
 8    1  0.1111182E+005  0.1043930E+01  0.7957747E-01            NaN
         13   -1    0    0    0    0  0.00000000000E+00  0.00000000000E+00  0.74505805969E-08  0.10566000000E+00  0.10566000000E+00 0. -1.
     999900   -1    0    0    0    0 -0.00000000000E+00 -0.00000000000E+00 -0.74505805969E-08  0.93827000000E+00  0.93827000000E+00 0. -1.
     999902    2    1    2    0    0  0.90941646915E-02  0.79812834435E-02  0.20909568918E-01  0.10197718794E+01  0.10194856896E+01 0.  0.
     999903    2    3    3    0    0 -0.71408629632E-01  0.47981778152E-01 -0.92572539685E-01  0.12794290007E+00  0.19956631808E-01 0.  0.
         14    1    1    2    0    0 -0.90941646915E-02 -0.79812834435E-02 -0.20909568918E-01  0.24158120564E-01  0.00000000000E+00 0. -1.
     999901    1    3    3    0    0  0.80502794323E-01 -0.40000494709E-01  0.11348210860E+00  0.89182897937E+00  0.88000000000E+00 0.  1.
        -11    1    4    4    0    0 -0.44211029563E-01  0.40839766362E-01 -0.63514864739E-01  0.87503718866E-01  0.51100000000E-03 0. -1.
         11    1    4    4    0    0 -0.27197600069E-01  0.71420117904E-02 -0.29057674946E-01  0.40439181201E-01  0.51100000000E-03 0.  1.
</event>
<event>
 8    1  0.1111182E+005  0.1043930E+01  0.7957747E-01            NaN
         13   -1    0    0    0    0  0.00000000000E+00  0.00000000000E+00  0.74505805969E-08  0.10566000000E+00  0.10566000000E+00 0.  1.
     999900   -1    0    0    0    0 -0.00000000000E+00 -0.00000000000E+00 -0.74505805969E-08  0.93827000000E+00  0.93827000000E+00 0. -1.
     999902    2    1    2    0    0 -0.45089633242E-02 -0.20830963935E-01  0.11367216210E-01  0.10197748057E+01  0.10194886860E+01 0.  0.
     999903    2    3    3    0    0 -0.10307546600E+00 -0.74686239547E-01  0.30558289245E-01  0.13242817473E+00  0.20020648141E-01 0.  0.
         14    1    1    2    0    0  0.45089633242E-02  0.20830963935E-01 -0.11367216210E-01  0.24155194330E-01  0.00000000000E+00 0.  1.
     999901    1    3    3    0    0  0.98566502673E-01  0.53855275612E-01 -0.19191073035E-01  0.88734663094E+00  0.88000000000E+00 0. -1.
        -11    1    4    4    0    0 -0.32316820210E-01 -0.25332441870E-01  0.19467873031E-01  0.45446327475E-01  0.51100000000E-03 0.  1.
         11    1    4    4    0    0 -0.70758645788E-01 -0.49353797677E-01  0.11090416214E-01  0.86981847253E-01  0.51100000000E-03 0. -1.
</event>
<event>
 8    1  0.1111182E+005  0.1043930E+01  0.7957747E-01            NaN
         13   -1    0    0    0    0  0.00000000000E+00  0.00000000000E+00  0.74505805969E-08  0.10566000000E+00  0.10566000000E+00 0.  1.
     999900   -1    0    0    0    0 -0.00000000000E+00 -0.00000000000E+00 -0.74505805969E-08  0.93827000000E+00  0.93827000000E+00 0. -1.
     999902    2    1    2    0    0 -0.21542438936E-01  0.64123496727E-02  0.60527885997E-02  0.10206527331E+01  0.10203872649E+01 0.  0.
     999903    2    3    3    0    0  0.43301899088E-01  0.12178462657E+00  0.21985760726E-02  0.13074801608E+00  0.19587246838E-01 0.  0.
         14    1    1    2    0    0  0.21542438936E-01 -0.64123496727E-02 -0.60527885997E-02  0.23277266881E-01  0.00000000000E+00 0. -1.
     999901    1    3    3    0    0 -0.64844338023E-01 -0.11537227690E+00  0.38542125271E-02  0.88990471704E+00  0.88000000000E+00 0.  1.
        -11    1    4    4    0    0  0.31496507124E-01  0.10553299797E+00  0.60035813219E-02  0.11029754182E+00  0.51100000000E-03 0.  1.
         11    1    4    4    0    0  0.11805391964E-01  0.16251628601E-01 -0.38050052493E-02  0.20450474263E-01  0.51100000000E-03 0. -1.
</event>
<event>
 8    1  0.1111182E+005  0.1043930E+01  0.7957747E-01            NaN
         13   -1    0    0    0    0  0.00000000000E+00  0.00000000000E+00  0.74505805969E-08  0.10566000000E+00  0.10566000000E+00 0.  1.
     999900   -1    0    0    0    0 -0.00000000000E+00 -0.00000000000E+00 -0.74505805969E-08  0.93827000000E+00  0.93827000000E+00 0. -1.
     999902    2    1    2    0    0 -0.15565095044E-01 -0.12591156961E-01  0.12356563891E-01  0.10204035449E+01  0.10201322955E+01 0.  0.
     999903    2    3    3    0    0  0.70422908443E-01  0.69200874194E-01 -0.77893822695E-01  0.12786278653E+00  0.23093235883E-01 0.  0.
         14    1    1    2    0    0  0.15565095044E-01  0.12591156961E-01 -0.12356563891E-01  0.23526455078E-01  0.00000000000E+00 0. -1.
     999901    1    3    3    0    0 -0.85988003487E-01 -0.81792031155E-01  0.90250386586E-01  0.89254075839E+00  0.88000000000E+00 0. -1.
        -11    1    4    4    0    0  0.32616702778E-01  0.36989638345E-01 -0.52666207653E-01  0.72153123249E-01  0.51100000000E-03 0. -1.
         11    1    4    4    0    0  0.37806205665E-01  0.32211235849E-01 -0.25227615042E-01  0.55709663286E-01  0.51100000000E-03 0.  1.
</event>
<event>
 8    1  0.1111182E+005  0.1043930E+01  0.7957747E-01            NaN
         13   -1    0    0    0    0  0.00000000000E+00  0.00000000000E+00  0.74505805969E-08  0.10566000000E+00  0.10566000000E+00 0.  1.
     999900   -1    0    0    0    0 -0.00000000000E+00 -0.00000000000E+00 -0.74505805969E-08  0.93827000000E+00  0.93827000000E+00 0. -1.
     999902    2    1    2    0    0 -0.61572946697E-02 -0.19348086698E-01  0.13521876026E-01  0.10195352902E+01  0.10192433988E+01 0.  0.
     999903    2    3    3    0    0 -0.12246757926E+00 -0.73157263484E-03 -0.39582124400E-01  0.13010024939E+00  0.18986499202E-01 0.  0.
         14    1    1    2    0    0  0.61572946697E-02  0.19348086698E-01 -0.13521876026E-01  0.24394709832E-01  0.00000000000E+00 0. -1.
     999901    1    3    3    0    0  0.11631028459E+00 -0.18616514063E-01  0.53104000426E-01  0.88943504077E+00  0.88000000000E+00 0. -1.
        -11    1    4    4    0    0 -0.62485862136E-01 -0.91855373356E-02 -0.16541092956E-01  0.65289554602E-01  0.51100000000E-03 0. -1.
         11    1    4    4    0    0 -0.59981717123E-01  0.84539647008E-02 -0.23041031444E-01  0.64810694790E-01  0.51100000000E-03 0.  1.
</event>
<event>
 8    1  0.1111182E+005  0.1043930E+01  0.7957747E-01            NaN
         13   -1    0    0    0    0  0.00000000000E+00  0.00000000000E+00  0.74505805969E-08  0.10566000000E+00  0.10566000000E+00 0. -1.
     999900   -1    0    0    0    0 -0.00000000000E+00 -0.00000000000E+00 -0.74505805969E-08  0.93827000000E+00  0.93827000000E+00 0. -1.
     999902    2    1    2    0    0  0.10122671612E-01 -0.77845607642E-02  0.19994190068E-01  0.10202058456E+01  0.10199299642E+01 0.  0.
     999903    2    3    3    0    0 -0.87718217041E-02 -0.23593063454E-01 -0.12122425300E+00  0.12860640676E+00  0.34795270442E-01 0.  0.
         14    1    1    2    0    0 -0.10122671612E-01  0.77845607642E-02 -0.19994190068E-01  0.23724154429E-01  0.00000000000E+00 0.  1.
     999901    1    3    3    0    0  0.18894493316E-01  0.15808502690E-01  0.14121844306E+00  0.89159943882E+00  0.88000000000E+00 0.  1.
        -11    1    4    4    0    0  0.67065283596E-02 -0.23487865835E-01 -0.49156329356E-01  0.54893198130E-01  0.51100000000E-03 0.  1.
         11    1    4    4    0    0 -0.15478350064E-01 -0.10519761836E-03 -0.72067923639E-01  0.73713208626E-01  0.51100000000E-03 0. -1.
</event>
<event>
 8    1  0.1111182E+005  0.1043930E+01  0.7957747E-01            NaN
         13   -1    0    0    0    0  0.00000000000E+00  0.00000000000E+00  0.74505805969E-08  0.10566000000E+00  0.10566000000E+00 0.  1.
     999900   -1    0    0    0    0 -0.00000000000E+00 -0.00000000000E+00 -0.74505805969E-08  0.93827000000E+00  0.93827000000E+00 0.  1.
     999902    2    1    2    0    0 -0.68506075776E-02 -0.61900459877E-02  0.20780958751E-01  0.10211902608E+01  0.10209370465E+01 0.  0.
     999903    2    3    3    0    0 -0.11515366828E+00  0.50431477802E-01 -0.31636362367E-01  0.13119974090E+00  0.20219082971E-01 0.  0.
         14    1    1    2    0    0  0.68506075776E-02  0.61900459877E-02 -0.20780958751E-01  0.22739739227E-01  0.00000000000E+00 0. -1.
     999901    1    3    3    0    0  0.10830306070E+00 -0.56621523789E-01  0.52417321117E-01  0.88999051987E+00  0.88000000000E+00 0. -1.
        -11    1    4    4    0    0 -0.42001113489E-01  0.21143037282E-01 -0.21842532644E-02  0.47076041073E-01  0.51100000000E-03 0.  1.
         11    1    4    4    0    0 -0.73152554792E-01  0.29288440520E-01 -0.29452109102E-01  0.84123699825E-01  0.51100000000E-03 0. -1.
</event>
<event>
 8    1  0.1111182E+005  0.1043930E+01  0.7957747E-01            NaN
         13   -1    0    0    0    0  0.00000000000E+00  0.00000000000E+00  0.74505805969E-08  0.10566000000E+00  0.10566000000E+00 0.  1.
     999900   -1    0    0    0    0 -0.00000000000E+00 -0.00000000000E+00 -0.74505805969E-08  0.93827000000E+00  0.93827000000E+00 0.  1.
     999902    2    1    2    0    0 -0.89623494854E-02 -0.18233024351E-01  0.13395958093E-01  0.10195944585E+01  0.10193039985E+01 0.  0.
     999903    2    3    3    0    0  0.36444834547E-01 -0.14939015466E-01  0.12377169928E+00  0.13153169774E+00  0.20730504600E-01 0.  0.
         14    1    1    2    0    0  0.89623494854E-02  0.18233024351E-01 -0.13395958093E-01  0.24335541468E-01  0.00000000000E+00 0. -1.
     999901    1    3    3    0    0 -0.45407184033E-01 -0.32940088846E-02 -0.11037574119E+00  0.88806276079E+00  0.88000000000E+00 0.  1.
        -11    1    4    4    0    0  0.23985445710E-01 -0.19062849663E-01  0.74894349351E-01  0.80920445679E-01  0.51100000000E-03 0.  1.
         11    1    4    4    0    0  0.12459388837E-01  0.41238341972E-02  0.48877349927E-01  0.50611252065E-01  0.51100000000E-03 0. -1.
</event>
<event>
 8    1  0.1111182E+005  0.1043930E+01  0.7957747E-01            NaN
         13   -1    0    0    0    0  0.00000000000E+00  0.00000000000E+00  0.74505805969E-08  0.10566000000E+00  0.10566000000E+00 0. -1.
     999900   -1    0    0    0    0 -0.00000000000E+00 -0.00000000000E+00 -0.74505805969E-08  0.93827000000E+00  0.93827000000E+00 0. -1.
     999902    2    1    2    0    0  0.13303233089E-01  0.45888527904E-02  0.19954706983E-01  0.10195123033E+01  0.10192198549E+01 0.  0.
     999903    2    3    3    0    0 -0.29806651687E-02  0.31988652029E-01  0.12692873984E+00  0.13246137014E+00  0.20073648347E-01 0.  0.
         14    1    1    2    0    0 -0.13303233089E-01 -0.45888527904E-02 -0.19954706983E-01  0.24417696684E-01  0.00000000000E+00 0.  1.
     999901    1    3    3    0    0  0.16283898257E-01 -0.27399799239E-01 -0.10697403286E+00  0.88705093318E+00  0.88000000000E+00 0. -1.
        -11    1    4    4    0    0  0.80088727390E-02  0.14069579451E-01  0.43318061451E-01  0.46247277512E-01  0.51100000000E-03 0. -1.
         11    1    4    4    0    0 -0.10989537908E-01  0.17919072578E-01  0.83610678393E-01  0.86214092629E-01  0.51100000000E-03 0.  1.
</event>
<event>
 8    1  0.1111182E+005  0.1043930E+01  0.7957747E-01            NaN
         13   -1    0    0    0    0  0.00000000000E+00  0.00000000000E+00  0.74505805969E-08  0.10566000000E+00  0.10566000000E+00 0. -1.
     999900   -1    0    0    0    0 -0.00000000000E+00 -0.00000000000E+00 -0.74505805969E-08  0.93827000000E+00  0.93827000000E+00 0. -1.
     999902    2    1    2    0    0  0.18484401868E-01  0.14960881463E-01  0.48871305086E-02  0.10196527446E+01  0.10193636909E+01 0.  0.
     999903    2    3    3    0    0 -0.12474323730E+00  0.19972199789E-01 -0.72303906000E-02  0.12797673601E+00  0.19131189039E-01 0.  0.
         14    1    1    2    0    0 -0.18484401868E-01 -0.14960881463E-01 -0.48871305086E-02  0.24277255429E-01  0.00000000000E+00 0.  1.
     999901    1    3    3    0    0  0.14322763917E+00 -0.50113183266E-02  0.12117521109E-01  0.89167600857E+00  0.88000000000E+00 0.  1.
        -11    1    4    4    0    0 -0.87109766094E-01  0.22058060376E-01 -0.16857121527E-02  0.89876426959E-01  0.51100000000E-03 0. -1.
         11    1    4    4    0    0 -0.37633471205E-01 -0.20858605861E-02 -0.55446784473E-02  0.38100309047E-01  0.51100000000E-03 0.  1.
</event>
<event>
 8    1  0.1111182E+005  0.1043930E+01  0.7957747E-01            NaN
         13   -1    0    0    0    0  0.00000000000E+00  0.00000000000E+00  0.74505805969E-08  0.10566000000E+00  0.10566000000E+00 0. -1.
     999900   -1    0    0    0    0 -0.00000000000E+00 -0.00000000000E+00 -0.74505805969E-08  0.93827000000E+00  0.93827000000E+00 0.  1.
     999902    2    1    2    0    0 -0.23040695567E-01  0.89460172970E-02 -0.40660587622E-02  0.10188812932E+01  0.10185733415E+01 0.  0.
     999903    2    3    3    0    0 -0.42980222130E-01  0.43390033744E-03  0.12079861511E+00  0.12980242853E+00  0.20220714044E-01 0.  0.
         14    1    1    2    0    0  0.23040695567E-01 -0.89460172970E-02  0.40660587622E-02  0.25048706784E-01  0.00000000000E+00 0. -1.
     999901    1    3    3    0    0  0.19939526563E-01  0.85121169595E-02 -0.12486467387E+00  0.88907886469E+00  0.88000000000E+00 0.  1.
        -11    1    4    4    0    0 -0.18173114714E-01  0.65831988442E-02  0.31909330594E-01  0.37310415508E-01  0.51100000000E-03 0. -1.
         11    1    4    4    0    0 -0.24807107416E-01 -0.61492985067E-02  0.88889284512E-01  0.92492013020E-01  0.51100000000E-03 0.  1.
</event>
<event>
 8    1  0.1111182E+005  0.1043930E+01  0.7957747E-01            NaN
         13   -1    0    0    0    0  0.00000000000E+00  0.00000000000E+00  0.74505805969E-08  0.10566000000E+00  0.10566000000E+00 0. -1.
     999900   -1    0    0    0    0 -0.00000000000E+00 -0.00000000000E+00 -0.74505805969E-08  0.93827000000E+00  0.93827000000E+00 0. -1.
     999902    2    1    2    0    0  0.24977479646E-02  0.23317435896E-01  0.12397774894E-01  0.10174036662E+01  0.10170578025E+01 0.  0.
     999903    2    3    3    0    0  0.11271939694E+00  0.18480707331E-01  0.57313517086E-01  0.12937797417E+00  0.20164869679E-01 0.  0.
         14    1    1    2    0    0 -0.24977479646E-02 -0.23317435896E-01 -0.12397774894E-01  0.26526333783E-01  0.00000000000E+00 0.  1.
     999901    1    3    3    0    0 -0.11022164897E+00  0.48367285646E-02 -0.44915742191E-01  0.88802569205E+00  0.88000000000E+00 0. -1.
        -11    1    4    4    0    0  0.58561964355E-01  0.76774489092E-03  0.23427495237E-01  0.63080914351E-01  0.51100000000E-03 0. -1.
         11    1    4    4    0    0  0.54157432583E-01  0.17712962440E-01  0.33886021849E-01  0.66297059815E-01  0.51100000000E-03 0.  1.
</event>
<event>
 8    1  0.1111182E+005  0.1043930E+01  0.7957747E-01            NaN
         13   -1    0    0    0    0  0.00000000000E+00  0.00000000000E+00  0.74505805969E-08  0.10566000000E+00  0.10566000000E+00 0. -1.
     999900   -1    0    0    0    0 -0.00000000000E+00 -0.00000000000E+00 -0.74505805969E-08  0.93827000000E+00  0.93827000000E+00 0.  1.
     999902    2    1    2    0    0 -0.12900151549E-01  0.16089465711E-01 -0.11416147568E-01  0.10203585503E+01  0.10200862502E+01 0.  0.
     999903    2    3    3    0    0 -0.61126198013E-01 -0.85478804012E-01 -0.75381882549E-01  0.13090170465E+00  0.20243271611E-01 0.  0.
         14    1    1    2    0    0  0.12900151549E-01 -0.16089465711E-01  0.11416147568E-01  0.23571449725E-01  0.00000000000E+00 0.  1.
     999901    1    3    3    0    0  0.48226046464E-01  0.10156826972E+00  0.63965734981E-01  0.88945684562E+00  0.88000000000E+00 0.  1.
        -11    1    4    4    0    0 -0.28853304576E-01 -0.26683884706E-01 -0.34883006971E-01  0.52551195841E-01  0.51100000000E-03 0. -1.
         11    1    4    4    0    0 -0.32272893437E-01 -0.58794919306E-01 -0.40498875578E-01  0.78350508812E-01  0.51100000000E-03 0.  1.
</event>
<event>
 7    1  0.1111182E+005  0.1043930E+01  0.7957747E-01            NaN
         13   -1    0    0    0    0  0.00000000000E+00  0.00000000000E+00  0.74505805969E-08  0.10566000000E+00  0.10566000000E+00 0.  1.
     999900   -1    0    0    0    0 -0.00000000000E+00 -0.00000000000E+00 -0.74505805969E-08  0.93827000000E+00  0.93827000000E+00 0. -1.
     999903    2    1    2    0    0  0.11085040718E+00  0.49334312772E-02  0.17685982722E-01  0.11408404643E+00  0.19754091942E-01 0.  0.
         14    1    1    2    0    0  0.56396242370E-02  0.20498168450E-01 -0.35781292030E-01  0.41620681526E-01  0.00000000000E+00 0. -1.
     999901    1    1    2    0    0 -0.11649003142E+00 -0.25431599728E-01  0.18095309308E-01  0.88822527205E+00  0.88000000000E+00 0.  1.
        -11    1    3    3    0    0  0.10223766013E+00  0.67027626351E-02  0.11042084681E-01  0.10305170998E+00  0.51100000000E-03 0.  1.
         11    1    3    3    0    0  0.86127470495E-02 -0.17693313579E-02  0.66438980417E-02  0.11032336443E-01  0.51100000000E-03 0. -1.
</event>
<event>
 8    1  0.1111182E+005  0.1043930E+01  0.7957747E-01            NaN
         13   -1    0    0    0    0  0.00000000000E+00  0.00000000000E+00  0.74505805969E-08  0.10566000000E+00  0.10566000000E+00 0. -1.
     999900   -1    0    0    0    0 -0.00000000000E+00 -0.00000000000E+00 -0.74505805969E-08  0.93827000000E+00  0.93827000000E+00 0. -1.
     999902    2    1    2    0    0 -0.74564475206E-02  0.19921491597E-01 -0.10115062258E-01  0.10203762546E+01  0.10201043682E+01 0.  0.
     999903    2    3    3    0    0  0.72240907507E-01  0.56697896315E-01  0.91537647605E-01  0.13018669853E+00  0.11663420653E-01 0.  0.
         14    1    1    2    0    0  0.74564475206E-02 -0.19921491597E-01  0.10115062258E-01  0.23553745383E-01  0.00000000000E+00 0. -1.
     999901    1    3    3    0    0 -0.79697355027E-01 -0.36776404717E-01 -0.10165270986E+00  0.89018955609E+00  0.88000000000E+00 0. -1.
        -11    1    4    4    0    0  0.18749587611E-01  0.99609011902E-02  0.25635443502E-01  0.33289693189E-01  0.51100000000E-03 0.  1.
         11    1    4    4    0    0  0.53491319895E-01  0.46736995124E-01  0.65902204103E-01  0.96897005341E-01  0.51100000000E-03 0. -1.
</event>
<event>
 8    1  0.1111182E+005  0.1043930E+01  0.7957747E-01            NaN
         13   -1    0    0    0    0  0.00000000000E+00  0.00000000000E+00  0.74505805969E-08  0.10566000000E+00  0.10566000000E+00 0.  1.
     999900   -1    0    0    0    0 -0.00000000000E+00 -0.00000000000E+00 -0.74505805969E-08  0.93827000000E+00  0.93827000000E+00 0.  1.
     999902    2    1    2    0    0 -0.97412106238E-02  0.21382402942E-01  0.54462322969E-02  0.10198103029E+01  0.10195250336E+01 0.  0.
     999903    2    3    3    0    0  0.89118933621E-01 -0.88669916713E-01  0.54587045634E-02  0.12746236557E+00  0.20305632727E-01 0.  0.
         14    1    1    2    0    0  0.97412106238E-02 -0.21382402942E-01 -0.54462322969E-02  0.24119697059E-01  0.00000000000E+00 0. -1.
     999901    1    3    3    0    0 -0.98860144244E-01  0.11005231966E+00 -0.12472266575E-04  0.89234793737E+00  0.88000000000E+00 0. -1.
        -11    1    4    4    0    0  0.64571335178E-01 -0.51226059279E-01  0.63313994204E-03  0.82427110001E-01  0.51100000000E-03 0. -1.
         11    1    4    4    0    0  0.24547598443E-01 -0.37443857434E-01  0.48255646214E-02  0.45035255565E-01  0.51100000000E-03 0.  1.
</event>
<event>
 8    1  0.1111182E+005  0.1043930E+01  0.7957747E-01            NaN
         13   -1    0    0    0    0  0.00000000000E+00  0.00000000000E+00  0.74505805969E-08  0.10566000000E+00  0.10566000000E+00 0. -1.
     999900   -1    0    0    0    0 -0.00000000000E+00 -0.00000000000E+00 -0.74505805969E-08  0.93827000000E+00  0.93827000000E+00 0. -1.
     999902    2    1    2    0    0  0.39235239003E-02 -0.19695958835E-01  0.67409069661E-02  0.10227459338E+01  0.10225265182E+01 0.  0.
     999903    2    3    3    0    0  0.10819284548E+00 -0.17820075896E-01  0.74379577074E-01  0.13401054007E+00  0.20081246142E-01 0.  0.
         14    1    1    2    0    0 -0.39235239003E-02  0.19695958835E-01 -0.67409069661E-02  0.21184066205E-01  0.00000000000E+00 0.  1.
     999901    1    3    3    0    0 -0.10426932158E+00 -0.18758829394E-02 -0.67638670108E-01  0.88873539372E+00  0.88000000000E+00 0. -1.
        -11    1    4    4    0    0  0.87124277226E-01 -0.67930906312E-02  0.62378537115E-01  0.10736912394E+00  0.51100000000E-03 0.  1.
         11    1    4    4    0    0  0.21068568256E-01 -0.11026985265E-01  0.12001039960E-01  0.26641416131E-01  0.51100000000E-03 0. -1.
</event>
<event>
 8    1  0.1111182E+005  0.1043930E+01  0.7957747E-01            NaN
         13   -1    0    0    0    0  0.00000000000E+00  0.00000000000E+00  0.74505805969E-08  0.10566000000E+00  0.10566000000E+00 0. -1.
     999900   -1    0    0    0    0 -0.00000000000E+00 -0.00000000000E+00 -0.74505805969E-08  0.93827000000E+00  0.93827000000E+00 0.  1.
     999902    2    1    2    0    0 -0.24204411006E-02 -0.61219163754E-02 -0.23163168575E-01  0.10198495354E+01  0.10195652045E+01 0.  0.
     999903    2    3    3    0    0 -0.74560281692E-01  0.37825997135E-01 -0.10054095218E+00  0.13242466701E+00  0.20922898979E-01 0.  0.
         14    1    1    2    0    0  0.24204411006E-02  0.61219163754E-02  0.23163168575E-01  0.24080464565E-01  0.00000000000E+00 0. -1.
     999901    1    3    3    0    0  0.72139840592E-01 -0.43947913510E-01  0.77377783608E-01  0.88742486842E+00  0.88000000000E+00 0.  1.
        -11    1    4    4    0    0 -0.13094796169E-01  0.16450242523E-01 -0.26965202576E-01  0.34197477052E-01  0.51100000000E-03 0.  1.
         11    1    4    4    0    0 -0.61465485524E-01  0.21375754612E-01 -0.73575749607E-01  0.98227189959E-01  0.51100000000E-03 0. -1.
</event>
<event>
 8    1  0.1111182E+005  0.1043930E+01  0.7957747E-01            NaN
         13   -1    0    0    0    0  0.00000000000E+00  0.00000000000E+00  0.74505805969E-08  0.10566000000E+00  0.10566000000E+00 0.  1.
     999900   -1    0    0    0    0 -0.00000000000E+00 -0.00000000000E+00 -0.74505805969E-08  0.93827000000E+00  0.93827000000E+00 0. -1.
     999902    2    1    2    0    0 -0.63582700017E-02 -0.38462889061E-02 -0.22690034868E-01  0.10200540871E+01  0.10197746228E+01 0.  0.
     999903    2    3    3    0    0 -0.12414372633E+00 -0.37920631254E-01 -0.48147340399E-02  0.13137304142E+00  0.19648289659E-01 0.  0.
         14    1    1    2    0    0  0.63582700017E-02  0.38462889061E-02  0.22690034868E-01  0.23875912927E-01  0.00000000000E+00 0.  1.
     999901    1    3    3    0    0  0.11778545632E+00  0.34074342348E-01 -0.17875300828E-01  0.88868104566E+00  0.88000000000E+00 0.  1.
        -11    1    4    4    0    0 -0.20189897291E-01 -0.12583975983E-01  0.35012883124E-02  0.24052204577E-01  0.51100000000E-03 0. -1.
         11    1    4    4    0    0 -0.10395382904E+00 -0.25336655271E-01 -0.83160223523E-02  0.10732083684E+00  0.51100000000E-03 0.  1.
</event>
<event>
 8    1  0.1111182E+005  0.1043930E+01  0.7957747E-01            NaN
         13   -1    0    0    0    0  0.00000000000E+00  0.00000000000E+00  0.74505805969E-08  0.10566000000E+00  0.10566000000E+00 0. -1.
     999900   -1    0    0    0    0 -0.00000000000E+00 -0.00000000000E+00 -0.74505805969E-08  0.93827000000E+00  0.93827000000E+00 0. -1.
     999902    2    1    2    0    0  0.51788570442E-02  0.14197390910E-01  0.25318527041E-01  0.10144441681E+01  0.10140155600E+01 0.  0.
     999903    2    3    3    0    0  0.69160030604E-01  0.10423297116E+00  0.14232671627E-01  0.12747015924E+00  0.19961223531E-01 0.  0.
         14    1    1    2    0    0 -0.51788570442E-02 -0.14197390910E-01 -0.25318527041E-01  0.29485831860E-01  0.00000000000E+00 0.  1.
     999901    1    3    3    0    0 -0.63981173560E-01 -0.90035580246E-01  0.11085855414E-01  0.88697400890E+00  0.88000000000E+00 0. -1.
        -11    1    4    4    0    0  0.20982343465E-01  0.24848555934E-01  0.11724038832E-01  0.34574899520E-01  0.51100000000E-03 0.  1.
         11    1    4    4    0    0  0.48177687138E-01  0.79384415223E-01  0.25086327958E-02  0.92895259716E-01  0.51100000000E-03 0. -1.
</event>
<event>
 8    1  0.1111182E+005  0.1043930E+01  0.7957747E-01            NaN
         13   -1    0    0    0    0  0.00000000000E+00  0.00000000000E+00  0.74505805969E-08  0.10566000000E+00  0.10566000000E+00 0. -1.
     999900   -1    0    0    0    0 -0.00000000000E+00 -0.00000000000E+00 -0.74505805969E-08  0.93827000000E+00  0.93827000000E+00 0.  1.
     999902    2    1    2    0    0 -0.10047007001E-01  0.18572763734E-01  0.54629491280E-02  0.10221186792E+01  0.10218859333E+01 0.  0.
     999903    2    3    3    0    0  0.42503509440E-01  0.12147260265E+00  0.31763901893E-01  0.13417629719E+00  0.20789222109E-01 0.  0.
         14    1    1    2    0    0  0.10047007001E-01 -0.18572763734E-01 -0.54629491280E-02  0.21811320812E-01  0.00000000000E+00 0. -1.
     999901    1    3    3    0    0 -0.52550516441E-01 -0.10289983892E+00 -0.26300952765E-01  0.88794238200E+00  0.88000000000E+00 0. -1.
        -11    1    4    4    0    0  0.30847835037E-01  0.56967723504E-01  0.14467971441E-01  0.66381426366E-01  0.51100000000E-03 0. -1.
         11    1    4    4    0    0  0.11655674403E-01  0.64504879145E-01  0.17295930452E-01  0.67794870827E-01  0.51100000000E-03 0.  1.
</event>
<event>
 8    1  0.1111182E+005  0.1043930E+01  0.7957747E-01            NaN
         13   -1    0    0    0    0  0.00000000000E+00  0.00000000000E+00  0.74505805969E-08  0.10566000000E+00  0.10566000000E+00 0.  1.
     999900   -1    0    0    0    0 -0.00000000000E+00 -0.00000000000E+00 -0.74505805969E-08  0.93827000000E+00  0.93827000000E+00 0. -1.
     999902    2    1    2    0    0  0.51255281782E-02  0.10982322815E-01 -0.20508114915E-01  0.10201084713E+01  0.10198302937E+01 0.  0.
     999903    2    3    3    0    0  0.69257510357E-01 -0.16510045521E-01  0.10501395597E+00  0.12846698966E+00  0.20165617781E-01 0.  0.
         14    1    1    2    0    0 -0.51255281782E-02 -0.10982322815E-01  0.20508114915E-01  0.23821528727E-01  0.00000000000E+00 0.  1.
     999901    1    3    3    0    0 -0.64131982179E-01  0.27492368335E-01 -0.12552207088E+00  0.89164148161E+00  0.88000000000E+00 0. -1.
        -11    1    4    4    0    0  0.43137064090E-01 -0.39459120242E-02  0.49055753507E-01  0.65445432179E-01  0.51100000000E-03 0.  1.
         11    1    4    4    0    0  0.26120446267E-01 -0.12564133496E-01  0.55958202460E-01  0.63021557481E-01  0.51100000000E-03 0. -1.
</event>
<event>
 8    1  0.1111182E+005  0.1043930E+01  0.7957747E-01            NaN
         13   -1    0    0    0    0  0.00000000000E+00  0.00000000000E+00  0.74505805969E-08  0.10566000000E+00  0.10566000000E+00 0. -1.
     999900   -1    0    0    0    0 -0.00000000000E+00 -0.00000000000E+00 -0.74505805969E-08  0.93827000000E+00  0.93827000000E+00 0. -1.
     999902    2    1    2    0    0 -0.75633156707E-02 -0.72985795973E-02 -0.21517923855E-01  0.10199822641E+01  0.10197010959E+01 0.  0.
     999903    2    3    3    0    0 -0.36576289638E-01 -0.10624850512E+00  0.62522057631E-01  0.12998475909E+00  0.18985786826E-01 0.  0.
         14    1    1    2    0    0  0.75633156707E-02  0.72985795973E-02  0.21517923855E-01  0.23947735908E-01  0.00000000000E+00 0. -1.
     999901    1    3    3    0    0  0.29012973967E-01  0.98949925524E-01 -0.84039981487E-01  0.88999750500E+00  0.88000000000E+00 0. -1.
        -11    1    4    4    0    0 -0.12798864301E-01 -0.24956555092E-01  0.24080631006E-01  0.36969967272E-01  0.51100000000E-03 0. -1.
         11    1    4    4    0    0 -0.23777425337E-01 -0.81291950029E-01  0.38441426625E-01  0.93014791819E-01  0.51100000000E-03 0.  1.
</event>
<event>
 8    1  0.1111182E+005  0.1043930E+01  0.7957747E-01            NaN
         13   -1    0    0    0    0  0.00000000000E+00  0.00000000000E+00  0.74505805969E-08  0.10566000000E+00  0.10566000000E+00 0. -1.
     999900   -1    0    0    0    0 -0.00000000000E+00 -0.00000000000E+00 -0.74505805969E-08  0.93827000000E+00  0.93827000000E+00 0. -1.
     999902    2    1    2    0    0 -0.17947158316E-01 -0.14090394825E-01  0.51617667630E-03  0.10211066314E+01  0.10208515301E+01 0.  0.
     999903    2    3    3    0    0  0.94056795362E-01  0.72036971075E-01  0.45980837697E-01  0.12867744974E+00  0.20190162979E-01 0.  0.
         14    1    1    2    0    0  0.17947158316E-01  0.14090394825E-01 -0.51617667630E-03  0.22823368645E-01  0.00000000000E+00 0. -1.
     999901    1    3    3    0    0 -0.11200395368E+00 -0.86127365900E-01 -0.45464661020E-01  0.89242918161E+00  0.88000000000E+00 0. -1.
        -11    1    4    4    0    0  0.25840772530E-01  0.27643506341E-01  0.72129711988E-02  0.38525277965E-01  0.51100000000E-03 0.  1.
         11    1    4    4    0    0  0.68216022832E-01  0.44393464734E-01  0.38767866498E-01  0.90152171775E-01  0.51100000000E-03 0. -1.
</event>
<event>
 8    1  0.1111182E+005  0.1043930E+01  0.7957747E-01            NaN
         13   -1    0    0    0    0  0.00000000000E+00  0.00000000000E+00  0.74505805969E-08  0.10566000000E+00  0.10566000000E+00 0.  1.
     999900   -1    0    0    0    0 -0.00000000000E+00 -0.00000000000E+00 -0.74505805969E-08  0.93827000000E+00  0.93827000000E+00 0. -1.
     999902    2    1    2    0    0 -0.20561114510E-01 -0.76590012950E-02  0.95618639610E-02  0.10199957364E+01  0.10197148883E+01 0.  0.
     999903    2    3    3    0    0  0.64521782867E-01 -0.41035221425E-01 -0.10161813470E+00  0.12830405002E+00  0.16992177319E-01 0.  0.
         14    1    1    2    0    0  0.20561114510E-01  0.76590012950E-02 -0.95618639610E-02  0.23934263581E-01  0.00000000000E+00 0. -1.
     999901    1    3    3    0    0 -0.85082897378E-01  0.33376220130E-01  0.11117999866E+00  0.89169168640E+00  0.88000000000E+00 0. -1.
        -11    1    4    4    0    0  0.30066581706E-01 -0.28073089982E-01 -0.59867927904E-01  0.72639711103E-01  0.51100000000E-03 0. -1.
         11    1    4    4    0    0  0.34455201161E-01 -0.12962131443E-01 -0.41750206792E-01  0.55664338914E-01  0.51100000000E-03 0.  1.
</event>
<event>
 8    1  0.1111182E+005  0.1043930E+01  0.7957747E-01            NaN
         13   -1    0    0    0    0  0.00000000000E+00  0.00000000000E+00  0.74505805969E-08  0.10566000000E+00  0.10566000000E+00 0. -1.
     999900   -1    0    0    0    0 -0.00000000000E+00 -0.00000000000E+00 -0.74505805969E-08  0.93827000000E+00  0.93827000000E+00 0. -1.
     999902    2    1    2    0    0  0.29656084481E-02  0.45034558540E-02 -0.23341816339E-01  0.10199734490E+01  0.10196920713E+01 0.  0.
     999903    2    3    3    0    0  0.90038208060E-01 -0.81501448929E-01  0.39881911971E-01  0.12925704006E+00  0.19168996172E-01 0.  0.
         14    1    1    2    0    0 -0.29656084481E-02 -0.45034558540E-02  0.23341816339E-01  0.23956551048E-01  0.00000000000E+00 0. -1.
     999901    1    3    3    0    0 -0.87072599612E-01  0.86004904783E-01 -0.63223728310E-01  0.89071640889E+00  0.88000000000E+00 0. -1.
        -11    1    4    4    0    0  0.15306132091E-01 -0.58419331250E-02  0.27831302171E-02  0.16625666815E-01  0.51100000000E-03 0.  1.
         11    1    4    4    0    0  0.74732075969E-01 -0.75659515804E-01  0.37098781754E-01  0.11263137324E+00  0.51100000000E-03 0. -1.
</event>
<event>
 8    1  0.1111182E+005  0.1043930E+01  0.7957747E-01            NaN
         13   -1    0    0    0    0  0.00000000000E+00  0.00000000000E+00  0.74505805969E-08  0.10566000000E+00  0.10566000000E+00 0.  1.
     999900   -1    0    0    0    0 -0.00000000000E+00 -0.00000000000E+00 -0.74505805969E-08  0.93827000000E+00  0.93827000000E+00 0. -1.
     999902    2    1    2    0    0  0.44330475081E-02 -0.19769993536E-01 -0.42692628424E-02  0.10232241757E+01  0.10230146541E+01 0.  0.
     999903    2    3    3    0    0 -0.10940628999E-01  0.12637524701E+00  0.22675769222E-01  0.13063198662E+00  0.21450524401E-01 0.  0.
         14    1    1    2    0    0 -0.44330475081E-02  0.19769993536E-01  0.42692628424E-02  0.20705824298E-01  0.00000000000E+00 0. -1.
     999901    1    3    3    0    0  0.15373676507E-01 -0.14614524055E+00 -0.26945032065E-01  0.89259218909E+00  0.88000000000E+00 0. -1.
        -11    1    4    4    0    0  0.15420362265E-02  0.32623108121E-01 -0.24961440920E-02  0.32758768529E-01  0.51100000000E-03 0.  1.
         11    1    4    4    0    0 -0.12482665225E-01  0.93752138892E-01  0.25171913314E-01  0.97873218087E-01  0.51100000000E-03 0. -1.
</event>
<event>
 8    1  0.1111182E+005  0.1043930E+01  0.7957747E-01            NaN
         13   -1    0    0    0    0  0.00000000000E+00  0.00000000000E+00  0.74505805969E-08  0.10566000000E+00  0.10566000000E+00 0.  1.
     999900   -1    0    0    0    0 -0.00000000000E+00 -0.00000000000E+00 -0.74505805969E-08  0.93827000000E+00  0.93827000000E+00 0. -1.
     999902    2    1    2    0    0 -0.73393901261E-03 -0.18023034373E-01  0.15613919179E-01  0.10200728647E+01  0.10197938450E+01 0.  0.
     999903    2    3    3    0    0 -0.12638539166E+00  0.96278359449E-02 -0.20366058341E-01  0.12999004999E+00  0.20412601862E-01 0.  0.
         14    1    1    2    0    0  0.73393901261E-03  0.18023034373E-01 -0.15613919179E-01  0.23857135340E-01  0.00000000000E+00 0. -1.
     999901    1    3    3    0    0  0.12565145265E+00 -0.27650870318E-01  0.35979977520E-01  0.89008281467E+00  0.88000000000E+00 0. -1.
        -11    1    4    4    0    0 -0.41280869604E-01 -0.25228783498E-02  0.11217068502E-02  0.41376254756E-01  0.51100000000E-03 0. -1.
         11    1    4    4    0    0 -0.85104522057E-01  0.12150714295E-01 -0.21487765191E-01  0.88613795238E-01  0.51100000000E-03 0.  1.
</event>
<event>
 8    1  0.1111182E+005  0.1043930E+01  0.7957747E-01            NaN
         13   -1    0    0    0    0  0.00000000000E+00  0.00000000000E+00  0.74505805969E-08  0.10566000000E+00  0.10566000000E+00 0.  1.
     999900   -1    0    0    0    0 -0.00000000000E+00 -0.00000000000E+00 -0.74505805969E-08  0.93827000000E+00  0.93827000000E+00 0.  1.
     999902    2    1    2    0    0  0.78710942873E-02 -0.20607250739E-01  0.57196243345E-02  0.10211412525E+01  0.10208869333E+01 0.  0.
     999903    2    3    3    0    0  0.50175609230E-01  0.91123259182E-01 -0.74347115172E-01  0.12946638937E+00  0.20322704460E-01 0.  0.
         14    1    1    2    0    0 -0.78710942873E-02  0.20607250739E-01 -0.57196243345E-02  0.22788747461E-01  0.00000000000E+00 0.  1.
     999901    1    3    3    0    0 -0.42304514943E-01 -0.11173050992E+00  0.80066739506E-01  0.89167486317E+00  0.88000000000E+00 0. -1.
        -11    1    4    4    0    0  0.90384326442E-02  0.17909213827E-01 -0.25009307689E-01  0.32064930947E-01  0.51100000000E-03 0. -1.
         11    1    4    4    0    0  0.41137176586E-01  0.73214045356E-01 -0.49337807483E-01  0.97401458424E-01  0.51100000000E-03 0.  1.
</event>
<event>
 8    1  0.1111182E+005  0.1043930E+01  0.7957747E-01            NaN
         13   -1    0    0    0    0  0.00000000000E+00  0.00000000000E+00  0.74505805969E-08  0.10566000000E+00  0.10566000000E+00 0. -1.
     999900   -1    0    0    0    0 -0.00000000000E+00 -0.00000000000E+00 -0.74505805969E-08  0.93827000000E+00  0.93827000000E+00 0. -1.
     999902    2    1    2    0    0  0.19205863132E-01 -0.10313322608E-01 -0.59729485689E-02  0.10213267720E+01  0.10210766226E+01 0.  0.
     999903    2    3    3    0    0  0.12076768151E+00  0.87773751451E-02 -0.53814480138E-01  0.13398914186E+00  0.19880056654E-01 0.  0.
         14    1    1    2    0    0 -0.19205863132E-01  0.10313322608E-01  0.59729485689E-02  0.22603228010E-01  0.00000000000E+00 0.  1.
     999901    1    3    3    0    0 -0.10156181838E+00 -0.19090697753E-01  0.47841531569E-01  0.88733763013E+00  0.88000000000E+00 0.  1.
        -11    1    4    4    0    0  0.83514501357E-01  0.14313728420E-01 -0.41581588383E-01  0.94386674757E-01  0.51100000000E-03 0.  1.
         11    1    4    4    0    0  0.37253180156E-01 -0.55363532749E-02 -0.12232891755E-01  0.39602467108E-01  0.51100000000E-03 0. -1.
</event>
<event>
 7    1  0.1111182E+005  0.1043930E+01  0.7957747E-01            NaN
         13   -1    0    0    0    0  0.00000000000E+00  0.00000000000E+00  0.74505805969E-08  0.10566000000E+00  0.10566000000E+00 0.  1.
     999900   -1    0    0    0    0 -0.00000000000E+00 -0.00000000000E+00 -0.74505805969E-08  0.93827000000E+00  0.93827000000E+00 0.  1.
     999903    2    1    2    0    0 -0.50569657591E-01  0.56835879630E-02  0.94850917668E-01  0.10952215034E+00  0.20219084845E-01 0.  0.
         14    1    1    2    0    0  0.13956833578E-01 -0.40446743738E-02  0.40753986781E-01  0.43267077933E-01  0.00000000000E+00 0.  1.
     999901    1    1    2    0    0  0.36612824013E-01 -0.16389135892E-02 -0.13560490445E+00  0.89114077173E+00  0.88000000000E+00 0.  1.
        -11    1    3    3    0    0 -0.13366456504E-01  0.10807716817E-01  0.29260735198E-01  0.33939956505E-01  0.51100000000E-03 0. -1.
         11    1    3    3    0    0 -0.37203201087E-01 -0.51241288540E-02  0.65590182471E-01  0.75582193837E-01  0.51100000000E-03 0.  1.
</event>
<event>
 8    1  0.1111182E+005  0.1043930E+01  0.7957747E-01            NaN
         13   -1    0    0    0    0  0.00000000000E+00  0.00000000000E+00  0.74505805969E-08  0.10566000000E+00  0.10566000000E+00 0.  1.
     999900   -1    0    0    0    0 -0.00000000000E+00 -0.00000000000E+00 -0.74505805969E-08  0.93827000000E+00  0.93827000000E+00 0. -1.
     999902    2    1    2    0    0  0.14422174712E-01  0.46195274396E-02 -0.17046700878E-01  0.10211280446E+01  0.10208734272E+01 0.  0.
     999903    2    3    3    0    0  0.53399924389E-01  0.13587646468E-01 -0.12015595356E+00  0.13420571991E+00  0.23185038692E-01 0.  0.
         14    1    1    2    0    0 -0.14422174712E-01 -0.46195274396E-02  0.17046700878E-01  0.22801955355E-01  0.00000000000E+00 0.  1.
     999901    1    3    3    0    0 -0.38977749678E-01 -0.89681190281E-02  0.10310925268E+00  0.88692232474E+00  0.88000000000E+00 0.  1.
        -11    1    4    4    0    0  0.10742953295E-01 -0.64282848228E-02 -0.28974445440E-01  0.31567602076E-01  0.51100000000E-03 0.  1.
         11    1    4    4    0    0  0.42656971094E-01  0.20015931291E-01 -0.91181508119E-01  0.10263811783E+00  0.51100000000E-03 0. -1.
</event>
<event>
 8    1  0.1111182E+005  0.1043930E+01  0.7957747E-01            NaN
         13   -1    0    0    0    0  0.00000000000E+00  0.00000000000E+00  0.74505805969E-08  0.10566000000E+00  0.10566000000E+00 0.  1.
     999900   -1    0    0    0    0 -0.00000000000E+00 -0.00000000000E+00 -0.74505805969E-08  0.93827000000E+00  0.93827000000E+00 0.  1.
     999902    2    1    2    0    0 -0.34424195766E-02  0.20202009481E-01 -0.16258794322E-01  0.10177704925E+01  0.10174342512E+01 0.  0.
     999903    2    3    3    0    0 -0.45409842373E-01  0.50091223099E-01  0.10644620178E+00  0.12776423088E+00  0.20535832145E-01 0.  0.
         14    1    1    2    0    0  0.34424195766E-02 -0.20202009481E-01  0.16258794322E-01  0.26159507495E-01  0.00000000000E+00 0.  1.
     999901    1    3    3    0    0  0.41967422796E-01 -0.29889213618E-01 -0.12270499610E+00  0.89000626163E+00  0.88000000000E+00 0.  1.
        -11    1    4    4    0    0 -0.25445337826E-01  0.37057223407E-01  0.82589784824E-01  0.94032104635E-01  0.51100000000E-03 0. -1.
         11    1    4    4    0    0 -0.19964504547E-01  0.13033999692E-01  0.23856416958E-01  0.33732126243E-01  0.51100000000E-03 0.  1.
</event>
<event>
 8    1  0.1111182E+005  0.1043930E+01  0.7957747E-01            NaN
         13   -1    0    0    0    0  0.00000000000E+00  0.00000000000E+00  0.74505805969E-08  0.10566000000E+00  0.10566000000E+00 0. -1.
     999900   -1    0    0    0    0 -0.00000000000E+00 -0.00000000000E+00 -0.74505805969E-08  0.93827000000E+00  0.93827000000E+00 0.  1.
     999902    2    1    2    0    0 -0.47936039884E-03  0.13172416178E-01 -0.19756321780E-01  0.10201801666E+01  0.10199036807E+01 0.  0.
     999903    2    3    3    0    0 -0.77233102236E-01 -0.13892898048E-01 -0.10522821766E+00  0.13230116976E+00  0.16512329631E-01 0.  0.
         14    1    1    2    0    0  0.47936039884E-03 -0.13172416178E-01  0.19756321780E-01  0.23749833360E-01  0.00000000000E+00 0. -1.
     999901    1    3    3    0    0  0.76753741838E-01  0.27065314226E-01  0.85471895880E-01  0.88787899688E+00  0.88000000000E+00 0. -1.
        -11    1    4    4    0    0 -0.40065807957E-01 -0.18183762188E-02 -0.63683338930E-01  0.75262236464E-01  0.51100000000E-03 0.  1.
         11    1    4    4    0    0 -0.37167294279E-01 -0.12074521829E-01 -0.41544878730E-01  0.57038933292E-01  0.51100000000E-03 0. -1.
</event>
<event>
 8    1  0.1111182E+005  0.1043930E+01  0.7957747E-01            NaN
         13   -1    0    0    0    0  0.00000000000E+00  0.00000000000E+00  0.74505805969E-08  0.10566000000E+00  0.10566000000E+00 0.  1.
     999900   -1    0    0    0    0 -0.00000000000E+00 -0.00000000000E+00 -0.74505805969E-08  0.93827000000E+00  0.93827000000E+00 0.  1.
     999902    2    1    2    0    0 -0.79993802361E-02 -0.20814741508E-02 -0.22120423393E-01  0.10203156876E+01  0.10200423847E+01 0.  0.
     999903    2    3    3    0    0  0.96601904145E-01  0.84150176313E-01  0.93335695327E-04  0.12965819040E+00  0.19951380100E-01 0.  0.
         14    1    1    2    0    0  0.79993802361E-02  0.20814741508E-02  0.22120423393E-01  0.23614312395E-01  0.00000000000E+00 0.  1.
     999901    1    3    3    0    0 -0.10460128438E+00 -0.86231650464E-01 -0.22213759089E-01  0.89065749721E+00  0.88000000000E+00 0.  1.
        -11    1    4    4    0    0  0.51708540951E-01  0.41073362965E-01 -0.94496226334E-02  0.66710949936E-01  0.51100000000E-03 0.  1.
         11    1    4    4    0    0  0.44893363195E-01  0.43076813349E-01  0.95429583287E-02  0.62947240463E-01  0.51100000000E-03 0. -1.
</event>
<event>
 8    1  0.1111182E+005  0.1043930E+01  0.7957747E-01            NaN
         13   -1    0    0    0    0  0.00000000000E+00  0.00000000000E+00  0.74505805969E-08  0.10566000000E+00  0.10566000000E+00 0.  1.
     999900   -1    0    0    0    0 -0.00000000000E+00 -0.00000000000E+00 -0.74505805969E-08  0.93827000000E+00  0.93827000000E+00 0. -1.
     999902    2    1    2    0    0  0.93343972339E-02 -0.17253988342E-01 -0.14239304221E-01  0.10196897675E+01  0.10194016054E+01 0.  0.
     999903    2    3    3    0    0 -0.60183325141E-02 -0.10049237174E+00 -0.84483291376E-01  0.13284223130E+00  0.19357034660E-01 0.  0.
         14    1    1    2    0    0 -0.93343972339E-02  0.17253988342E-01  0.14239304221E-01  0.24240232468E-01  0.00000000000E+00 0. -1.
     999901    1    3    3    0    0  0.15352729748E-01  0.83238383403E-01  0.70243987155E-01  0.88684753623E+00  0.88000000000E+00 0.  1.
        -11    1    4    4    0    0 -0.12605235024E-01 -0.75204543695E-01 -0.60012602284E-01  0.97038079620E-01  0.51100000000E-03 0. -1.
         11    1    4    4    0    0  0.65869025101E-02 -0.25287828049E-01 -0.24470689092E-01  0.35804151683E-01  0.51100000000E-03 0.  1.
</event>
<event>
 8    1  0.1111182E+005  0.1043930E+01  0.7957747E-01            NaN
         13   -1    0    0    0    0  0.00000000000E+00  0.00000000000E+00  0.74505805969E-08  0.10566000000E+00  0.10566000000E+00 0. -1.
     999900   -1    0    0    0    0 -0.00000000000E+00 -0.00000000000E+00 -0.74505805969E-08  0.93827000000E+00  0.93827000000E+00 0. -1.
     999902    2    1    2    0    0 -0.16354296817E-01 -0.17294459197E-01 -0.61369950085E-02  0.10193490307E+01  0.10190526102E+01 0.  0.
     999903    2    3    3    0    0  0.70239900016E-01 -0.88333013293E-01  0.60801150080E-01  0.12972790554E+00  0.19904392288E-01 0.  0.
         14    1    1    2    0    0  0.16354296817E-01  0.17294459197E-01  0.61369950085E-02  0.24580969286E-01  0.00000000000E+00 0. -1.
     999901    1    3    3    0    0 -0.86594196833E-01  0.71038554096E-01 -0.66938145088E-01  0.88962112518E+00  0.88000000000E+00 0. -1.
        -11    1    4    4    0    0  0.49750850811E-01 -0.70125904770E-01  0.37728204963E-01  0.93896050220E-01  0.51100000000E-03 0. -1.
         11    1    4    4    0    0  0.20489049205E-01 -0.18207108523E-01  0.23072945117E-01  0.35831855317E-01  0.51100000000E-03 0.  1.
</event>
<event>
 8    1  0.1111182E+005  0.1043930E+01  0.7957747E-01            NaN
         13   -1    0    0    0    0  0.00000000000E+00  0.00000000000E+00  0.74505805969E-08  0.10566000000E+00  0.10566000000E+00 0.  1.
     999900   -1    0    0    0    0 -0.00000000000E+00 -0.00000000000E+00 -0.74505805969E-08  0.93827000000E+00  0.93827000000E+00 0. -1.
     999902    2    1    2    0    0 -0.19887377841E-01 -0.40843988227E-02 -0.14886765598E-01  0.10187544980E+01  0.10184433815E+01 0.  0.
     999903    2    3    3    0    0 -0.96251861991E-01  0.51470798541E-01 -0.71287492587E-01  0.13190673406E+00  0.20095169867E-01 0.  0.
         14    1    1    2    0    0  0.19887377841E-01  0.40843988227E-02  0.14886765598E-01  0.25175502003E-01  0.00000000000E+00 0.  1.
     999901    1    3    3    0    0  0.76364484150E-01 -0.55555197364E-01  0.56400726989E-01  0.88684776394E+00  0.88000000000E+00 0.  1.
        -11    1    4    4    0    0 -0.12534975366E-01  0.46849253778E-02 -0.18835070955E-02  0.13523418695E-01  0.51100000000E-03 0.  1.
         11    1    4    4    0    0 -0.83716886625E-01  0.46785873163E-01 -0.69403985492E-01  0.11838331537E+00  0.51100000000E-03 0. -1.
</event>
<event>
 8    1  0.1111182E+005  0.1043930E+01  0.7957747E-01            NaN
         13   -1    0    0    0    0  0.00000000000E+00  0.00000000000E+00  0.74505805969E-08  0.10566000000E+00  0.10566000000E+00 0. -1.
     999900   -1    0    0    0    0 -0.00000000000E+00 -0.00000000000E+00 -0.74505805969E-08  0.93827000000E+00  0.93827000000E+00 0. -1.
     999902    2    1    2    0    0  0.92737064998E-02 -0.11953795875E-01 -0.18636460439E-01  0.10199255728E+01  0.10196430559E+01 0.  0.
     999903    2    3    3    0    0  0.55445149602E-01  0.97040647756E-01 -0.65012446059E-01  0.13078985596E+00  0.19705744028E-01 0.  0.
         14    1    1    2    0    0 -0.92737064998E-02  0.11953795875E-01  0.18636460439E-01  0.24004427212E-01  0.00000000000E+00 0. -1.
     999901    1    3    3    0    0 -0.46171443102E-01 -0.10899444363E+00  0.46375985620E-01  0.88913571683E+00  0.88000000000E+00 0.  1.
        -11    1    4    4    0    0  0.47256887519E-01  0.91059009546E-01 -0.54480877375E-01  0.11616102512E+00  0.51100000000E-03 0.  1.
         11    1    4    4    0    0  0.81882620826E-02  0.59816382104E-02 -0.10531568684E-01  0.14628830834E-01  0.51100000000E-03 0. -1.
</event>
<event>
 8    1  0.1111182E+005  0.1043930E+01  0.7957747E-01            NaN
         13   -1    0    0    0    0  0.00000000000E+00  0.00000000000E+00  0.74505805969E-08  0.10566000000E+00  0.10566000000E+00 0. -1.
     999900   -1    0    0    0    0 -0.00000000000E+00 -0.00000000000E+00 -0.74505805969E-08  0.93827000000E+00  0.93827000000E+00 0.  1.
     999902    2    1    2    0    0 -0.11605427455E-01  0.20111205518E-01  0.49352232665E-02  0.10201917827E+01  0.10199155703E+01 0.  0.
     999903    2    3    3    0    0 -0.80518184763E-01 -0.45048223679E-01  0.90737444336E-01  0.13094674305E+00  0.20031105212E-01 0.  0.
         14    1    1    2    0    0  0.11605427455E-01 -0.20111205518E-01 -0.49352232665E-02  0.23738217341E-01  0.00000000000E+00 0. -1.
     999901    1    3    3    0    0  0.68912757308E-01  0.65159429197E-01 -0.85802221070E-01  0.88924503961E+00  0.88000000000E+00 0.  1.
        -11    1    4    4    0    0 -0.48921036846E-01 -0.25958985704E-01  0.40546894614E-01  0.68639992488E-01  0.51100000000E-03 0.  1.
         11    1    4    4    0    0 -0.31597147918E-01 -0.19089237975E-01  0.50190549722E-01  0.62306750560E-01  0.51100000000E-03 0. -1.
</event>
<event>
 8    1  0.1111182E+005  0.1043930E+01  0.7957747E-01            NaN
         13   -1    0    0    0    0  0.00000000000E+00  0.00000000000E+00  0.74505805969E-08  0.10566000000E+00  0.10566000000E+00 0.  1.
     999900   -1    0    0    0    0 -0.00000000000E+00 -0.00000000000E+00 -0.74505805969E-08  0.93827000000E+00  0.93827000000E+00 0.  1.
     999902    2    1    2    0    0  0.10818077269E-01 -0.19537486952E-02  0.22550239962E-01  0.10188429266E+01  0.10185340190E+01 0.  0.
     999903    2    3    3    0    0  0.87502242965E-01  0.83411872295E-01 -0.40558387653E-01  0.12915171646E+00  0.20518286743E-01 0.  0.
         14    1    1    2    0    0 -0.10818077269E-01  0.19537486952E-02 -0.22550239962E-01  0.25087073407E-01  0.00000000000E+00 0. -1.
     999901    1    3    3    0    0 -0.76684165696E-01 -0.85365620990E-01  0.63108627615E-01  0.88969121014E+00  0.88000000000E+00 0.  1.
        -11    1    4    4    0    0  0.57407773624E-01  0.64093831172E-01 -0.35286602092E-01  0.93000414381E-01  0.51100000000E-03 0. -1.
         11    1    4    4    0    0  0.30094469341E-01  0.19318041123E-01 -0.52717855612E-02  0.36151302075E-01  0.51100000000E-03 0.  1.
</event>
<event>
 8    1  0.1111182E+005  0.1043930E+01  0.7957747E-01            NaN
         13   -1    0    0    0    0  0.00000000000E+00  0.00000000000E+00  0.74505805969E-08  0.10566000000E+00  0.10566000000E+00 0. -1.
     999900   -1    0    0    0    0 -0.00000000000E+00 -0.00000000000E+00 -0.74505805969E-08  0.93827000000E+00  0.93827000000E+00 0.  1.
     999902    2    1    2    0    0 -0.10487137668E-01 -0.19955960231E-01 -0.93772506233E-02  0.10195137506E+01  0.10192213373E+01 0.  0.
     999903    2    3    3    0    0 -0.64423023979E-02 -0.79018421413E-01  0.10182098208E+00  0.13054255761E+00  0.19708697935E-01 0.  0.
         14    1    1    2    0    0  0.10487137668E-01  0.19955960231E-01  0.93772506233E-02  0.24416249393E-01  0.00000000000E+00 0. -1.
     999901    1    3    3    0    0 -0.40448352698E-02  0.59062461182E-01 -0.11119823270E+00  0.88897119299E+00  0.88000000000E+00 0.  1.
        -11    1    4    4    0    0 -0.55371905652E-02 -0.25173527448E-01  0.47528310485E-01  0.54070032200E-01  0.51100000000E-03 0. -1.
         11    1    4    4    0    0 -0.90511183271E-03 -0.53844893965E-01  0.54292671594E-01  0.76472525415E-01  0.51100000000E-03 0.  1.
</event>
<event>
 8    1  0.1111182E+005  0.1043930E+01  0.7957747E-01            NaN
         13   -1    0    0    0    0  0.00000000000E+00  0.00000000000E+00  0.74505805969E-08  0.10566000000E+00  0.10566000000E+00 0.  1.
     999900   -1    0    0    0    0 -0.00000000000E+00 -0.00000000000E+00 -0.74505805969E-08  0.93827000000E+00  0.93827000000E+00 0.  1.
     999902    2    1    2    0    0 -0.99737806039E-02  0.99529383416E-02 -0.18085159935E-01  0.10210038078E+01  0.10207463765E+01 0.  0.
     999903    2    3    3    0    0 -0.15886024595E-01  0.12735682265E+00  0.24841750392E-01  0.13214985669E+00  0.19348023387E-01 0.  0.
         14    1    1    2    0    0  0.99737806039E-02 -0.99529383416E-02  0.18085159935E-01  0.22926192249E-01  0.00000000000E+00 0. -1.
     999901    1    3    3    0    0  0.59122439915E-02 -0.11740388431E+00 -0.42926910327E-01  0.88885395106E+00  0.88000000000E+00 0. -1.
        -11    1    4    4    0    0 -0.34255166969E-02  0.83318137793E-01  0.97632238897E-02  0.83959680274E-01  0.51100000000E-03 0.  1.
         11    1    4    4    0    0 -0.12460507898E-01  0.44038684856E-01  0.15078526503E-01  0.48190176420E-01  0.51100000000E-03 0. -1.
</event>
<event>
 8    1  0.1111182E+005  0.1043930E+01  0.7957747E-01            NaN
         13   -1    0    0    0    0  0.00000000000E+00  0.00000000000E+00  0.74505805969E-08  0.10566000000E+00  0.10566000000E+00 0. -1.
     999900   -1    0    0    0    0 -0.00000000000E+00 -0.00000000000E+00 -0.74505805969E-08  0.93827000000E+00  0.93827000000E+00 0. -1.
     999902    2    1    2    0    0 -0.74652219544E-02  0.20614722151E-01 -0.88469048148E-02  0.10202875798E+01  0.10200136183E+01 0.  0.
     999903    2    3    3    0    0 -0.78720736080E-01 -0.30945161265E-02 -0.10406403713E+00  0.13197131936E+00  0.19508331290E-01 0.  0.
         14    1    1    2    0    0  0.74652219544E-02 -0.20614722151E-01  0.88469048148E-02  0.23642420202E-01  0.00000000000E+00 0. -1.
     999901    1    3    3    0    0  0.71255514125E-01  0.23709238278E-01  0.95217132320E-01  0.88831626044E+00  0.88000000000E+00 0.  1.
        -11    1    4    4    0    0 -0.16859302771E-01 -0.85950681115E-02 -0.21322684623E-01  0.28513668412E-01  0.51100000000E-03 0. -1.
         11    1    4    4    0    0 -0.61861433309E-01  0.55005519850E-02 -0.82741352511E-01  0.10345765095E+00  0.51100000000E-03 0.  1.
</event>
<event>
 8    1  0.1111182E+005  0.1043930E+01  0.7957747E-01            NaN
         13   -1    0    0    0    0  0.00000000000E+00  0.00000000000E+00  0.74505805969E-08  0.10566000000E+00  0.10566000000E+00 0. -1.
     999900   -1    0    0    0    0 -0.00000000000E+00 -0.00000000000E+00 -0.74505805969E-08  0.93827000000E+00  0.93827000000E+00 0.  1.
     999902    2    1    2    0    0 -0.18590622780E-01  0.26649197535E-02 -0.12833489689E-01  0.10211833187E+01  0.10209299481E+01 0.  0.
     999903    2    3    3    0    0 -0.33076905449E-01 -0.11585082067E+00 -0.50606453596E-01  0.13231739522E+00  0.20769824463E-01 0.  0.
         14    1    1    2    0    0  0.18590622780E-01 -0.26649197535E-02  0.12833489689E-01  0.22746681302E-01  0.00000000000E+00 0. -1.
     999901    1    3    3    0    0  0.14486282669E-01  0.11851574043E+00  0.37772963907E-01  0.88886592348E+00  0.88000000000E+00 0. -1.
        -11    1    4    4    0    0 -0.54183156669E-02 -0.56527399000E-01 -0.22571576769E-01  0.61110082484E-01  0.51100000000E-03 0.  1.
         11    1    4    4    0    0 -0.27658589782E-01 -0.59323421673E-01 -0.28034876827E-01  0.71207312738E-01  0.51100000000E-03 0. -1.
</event>
<event>
 8    1  0.1111182E+005  0.1043930E+01  0.7957747E-01            NaN
         13   -1    0    0    0    0  0.00000000000E+00  0.00000000000E+00  0.74505805969E-08  0.10566000000E+00  0.10566000000E+00 0.  1.
     999900   -1    0    0    0    0 -0.00000000000E+00 -0.00000000000E+00 -0.74505805969E-08  0.93827000000E+00  0.93827000000E+00 0. -1.
     999902    2    1    2    0    0 -0.17588037797E-01 -0.12627507647E-01 -0.98978530496E-02  0.10201232674E+01  0.10198454393E+01 0.  0.
     999903    2    3    3    0    0 -0.95552067338E-02 -0.17282957776E-01 -0.12897064787E+00  0.13205540395E+00  0.20376434845E-01 0.  0.
         14    1    1    2    0    0  0.17588037797E-01  0.12627507647E-01  0.98978530496E-02  0.23806732617E-01  0.00000000000E+00 0.  1.
     999901    1    3    3    0    0 -0.80328310630E-02  0.46554501287E-02  0.11907279482E+00  0.88806786343E+00  0.88000000000E+00 0.  1.
        -11    1    4    4    0    0  0.52118677069E-02  0.14366884880E-04 -0.33819424100E-01  0.34222482944E-01  0.51100000000E-03 0. -1.
         11    1    4    4    0    0 -0.14767074441E-01 -0.17297324661E-01 -0.95151223766E-01  0.97832921009E-01  0.51100000000E-03 0.  1.
</event>
<event>
 8    1  0.1111182E+005  0.1043930E+01  0.7957747E-01            NaN
         13   -1    0    0    0    0  0.00000000000E+00  0.00000000000E+00  0.74505805969E-08  0.10566000000E+00  0.10566000000E+00 0.  1.
     999900   -1    0    0    0    0 -0.00000000000E+00 -0.00000000000E+00 -0.74505805969E-08  0.93827000000E+00  0.93827000000E+00 0. -1.
     999902    2    1    2    0    0  0.15794880399E-01  0.44243790666E-02  0.15371314886E-01  0.10214504382E+01  0.10212030489E+01 0.  0.
     999903    2    3    3    0    0 -0.88619016335E-02  0.11203085898E+00  0.68126726675E-01  0.13298533203E+00  0.20356841191E-01 0.  0.
         14    1    1    2    0    0 -0.15794880399E-01 -0.44243790666E-02 -0.15371314886E-01  0.22479561790E-01  0.00000000000E+00 0. -1.
     999901    1    3    3    0    0  0.24656782033E-01 -0.10760647992E+00 -0.52755411790E-01  0.88846510618E+00  0.88000000000E+00 0.  1.
        -11    1    4    4    0    0  0.63775711154E-02  0.27682200085E-01  0.19162621501E-01  0.34270173602E-01  0.51100000000E-03 0.  1.
         11    1    4    4    0    0 -0.15239472749E-01  0.84348658899E-01  0.48964105174E-01  0.98715158432E-01  0.51100000000E-03 0. -1.
</event>
<event>
 8    1  0.1111182E+005  0.1043930E+01  0.7957747E-01            NaN
         13   -1    0    0    0    0  0.00000000000E+00  0.00000000000E+00  0.74505805969E-08  0.10566000000E+00  0.10566000000E+00 0. -1.
     999900   -1    0    0    0    0 -0.00000000000E+00 -0.00000000000E+00 -0.74505805969E-08  0.93827000000E+00  0.93827000000E+00 0.  1.
     999902    2    1    2    0    0 -0.62892912133E-02  0.21060857680E-01  0.41645338251E-02  0.10215590757E+01  0.10213140981E+01 0.  0.
     999903    2    3    3    0    0  0.98689287388E-01 -0.81784685527E-01 -0.29226954519E-02  0.12934389063E+00  0.17116940826E-01 0.  0.
         14    1    1    2    0    0  0.62892912133E-02 -0.21060857680E-01 -0.41645338251E-02  0.22370924258E-01  0.00000000000E+00 0. -1.
     999901    1    3    3    0    0 -0.10497857860E+00  0.10284554321E+00  0.70872292770E-02  0.89221518511E+00  0.88000000000E+00 0.  1.
        -11    1    4    4    0    0  0.48211297019E-01 -0.36531115877E-01  0.67349388732E-02  0.60864374720E-01  0.51100000000E-03 0.  1.
         11    1    4    4    0    0  0.50477990369E-01 -0.45253569650E-01 -0.96576343251E-02  0.68479515912E-01  0.51100000000E-03 0. -1.
</event>
<event>
 8    1  0.1111182E+005  0.1043930E+01  0.7957747E-01            NaN
         13   -1    0    0    0    0  0.00000000000E+00  0.00000000000E+00  0.74505805969E-08  0.10566000000E+00  0.10566000000E+00 0. -1.
     999900   -1    0    0    0    0 -0.00000000000E+00 -0.00000000000E+00 -0.74505805969E-08  0.93827000000E+00  0.93827000000E+00 0.  1.
     999902    2    1    2    0    0  0.37398174034E-02  0.19659322839E-01 -0.13689309759E-01  0.10196839197E+01  0.10193956169E+01 0.  0.
     999903    2    3    3    0    0 -0.65454076138E-01  0.10935390180E+00  0.26053795776E-01  0.13153279131E+00  0.19482376509E-01 0.  0.
         14    1    1    2    0    0 -0.37398174034E-02 -0.19659322839E-01  0.13689309759E-01  0.24246080309E-01  0.00000000000E+00 0.  1.
     999901    1    3    3    0    0  0.69193893541E-01 -0.89694578962E-01 -0.39743105535E-01  0.88815112838E+00  0.88000000000E+00 0.  1.
        -11    1    4    4    0    0 -0.64500670070E-02  0.34066261687E-02 -0.70134610949E-03  0.73458473721E-02  0.51100000000E-03 0. -1.
         11    1    4    4    0    0 -0.59004009131E-01  0.10594727563E+00  0.26755141886E-01  0.12418694394E+00  0.51100000000E-03 0.  1.
</event>
<event>
 8    1  0.1111182E+005  0.1043930E+01  0.7957747E-01            NaN
         13   -1    0    0    0    0  0.00000000000E+00  0.00000000000E+00  0.74505805969E-08  0.10566000000E+00  0.10566000000E+00 0.  1.
     999900   -1    0    0    0    0 -0.00000000000E+00 -0.00000000000E+00 -0.74505805969E-08  0.93827000000E+00  0.93827000000E+00 0.  1.
     999902    2    1    2    0    0  0.74032668746E-02 -0.21452616962E-01 -0.75786126500E-02  0.10200038949E+01  0.10197232405E+01 0.  0.
     999903    2    3    3    0    0  0.10627412300E-01 -0.20997122285E-01 -0.12810370929E+00  0.13178269414E+00  0.20057345403E-01 0.  0.
         14    1    1    2    0    0 -0.74032668746E-02  0.21452616962E-01  0.75786126500E-02  0.23926105087E-01  0.00000000000E+00 0.  1.
     999901    1    3    3    0    0 -0.32241454251E-02 -0.45549467669E-03  0.12052509664E+00  0.88822120078E+00  0.88000000000E+00 0. -1.
        -11    1    4    4    0    0 -0.41048660904E-02 -0.13739410051E-01 -0.53473249926E-01  0.55364888628E-01  0.51100000000E-03 0. -1.
         11    1    4    4    0    0  0.14732278390E-01 -0.72577122345E-02 -0.74630459360E-01  0.76417805509E-01  0.51100000000E-03 0.  1.
</event>
<event>
 8    1  0.1111182E+005  0.1043930E+01  0.7957747E-01            NaN
         13   -1    0    0    0    0  0.00000000000E+00  0.00000000000E+00  0.74505805969E-08  0.10566000000E+00  0.10566000000E+00 0.  1.
     999900   -1    0    0    0    0 -0.00000000000E+00 -0.00000000000E+00 -0.74505805969E-08  0.93827000000E+00  0.93827000000E+00 0.  1.
     999902    2    1    2    0    0  0.14205604583E-01  0.17237189089E-01  0.68729528364E-02  0.10205599899E+01  0.10202923776E+01 0.  0.
     999903    2    3    3    0    0  0.59983788033E-02  0.54790010411E-01 -0.11722577177E+00  0.13102187025E+00  0.19670361618E-01 0.  0.
         14    1    1    2    0    0 -0.14205604583E-01 -0.17237189089E-01 -0.68729528364E-02  0.23370010055E-01  0.00000000000E+00 0. -1.
     999901    1    3    3    0    0  0.82072257800E-02 -0.37552821322E-01  0.12409872461E+00  0.88953811970E+00  0.88000000000E+00 0. -1.
        -11    1    4    4    0    0  0.44262489803E-02  0.16583373676E-01 -0.58283591843E-01  0.60760498366E-01  0.51100000000E-03 0.  1.
         11    1    4    4    0    0  0.15721298230E-02  0.38206636735E-01 -0.58942179931E-01  0.70261371882E-01  0.51100000000E-03 0. -1.
</event>
<event>
 8    1  0.1111182E+005  0.1043930E+01  0.7957747E-01            NaN
         13   -1    0    0    0    0  0.00000000000E+00  0.00000000000E+00  0.74505805969E-08  0.10566000000E+00  0.10566000000E+00 0.  1.
     999900   -1    0    0    0    0 -0.00000000000E+00 -0.00000000000E+00 -0.74505805969E-08  0.93827000000E+00  0.93827000000E+00 0.  1.
     999902    2    1    2    0    0 -0.64015058307E-02 -0.16309627980E-01 -0.16907152123E-01  0.10195817961E+01  0.10192910300E+01 0.  0.
     999903    2    3    3    0    0 -0.17319112217E-01 -0.11246656645E+00 -0.65626770728E-01  0.13293702381E+00  0.20413207592E-01 0.  0.
         14    1    1    2    0    0  0.64015058307E-02  0.16309627980E-01  0.16907152123E-01  0.24348203931E-01  0.00000000000E+00 0.  1.
     999901    1    3    3    0    0  0.10917606386E-01  0.96156938473E-01  0.48719618605E-01  0.88664477226E+00  0.88000000000E+00 0. -1.
        -11    1    4    4    0    0 -0.25322577049E-02 -0.52481388443E-01 -0.40055681540E-01  0.66071379633E-01  0.51100000000E-03 0.  1.
         11    1    4    4    0    0 -0.14786854512E-01 -0.59985178010E-01 -0.25571089188E-01  0.66865644172E-01  0.51100000000E-03 0. -1.
</event>
<event>
 8    1  0.1111182E+005  0.1043930E+01  0.7957747E-01            NaN
         13   -1    0    0    0    0  0.00000000000E+00  0.00000000000E+00  0.74505805969E-08  0.10566000000E+00  0.10566000000E+00 0. -1.
     999900   -1    0    0    0    0 -0.00000000000E+00 -0.00000000000E+00 -0.74505805969E-08  0.93827000000E+00  0.93827000000E+00 0.  1.
     999902    2    1    2    0    0  0.17784628495E-01  0.22989728385E-02  0.16220662824E-01  0.10197496735E+01  0.10194629510E+01 0.  0.
     999903    2    3    3    0    0  0.11108208299E+00 -0.11940807376E-01  0.69429123328E-01  0.13310525401E+00  0.20366478278E-01 0.  0.
         14    1    1    2    0    0 -0.17784628495E-01 -0.22989728385E-02 -0.16220662824E-01  0.24180326492E-01  0.00000000000E+00 0.  1.
     999901    1    3    3    0    0 -0.93297454493E-01  0.14239780215E-01 -0.53208460504E-01  0.88664441950E+00  0.88000000000E+00 0.  1.
        -11    1    4    4    0    0  0.16445290792E-01  0.20433248506E-02  0.18074683906E-01  0.24527088799E-01  0.51100000000E-03 0.  1.
         11    1    4    4    0    0  0.94636792196E-01 -0.13984132227E-01  0.51354439422E-01  0.10857816521E+00  0.51100000000E-03 0. -1.
</event>
<event>
 8    1  0.1111182E+005  0.1043930E+01  0.7957747E-01            NaN
         13   -1    0    0    0    0  0.00000000000E+00  0.00000000000E+00  0.74505805969E-08  0.10566000000E+00  0.10566000000E+00 0. -1.
     999900   -1    0    0    0    0 -0.00000000000E+00 -0.00000000000E+00 -0.74505805969E-08  0.93827000000E+00  0.93827000000E+00 0.  1.
     999902    2    1    2    0    0  0.10669274743E-01  0.19270189397E-01 -0.76699405034E-02  0.10206061579E+01  0.10203396140E+01 0.  0.
     999903    2    3    3    0    0  0.56427492893E-01  0.10904855145E+00  0.47522323558E-01  0.13313776137E+00  0.19789990933E-01 0.  0.
         14    1    1    2    0    0 -0.10669274743E-01 -0.19270189397E-01  0.76699405034E-02  0.23323842099E-01  0.00000000000E+00 0. -1.
     999901    1    3    3    0    0 -0.45758218149E-01 -0.89778362049E-01 -0.55192264061E-01  0.88746839653E+00  0.88000000000E+00 0.  1.
        -11    1    4    4    0    0  0.27155081355E-01  0.34748555817E-01  0.11816893042E-01  0.45659179328E-01  0.51100000000E-03 0.  1.
         11    1    4    4    0    0  0.29272411538E-01  0.74299995628E-01  0.35705430516E-01  0.87478582047E-01  0.51100000000E-03 0. -1.
</event>
<event>
 8    1  0.1111182E+005  0.1043930E+01  0.7957747E-01            NaN
         13   -1    0    0    0    0  0.00000000000E+00  0.00000000000E+00  0.74505805969E-08  0.10566000000E+00  0.10566000000E+00 0. -1.
     999900   -1    0    0    0    0 -0.00000000000E+00 -0.00000000000E+00 -0.74505805969E-08  0.93827000000E+00  0.93827000000E+00 0. -1.
     999902    2    1    2    0    0  0.13263747387E-01  0.18946350909E-01 -0.20095752524E-02  0.10207151427E+01  0.10204511125E+01 0.  0.
     999903    2    3    3    0    0 -0.76581656095E-01 -0.34421816449E-01  0.95933345068E-01  0.12913610892E+00  0.20574655087E-01 0.  0.
         14    1    1    2    0    0 -0.13263747387E-01 -0.18946350909E-01  0.20095752524E-02  0.23214857316E-01  0.00000000000E+00 0. -1.
     999901    1    3    3    0    0  0.89845403482E-01  0.53368167358E-01 -0.97942920321E-01  0.89157903377E+00  0.88000000000E+00 0. -1.
        -11    1    4    4    0    0 -0.17086594967E-01 -0.15216158366E-01  0.17363343173E-01  0.28726816916E-01  0.51100000000E-03 0. -1.
         11    1    4    4    0    0 -0.59495061128E-01 -0.19205658083E-01  0.78570001896E-01  0.10040929200E+00  0.51100000000E-03 0.  1.
</event>
<event>
 8    1  0.1111182E+005  0.1043930E+01  0.7957747E-01            NaN
         13   -1    0    0    0    0  0.00000000000E+00  0.00000000000E+00  0.74505805969E-08  0.10566000000E+00  0.10566000000E+00 0.  1.
     999900   -1    0    0    0    0 -0.00000000000E+00 -0.00000000000E+00 -0.74505805969E-08  0.93827000000E+00  0.93827000000E+00 0.  1.
     999902    2    1    2    0    0  0.22510414440E-01 -0.35070713753E-02 -0.67575165312E-02  0.10201669544E+01  0.10198901571E+01 0.  0.
     999903    2    3    3    0    0  0.10816029831E+00 -0.45357471194E-01 -0.59912090660E-01  0.13342416905E+00  0.21368199631E-01 0.  0.
         14    1    1    2    0    0 -0.22510414440E-01  0.35070713753E-02  0.67575165312E-02  0.23763045629E-01  0.00000000000E+00 0.  1.
     999901    1    3    3    0    0 -0.85649883869E-01  0.41850399819E-01  0.53154574129E-01  0.88674278532E+00  0.88000000000E+00 0. -1.
        -11    1    4    4    0    0  0.65628430590E-01 -0.16276247746E-01 -0.31704132068E-01  0.74682128073E-01  0.51100000000E-03 0.  1.
         11    1    4    4    0    0  0.42531867719E-01 -0.29081223449E-01 -0.28207958592E-01  0.58742040975E-01  0.51100000000E-03 0. -1.
</event>
<event>
 8    1  0.1111182E+005  0.1043930E+01  0.7957747E-01            NaN
         13   -1    0    0    0    0  0.00000000000E+00  0.00000000000E+00  0.74505805969E-08  0.10566000000E+00  0.10566000000E+00 0. -1.
     999900   -1    0    0    0    0 -0.00000000000E+00 -0.00000000000E+00 -0.74505805969E-08  0.93827000000E+00  0.93827000000E+00 0. -1.
     999902    2    1    2    0    0 -0.22319751417E-01 -0.18082709180E-01  0.83346005580E-03  0.10151923882E+01  0.10147855610E+01 0.  0.
     999903    2    3    3    0    0 -0.12050470327E+00 -0.26163959181E-01 -0.32407833918E-01  0.12907130452E+00  0.20079782901E-01 0.  0.
         14    1    1    2    0    0  0.22319751417E-01  0.18082709180E-01 -0.83346005580E-03  0.28737611770E-01  0.00000000000E+00 0. -1.
     999901    1    3    3    0    0  0.98184951850E-01  0.80812500017E-02  0.33241293974E-01  0.88612108371E+00  0.88000000000E+00 0. -1.
        -11    1    4    4    0    0 -0.78307361506E-01 -0.18744371535E-01 -0.11311850370E-01  0.81311828229E-01  0.51100000000E-03 0. -1.
         11    1    4    4    0    0 -0.42197341762E-01 -0.74195876468E-02 -0.21095983548E-01  0.47759476290E-01  0.51100000000E-03 0.  1.
</event>
<event>
 8    1  0.1111182E+005  0.1043930E+01  0.7957747E-01            NaN
         13   -1    0    0    0    0  0.00000000000E+00  0.00000000000E+00  0.74505805969E-08  0.10566000000E+00  0.10566000000E+00 0. -1.
     999900   -1    0    0    0    0 -0.00000000000E+00 -0.00000000000E+00 -0.74505805969E-08  0.93827000000E+00  0.93827000000E+00 0.  1.
     999902    2    1    2    0    0 -0.18409771980E-01  0.13854013652E-02 -0.14449290274E-01  0.10204860022E+01  0.10202166729E+01 0.  0.
     999903    2    3    3    0    0 -0.33479592952E-01  0.75489748930E-01  0.98370894108E-01  0.13006646751E+00  0.20515063381E-01 0.  0.
         14    1    1    2    0    0  0.18409771980E-01 -0.13854013652E-02  0.14449290274E-01  0.23443997755E-01  0.00000000000E+00 0. -1.
     999901    1    3    3    0    0  0.15069820972E-01 -0.74104347565E-01 -0.11282018438E+00  0.89041953473E+00  0.88000000000E+00 0.  1.
        -11    1    4    4    0    0 -0.21132309100E-01  0.39555793351E-01  0.67821510996E-01  0.81309616592E-01  0.51100000000E-03 0.  1.
         11    1    4    4    0    0 -0.12347283852E-01  0.35933955579E-01  0.30549383112E-01  0.48756850919E-01  0.51100000000E-03 0. -1.
</event>
<event>
 8    1  0.1111182E+005  0.1043930E+01  0.7957747E-01            NaN
         13   -1    0    0    0    0  0.00000000000E+00  0.00000000000E+00  0.74505805969E-08  0.10566000000E+00  0.10566000000E+00 0.  1.
     999900   -1    0    0    0    0 -0.00000000000E+00 -0.00000000000E+00 -0.74505805969E-08  0.93827000000E+00  0.93827000000E+00 0. -1.
     999902    2    1    2    0    0 -0.21646374829E-01 -0.74346617286E-02  0.34243345369E-02  0.10207877053E+01  0.10205253419E+01 0.  0.
     999903    2    3    3    0    0  0.73974522733E-01  0.84172091159E-01 -0.60058576468E-01  0.12861886855E+00  0.19457898054E-01 0.  0.
         14    1    1    2    0    0  0.21646374829E-01  0.74346617286E-02 -0.34243345369E-02  0.23142294728E-01  0.00000000000E+00 0.  1.
     999901    1    3    3    0    0 -0.95620897561E-01 -0.91606752888E-01  0.63482911005E-01  0.89216883672E+00  0.88000000000E+00 0.  1.
        -11    1    4    4    0    0  0.35322682500E-01  0.26625890377E-01 -0.26894072693E-01  0.51770476185E-01  0.51100000000E-03 0. -1.
         11    1    4    4    0    0  0.38651840232E-01  0.57546200782E-01 -0.33164503774E-01  0.76848392367E-01  0.51100000000E-03 0.  1.
</event>
<event>
 8    1  0.1226601E+005  0.1043930E+01  0.7957747E-01            NaN
         13   -1    0    0    0    0  0.00000000000E+00  0.00000000000E+00  0.74505805969E-08  0.10566000000E+00  0.10566000000E+00 0.  1.
     999900   -1    0    0    0    0 -0.00000000000E+00 -0.00000000000E+00 -0.74505805969E-08  0.93827000000E+00  0.93827000000E+00 0.  1.
     999902    2    1    2    0    0  0.99648467196E-02 -0.65176324209E-02  0.18499466967E-01  0.10219298186E+01  0.10216929804E+01 0.  0.
     999903    2    3    3    0    0 -0.15456107020E-01 -0.10520798493E-01 -0.12630929237E+00  0.12972366139E+00  0.22904421872E-01 0.  0.
         14    1    1    2    0    0 -0.99648467196E-02  0.65176324209E-02 -0.18499466967E-01  0.22000181376E-01  0.00000000000E+00 0. -1.
     999901    1    3    3    0    0  0.25420953739E-01  0.40031660718E-02  0.14480875933E+00  0.89220615723E+00  0.88000000000E+00 0. -1.
        -11    1    4    4    0    0 -0.23348126909E-02  0.34198795130E-02 -0.72284526305E-01  0.72404839551E-01  0.51100000000E-03 0. -1.
         11    1    4    4    0    0 -0.13121294329E-01 -0.13940678006E-01 -0.54024766060E-01  0.57318821839E-01  0.51100000000E-03 0.  1.
</event>
<event>
 8    1  0.1111182E+005  0.1043930E+01  0.7957747E-01            NaN
         13   -1    0    0    0    0  0.00000000000E+00  0.00000000000E+00  0.74505805969E-08  0.10566000000E+00  0.10566000000E+00 0.  1.
     999900   -1    0    0    0    0 -0.00000000000E+00 -0.00000000000E+00 -0.74505805969E-08  0.93827000000E+00  0.93827000000E+00 0. -1.
     999902    2    1    2    0    0  0.23617284647E-01  0.64559241415E-02  0.22495357484E-01  0.10106809970E+01  0.10101339424E+01 0.  0.
     999903    2    3    3    0    0  0.98930466465E-01 -0.26691119785E-01 -0.64547013257E-01  0.12256660339E+00  0.18883915790E-01 0.  0.
         14    1    1    2    0    0 -0.23617284647E-01 -0.64559241415E-02 -0.22495357484E-01  0.33249002976E-01  0.00000000000E+00 0. -1.
     999901    1    3    3    0    0 -0.75313181818E-01  0.33147043927E-01  0.87042370741E-01  0.88811439363E+00  0.88000000000E+00 0.  1.
        -11    1    4    4    0    0  0.56026776871E-01 -0.91713806415E-02 -0.44198189389E-01  0.71950364945E-01  0.51100000000E-03 0. -1.
         11    1    4    4    0    0  0.42903689594E-01 -0.17519739144E-01 -0.20348823868E-01  0.50616238444E-01  0.51100000000E-03 0.  1.
</event>
<event>
 8    1  0.1111182E+005  0.1043930E+01  0.7957747E-01            NaN
         13   -1    0    0    0    0  0.00000000000E+00  0.00000000000E+00  0.74505805969E-08  0.10566000000E+00  0.10566000000E+00 0. -1.
     999900   -1    0    0    0    0 -0.00000000000E+00 -0.00000000000E+00 -0.74505805969E-08  0.93827000000E+00  0.93827000000E+00 0.  1.
     999902    2    1    2    0    0  0.22361083258E-02 -0.23139817685E-01 -0.17343730083E-02  0.10206177845E+01  0.10203515093E+01 0.  0.
     999903    2    3    3    0    0 -0.72991382496E-01 -0.79458178358E-01  0.73922442148E-01  0.13238645942E+00  0.20501296514E-01 0.  0.
         14    1    1    2    0    0 -0.22361083258E-02  0.23139817685E-01  0.17343730083E-02  0.23312215525E-01  0.00000000000E+00 0.  1.
     999901    1    3    3    0    0  0.75227490822E-01  0.56318360672E-01 -0.75656815156E-01  0.88823132505E+00  0.88000000000E+00 0.  1.
        -11    1    4    4    0    0 -0.50599263765E-01 -0.53026269282E-01  0.61172235353E-01  0.95469231832E-01  0.51100000000E-03 0.  1.
         11    1    4    4    0    0 -0.22392118731E-01 -0.26431909076E-01  0.12750206795E-01  0.36917227591E-01  0.51100000000E-03 0. -1.
</event>
<event>
 8    1  0.1111182E+005  0.1043930E+01  0.7957747E-01            NaN
         13   -1    0    0    0    0  0.00000000000E+00  0.00000000000E+00  0.74505805969E-08  0.10566000000E+00  0.10566000000E+00 0.  1.
     999900   -1    0    0    0    0 -0.00000000000E+00 -0.00000000000E+00 -0.74505805969E-08  0.93827000000E+00  0.93827000000E+00 0.  1.
     999902    2    1    2    0    0 -0.21097106438E-02  0.23081897251E-01 -0.27851703695E-02  0.10205851497E+01  0.10203181199E+01 0.  0.
     999903    2    3    3    0    0  0.11726961198E+00  0.39955853186E-01 -0.39837345296E-01  0.13159188951E+00  0.19513564689E-01 0.  0.
         14    1    1    2    0    0  0.21097106438E-02 -0.23081897251E-01  0.27851703695E-02  0.23344850261E-01  0.00000000000E+00 0. -1.
     999901    1    3    3    0    0 -0.11937932263E+00 -0.16873955935E-01  0.37052174927E-01  0.88899326023E+00  0.88000000000E+00 0. -1.
        -11    1    4    4    0    0  0.70511157377E-01  0.21795191240E-01 -0.13837975002E-01  0.75090640888E-01  0.51100000000E-03 0. -1.
         11    1    4    4    0    0  0.46758454607E-01  0.18160661946E-01 -0.25999370295E-01  0.56501248625E-01  0.51100000000E-03 0.  1.
</event>
<event>
 8    1  0.1111182E+005  0.1043930E+01  0.7957747E-01            NaN
         13   -1    0    0    0    0  0.00000000000E+00  0.00000000000E+00  0.74505805969E-08  0.10566000000E+00  0.10566000000E+00 0. -1.
     999900   -1    0    0    0    0 -0.00000000000E+00 -0.00000000000E+00 -0.74505805969E-08  0.93827000000E+00  0.93827000000E+00 0.  1.
     999902    2    1    2    0    0 -0.46025923490E-02  0.15950290132E-01  0.17120457318E-01  0.10200824494E+01  0.10198036565E+01 0.  0.
     999903    2    3    3    0    0 -0.61133783726E-01 -0.59393884605E-01  0.97935205380E-01  0.13137352979E+00  0.20068055082E-01 0.  0.
         14    1    1    2    0    0  0.46025923490E-02 -0.15950290132E-01 -0.17120457318E-01  0.23847550617E-01  0.00000000000E+00 0. -1.
     999901    1    3    3    0    0  0.56531191377E-01  0.75344174738E-01 -0.80814748062E-01  0.88870891960E+00  0.88000000000E+00 0.  1.
        -11    1    4    4    0    0 -0.10849698947E-01 -0.23136810100E-01  0.29555779288E-01  0.39074712528E-01  0.51100000000E-03 0.  1.
         11    1    4    4    0    0 -0.50284084779E-01 -0.36257074505E-01  0.68379426092E-01  0.92298817259E-01  0.51100000000E-03 0. -1.
</event>
<event>
 8    1  0.1111182E+005  0.1043930E+01  0.7957747E-01            NaN
         13   -1    0    0    0    0  0.00000000000E+00  0.00000000000E+00  0.74505805969E-08  0.10566000000E+00  0.10566000000E+00 0. -1.
     999900   -1    0    0    0    0 -0.00000000000E+00 -0.00000000000E+00 -0.74505805969E-08  0.93827000000E+00  0.93827000000E+00 0.  1.
     999902    2    1    2    0    0  0.17658000093E-01  0.11766683981E-01  0.10604102838E-01  0.10202085579E+01  0.10199327403E+01 0.  0.
     999903    2    3    3    0    0  0.82868105359E-01 -0.57860774304E-01 -0.79964857345E-01  0.13043157609E+00  0.20075496069E-01 0.  0.
         14    1    1    2    0    0 -0.17658000093E-01 -0.11766683981E-01 -0.10604102838E-01  0.23721442119E-01  0.00000000000E+00 0.  1.
     999901    1    3    3    0    0 -0.65210105266E-01  0.69627458285E-01  0.90568960183E-01  0.88977698179E+00  0.88000000000E+00 0.  1.
        -11    1    4    4    0    0  0.33690131364E-01 -0.19230112741E-01 -0.19409772553E-01  0.43379979010E-01  0.51100000000E-03 0. -1.
         11    1    4    4    0    0  0.49177973994E-01 -0.38630661563E-01 -0.60555084793E-01  0.87051597080E-01  0.51100000000E-03 0.  1.
</event>
<event>
 8    1  0.1111182E+005  0.1043930E+01  0.7957747E-01            NaN
         13   -1    0    0    0    0  0.00000000000E+00  0.00000000000E+00  0.74505805969E-08  0.10566000000E+00  0.10566000000E+00 0. -1.
     999900   -1    0    0    0    0 -0.00000000000E+00 -0.00000000000E+00 -0.74505805969E-08  0.93827000000E+00  0.93827000000E+00 0.  1.
     999902    2    1    2    0    0 -0.20842923622E-01  0.46554616943E-02  0.76323150717E-02  0.10212506477E+01  0.10209987915E+01 0.  0.
     999903    2    3    3    0    0  0.41096832888E-01 -0.83328609308E-01 -0.88090411488E-01  0.12954409809E+00  0.19726782578E-01 0.  0.
         14    1    1    2    0    0  0.20842923622E-01 -0.46554616943E-02 -0.76323150717E-02  0.22679352329E-01  0.00000000000E+00 0.  1.
     999901    1    3    3    0    0 -0.61939756511E-01  0.87984071003E-01  0.95722726560E-01  0.89170654958E+00  0.88000000000E+00 0. -1.
        -11    1    4    4    0    0  0.20084934008E-01 -0.25309429084E-01 -0.39284511513E-01  0.50867531299E-01  0.51100000000E-03 0.  1.
         11    1    4    4    0    0  0.21011898881E-01 -0.58019180225E-01 -0.48805899976E-01  0.78676566791E-01  0.51100000000E-03 0. -1.
</event>
<event>
 8    1  0.1111182E+005  0.1043930E+01  0.7957747E-01            NaN
         13   -1    0    0    0    0  0.00000000000E+00  0.00000000000E+00  0.74505805969E-08  0.10566000000E+00  0.10566000000E+00 0.  1.
     999900   -1    0    0    0    0 -0.00000000000E+00 -0.00000000000E+00 -0.74505805969E-08  0.93827000000E+00  0.93827000000E+00 0.  1.
     999902    2    1    2    0    0  0.27703224461E-02  0.22480744612E-01 -0.72388095838E-02  0.10201506197E+01  0.10198734372E+01 0.  0.
     999903    2    3    3    0    0 -0.10781581025E+00  0.81782947294E-02  0.69065021906E-01  0.12983824330E+00  0.19921313370E-01 0.  0.
         14    1    1    2    0    0 -0.27703224461E-02 -0.22480744612E-01  0.72388095838E-02  0.23779380332E-01  0.00000000000E+00 0.  1.
     999901    1    3    3    0    0  0.11058613270E+00  0.14302449883E-01 -0.76303831490E-01  0.89031237637E+00  0.88000000000E+00 0.  1.
        -11    1    4    4    0    0 -0.89081953933E-01  0.44999637158E-02  0.64851292098E-01  0.11028053046E+00  0.51100000000E-03 0. -1.
         11    1    4    4    0    0 -0.18733856321E-01  0.36783310136E-02  0.42137298084E-02  0.19557712842E-01  0.51100000000E-03 0.  1.
</event>
<event>
 8    1  0.1111182E+005  0.1043930E+01  0.7957747E-01            NaN
         13   -1    0    0    0    0  0.00000000000E+00  0.00000000000E+00  0.74505805969E-08  0.10566000000E+00  0.10566000000E+00 0. -1.
     999900   -1    0    0    0    0 -0.00000000000E+00 -0.00000000000E+00 -0.74505805969E-08  0.93827000000E+00  0.93827000000E+00 0. -1.
     999902    2    1    2    0    0  0.17976928543E-01  0.17024910263E-02  0.15677293833E-01  0.10200166987E+01  0.10197363481E+01 0.  0.
     999903    2    3    3    0    0  0.12785108902E-01 -0.71620266640E-01  0.10838341710E+00  0.13209913101E+00  0.20255708054E-01 0.  0.
         14    1    1    2    0    0 -0.17976928543E-01 -0.17024910263E-02 -0.15677293833E-01  0.23913301266E-01  0.00000000000E+00 0.  1.
     999901    1    3    3    0    0  0.51918196412E-02  0.73322757666E-01 -0.92706123263E-01  0.88791756772E+00  0.88000000000E+00 0. -1.
        -11    1    4    4    0    0 -0.29464145781E-02 -0.24221278157E-01  0.47050443518E-01  0.53003368106E-01  0.51100000000E-03 0. -1.
         11    1    4    4    0    0  0.15731523480E-01 -0.47398988483E-01  0.61332973579E-01  0.79095762903E-01  0.51100000000E-03 0.  1.
</event>
<event>
 8    1  0.1111182E+005  0.1043930E+01  0.7957747E-01            NaN
         13   -1    0    0    0    0  0.00000000000E+00  0.00000000000E+00  0.74505805969E-08  0.10566000000E+00  0.10566000000E+00 0.  1.
     999900   -1    0    0    0    0 -0.00000000000E+00 -0.00000000000E+00 -0.74505805969E-08  0.93827000000E+00  0.93827000000E+00 0. -1.
     999902    2    1    2    0    0 -0.38990813153E-02  0.18771722689E-01 -0.67022684776E-02  0.10236198840E+01  0.10234183730E+01 0.  0.
     999903    2    3    3    0    0 -0.65622806239E-01  0.10464886051E+00 -0.52871757574E-01  0.13608604088E+00  0.21592847623E-01 0.  0.
         14    1    1    2    0    0  0.38990813153E-02 -0.18771722689E-01  0.67022684776E-02  0.20310115966E-01  0.00000000000E+00 0.  1.
     999901    1    3    3    0    0  0.61723724924E-01 -0.85877137822E-01  0.46169489096E-01  0.88753384315E+00  0.88000000000E+00 0.  1.
        -11    1    4    4    0    0 -0.17564211850E-01  0.41942836242E-01 -0.27322547378E-01  0.53051727268E-01  0.51100000000E-03 0.  1.
         11    1    4    4    0    0 -0.48058594390E-01  0.62706024269E-01 -0.25549210196E-01  0.83034313612E-01  0.51100000000E-03 0. -1.
</event>
<event>
 8    1  0.1111182E+005  0.1043930E+01  0.7957747E-01            NaN
         13   -1    0    0    0    0  0.00000000000E+00  0.00000000000E+00  0.74505805969E-08  0.10566000000E+00  0.10566000000E+00 0.  1.
     999900   -1    0    0    0    0 -0.00000000000E+00 -0.00000000000E+00 -0.74505805969E-08  0.93827000000E+00  0.93827000000E+00 0. -1.
     999902    2    1    2    0    0  0.12194074984E-01  0.18977094904E-01  0.41598887186E-02  0.10209924703E+01  0.10207347815E+01 0.  0.
     999903    2    3    3    0    0 -0.88122469308E-01 -0.73612281681E-01 -0.56096791754E-01  0.12843038882E+00  0.12774079833E-01 0.  0.
         14    1    1    2    0    0 -0.12194074984E-01 -0.18977094904E-01 -0.41598887186E-02  0.22937529724E-01  0.00000000000E+00 0. -1.
     999901    1    3    3    0    0  0.10031654429E+00  0.92589376585E-01  0.60256680473E-01  0.89256208146E+00  0.88000000000E+00 0.  1.
        -11    1    4    4    0    0 -0.52265001907E-01 -0.51510661913E-01 -0.36854060979E-01  0.82118582834E-01  0.51100000000E-03 0.  1.
         11    1    4    4    0    0 -0.35857467401E-01 -0.22101619768E-01 -0.19242730775E-01  0.46311805984E-01  0.51100000000E-03 0. -1.
</event>
<event>
 8    1  0.1111182E+005  0.1043930E+01  0.7957747E-01            NaN
         13   -1    0    0    0    0  0.00000000000E+00  0.00000000000E+00  0.74505805969E-08  0.10566000000E+00  0.10566000000E+00 0. -1.
     999900   -1    0    0    0    0 -0.00000000000E+00 -0.00000000000E+00 -0.74505805969E-08  0.93827000000E+00  0.93827000000E+00 0.  1.
     999902    2    1    2    0    0 -0.12305948495E-01 -0.44167480958E-02 -0.18186239840E-01  0.10215317110E+01  0.10212861270E+01 0.  0.
     999903    2    3    3    0    0  0.77955396930E-01 -0.10365025491E+00  0.64925133160E-03  0.13116708056E+00  0.19594954491E-01 0.  0.
         14    1    1    2    0    0  0.12305948495E-01  0.44167480958E-02  0.18186239840E-01  0.22398289033E-01  0.00000000000E+00 0. -1.
     999901    1    3    3    0    0 -0.90261345425E-01  0.99233506815E-01 -0.18835491172E-01  0.89036463041E+00  0.88000000000E+00 0. -1.
        -11    1    4    4    0    0  0.46594327485E-01 -0.74161537238E-01 -0.51015452067E-02  0.87733983403E-01  0.51100000000E-03 0. -1.
         11    1    4    4    0    0  0.31361069445E-01 -0.29488717673E-01  0.57507965383E-02  0.43433097156E-01  0.51100000000E-03 0.  1.
</event>
<event>
 8    1  0.1111182E+005  0.1043930E+01  0.7957747E-01            NaN
         13   -1    0    0    0    0  0.00000000000E+00  0.00000000000E+00  0.74505805969E-08  0.10566000000E+00  0.10566000000E+00 0. -1.
     999900   -1    0    0    0    0 -0.00000000000E+00 -0.00000000000E+00 -0.74505805969E-08  0.93827000000E+00  0.93827000000E+00 0. -1.
     999902    2    1    2    0    0  0.13021841914E-01 -0.15920607609E-01  0.22586530964E-01  0.10133819150E+01  0.10129213791E+01 0.  0.
     999903    2    3    3    0    0 -0.42231712247E-01 -0.55359595828E-01 -0.98874787572E-01  0.12244912244E+00  0.19218782456E-01 0.  0.
         14    1    1    2    0    0 -0.13021841914E-01  0.15920607609E-01 -0.22586530964E-01  0.30548084956E-01  0.00000000000E+00 0.  1.
     999901    1    3    3    0    0  0.55253554161E-01  0.39438988219E-01  0.12146131854E+00  0.89093279261E+00  0.88000000000E+00 0.  1.
        -11    1    4    4    0    0 -0.24569409280E-01 -0.29241511825E-01 -0.69747177384E-01  0.79521391841E-01  0.51100000000E-03 0.  1.
         11    1    4    4    0    0 -0.17662302967E-01 -0.26118084003E-01 -0.29127610188E-01  0.42927730598E-01  0.51100000000E-03 0. -1.
</event>
<event>
 8    1  0.1111182E+005  0.1043930E+01  0.7957747E-01            NaN
         13   -1    0    0    0    0  0.00000000000E+00  0.00000000000E+00  0.74505805969E-08  0.10566000000E+00  0.10566000000E+00 0.  1.
     999900   -1    0    0    0    0 -0.00000000000E+00 -0.00000000000E+00 -0.74505805969E-08  0.93827000000E+00  0.93827000000E+00 0. -1.
     999902    2    1    2    0    0  0.11823165901E-01 -0.45806862141E-02 -0.20076112221E-01  0.10201851012E+01  0.10199087314E+01 0.  0.
     999903    2    3    3    0    0 -0.61702045103E-01  0.10899601096E+00  0.21920748392E-01  0.12885499449E+00  0.20876245345E-01 0.  0.
         14    1    1    2    0    0 -0.11823165901E-01  0.45806862141E-02  0.20076112221E-01  0.23744898821E-01  0.00000000000E+00 0.  1.
     999901    1    3    3    0    0  0.73525211004E-01 -0.11357669717E+00 -0.41996860612E-01  0.89133010669E+00  0.88000000000E+00 0. -1.
        -11    1    4    4    0    0 -0.29170961753E-01  0.48079049796E-01 -0.51499301268E-03  0.56241144882E-01  0.51100000000E-03 0. -1.
         11    1    4    4    0    0 -0.32531083350E-01  0.60916961162E-01  0.22435741404E-01  0.72613849605E-01  0.51100000000E-03 0.  1.
</event>
<event>
 8    1  0.1111182E+005  0.1043930E+01  0.7957747E-01            NaN
         13   -1    0    0    0    0  0.00000000000E+00  0.00000000000E+00  0.74505805969E-08  0.10566000000E+00  0.10566000000E+00 0. -1.
     999900   -1    0    0    0    0 -0.00000000000E+00 -0.00000000000E+00 -0.74505805969E-08  0.93827000000E+00  0.93827000000E+00 0.  1.
     999902    2    1    2    0    0 -0.18365410203E-01  0.12572774364E-01  0.84339996547E-02  0.10201288383E+01  0.10198511418E+01 0.  0.
     999903    2    3    3    0    0  0.97295380655E-02  0.11155448461E+00  0.66992597454E-01  0.13220101780E+00  0.21214005883E-01 0.  0.
         14    1    1    2    0    0  0.18365410203E-01 -0.12572774364E-01 -0.84339996547E-02  0.23801161680E-01  0.00000000000E+00 0.  1.
     999901    1    3    3    0    0 -0.28094948269E-01 -0.98981710245E-01 -0.58558597799E-01  0.88792782052E+00  0.88000000000E+00 0.  1.
        -11    1    4    4    0    0  0.72825246600E-02  0.17720284804E-01  0.53330225777E-02  0.19893363461E-01  0.51100000000E-03 0.  1.
         11    1    4    4    0    0  0.24470134055E-02  0.93834199805E-01  0.61659574876E-01  0.11230765434E+00  0.51100000000E-03 0. -1.
</event>
<event>
 8    1  0.1111182E+005  0.1043930E+01  0.7957747E-01            NaN
         13   -1    0    0    0    0  0.00000000000E+00  0.00000000000E+00  0.74505805969E-08  0.10566000000E+00  0.10566000000E+00 0. -1.
     999900   -1    0    0    0    0 -0.00000000000E+00 -0.00000000000E+00 -0.74505805969E-08  0.93827000000E+00  0.93827000000E+00 0. -1.
     999902    2    1    2    0    0 -0.19145314872E-01  0.33909263843E-02  0.14767309451E-01  0.10195145358E+01  0.10192221416E+01 0.  0.
     999903    2    3    3    0    0 -0.11895160343E+00  0.28501074033E-01  0.47742140498E-01  0.13290348567E+00  0.20548219951E-01 0.  0.
         14    1    1    2    0    0  0.19145314872E-01 -0.33909263843E-02 -0.14767309451E-01  0.24415464192E-01  0.00000000000E+00 0.  1.
     999901    1    3    3    0    0  0.99806288558E-01 -0.25110147649E-01 -0.32974831047E-01  0.88661105014E+00  0.88000000000E+00 0. -1.
        -11    1    4    4    0    0 -0.36795365522E-01  0.54721486705E-03  0.91327345335E-02  0.37919207918E-01  0.51100000000E-03 0. -1.
         11    1    4    4    0    0 -0.82156237908E-01  0.27953859166E-01  0.38609405964E-01  0.94984277749E-01  0.51100000000E-03 0.  1.
</event>
<event>
 8    1  0.1111182E+005  0.1043930E+01  0.7957747E-01            NaN
         13   -1    0    0    0    0  0.00000000000E+00  0.00000000000E+00  0.74505805969E-08  0.10566000000E+00  0.10566000000E+00 0.  1.
     999900   -1    0    0    0    0 -0.00000000000E+00 -0.00000000000E+00 -0.74505805969E-08  0.93827000000E+00  0.93827000000E+00 0. -1.
     999902    2    1    2    0    0  0.18363932824E-01 -0.90806367503E-02 -0.17649076742E-01  0.10168896246E+01  0.10165300422E+01 0.  0.
     999903    2    3    3    0    0 -0.20745934483E-01 -0.10069869681E+00  0.70713698975E-01  0.12687196702E+00  0.22922640707E-01 0.  0.
         14    1    1    2    0    0 -0.18363932824E-01  0.90806367503E-02  0.17649076742E-01  0.27040375412E-01  0.00000000000E+00 0.  1.
     999901    1    3    3    0    0  0.39109867306E-01  0.91618060056E-01 -0.88362775717E-01  0.89001765757E+00  0.88000000000E+00 0. -1.
        -11    1    4    4    0    0 -0.15270820681E-01 -0.78716341766E-01  0.42716494102E-01  0.90853840946E-01  0.51100000000E-03 0. -1.
         11    1    4    4    0    0 -0.54751138017E-02 -0.21982355041E-01  0.27997204872E-01  0.36018126075E-01  0.51100000000E-03 0.  1.
</event>
<event>
 8    1  0.1111182E+005  0.1043930E+01  0.7957747E-01            NaN
         13   -1    0    0    0    0  0.00000000000E+00  0.00000000000E+00  0.74505805969E-08  0.10566000000E+00  0.10566000000E+00 0. -1.
     999900   -1    0    0    0    0 -0.00000000000E+00 -0.00000000000E+00 -0.74505805969E-08  0.93827000000E+00  0.93827000000E+00 0. -1.
     999902    2    1    2    0    0  0.12440075722E-01 -0.19895395582E-01  0.13183109111E-01  0.10170157544E+01  0.10166595635E+01 0.  0.
     999903    2    3    3    0    0 -0.12290400127E+00 -0.12680582939E-01  0.20555532463E-01  0.12660886691E+00  0.18468474618E-01 0.  0.
         14    1    1    2    0    0 -0.12440075722E-01  0.19895395582E-01 -0.13183109111E-01  0.26914245581E-01  0.00000000000E+00 0.  1.
     999901    1    3    3    0    0  0.13534407699E+00 -0.72148126431E-02 -0.73724233521E-02  0.89040688751E+00  0.88000000000E+00 0.  1.
        -11    1    4    4    0    0 -0.27945032132E-01  0.42722769682E-02  0.76240882239E-02  0.29284210995E-01  0.51100000000E-03 0.  1.
         11    1    4    4    0    0 -0.94958969134E-01 -0.16952859907E-01  0.12931444239E-01  0.97324655916E-01  0.51100000000E-03 0. -1.
</event>
<event>
 8    1  0.1111182E+005  0.1043930E+01  0.7957747E-01            NaN
         13   -1    0    0    0    0  0.00000000000E+00  0.00000000000E+00  0.74505805969E-08  0.10566000000E+00  0.10566000000E+00 0. -1.
     999900   -1    0    0    0    0 -0.00000000000E+00 -0.00000000000E+00 -0.74505805969E-08  0.93827000000E+00  0.93827000000E+00 0. -1.
     999902    2    1    2    0    0 -0.12817299943E-01 -0.13565932128E-01  0.14290752554E-01  0.10204237604E+01  0.10201529824E+01 0.  0.
     999903    2    3    3    0    0 -0.34719409517E-01 -0.54138272658E-01 -0.11164098226E+00  0.13026387640E+00  0.19198401294E-01 0.  0.
         14    1    1    2    0    0  0.12817299943E-01  0.13565932128E-01 -0.14290752554E-01  0.23506239616E-01  0.00000000000E+00 0.  1.
     999901    1    3    3    0    0  0.21902109574E-01  0.40572340529E-01  0.12593173481E+00  0.89015988398E+00  0.88000000000E+00 0.  1.
        -11    1    4    4    0    0 -0.96527421139E-02 -0.19277223934E-01 -0.55796547419E-01  0.59818915217E-01  0.51100000000E-03 0. -1.
         11    1    4    4    0    0 -0.25066667403E-01 -0.34861048724E-01 -0.55844434838E-01  0.70444961184E-01  0.51100000000E-03 0.  1.
</event>
<event>
 8    1  0.1111182E+005  0.1043930E+01  0.7957747E-01            NaN
         13   -1    0    0    0    0  0.00000000000E+00  0.00000000000E+00  0.74505805969E-08  0.10566000000E+00  0.10566000000E+00 0.  1.
     999900   -1    0    0    0    0 -0.00000000000E+00 -0.00000000000E+00 -0.74505805969E-08  0.93827000000E+00  0.93827000000E+00 0.  1.
     999902    2    1    2    0    0 -0.81987461917E-02  0.21499154814E-01 -0.10693524416E-01  0.10185570900E+01  0.10182410132E+01 0.  0.
     999903    2    3    3    0    0  0.12631324117E+00  0.85741950305E-02 -0.61975671691E-02  0.12823088970E+00  0.19395863463E-01 0.  0.
         14    1    1    2    0    0  0.81987461917E-02 -0.21499154814E-01  0.10693524416E-01  0.25372909988E-01  0.00000000000E+00 0.  1.
     999901    1    3    3    0    0 -0.13451198736E+00  0.12924959783E-01 -0.44959572465E-02  0.89032620031E+00  0.88000000000E+00 0. -1.
        -11    1    4    4    0    0  0.11166568285E-01 -0.37823425022E-02 -0.37986499528E-02  0.12397145822E-01  0.51100000000E-03 0. -1.
         11    1    4    4    0    0  0.11514667288E+00  0.12356537533E-01 -0.23989172162E-02  0.11583374388E+00  0.51100000000E-03 0.  1.
</event>
<event>
 8    1  0.1111182E+005  0.1043930E+01  0.7957747E-01            NaN
         13   -1    0    0    0    0  0.00000000000E+00  0.00000000000E+00  0.74505805969E-08  0.10566000000E+00  0.10566000000E+00 0.  1.
     999900   -1    0    0    0    0 -0.00000000000E+00 -0.00000000000E+00 -0.74505805969E-08  0.93827000000E+00  0.93827000000E+00 0. -1.
     999902    2    1    2    0    0  0.11968465229E-01 -0.18360421105E-01 -0.19844214666E-01  0.10143641062E+01  0.10139331328E+01 0.  0.
     999903    2    3    3    0    0  0.30355356701E-01  0.10487958377E+00 -0.56912817416E-01  0.12481351294E+00  0.20449192028E-01 0.  0.
         14    1    1    2    0    0 -0.11968465229E-01  0.18360421105E-01  0.19844214666E-01  0.29565893844E-01  0.00000000000E+00 0.  1.
     999901    1    3    3    0    0 -0.18386891472E-01 -0.12324000487E+00  0.37068602751E-01  0.88955059321E+00  0.88000000000E+00 0.  1.
        -11    1    4    4    0    0  0.32492739187E-01  0.83757588967E-01 -0.45529987556E-01  0.10071917741E+00  0.51100000000E-03 0.  1.
         11    1    4    4    0    0 -0.21373824856E-02  0.21121994801E-01 -0.11382829860E-01  0.24094335536E-01  0.51100000000E-03 0. -1.
</event>
<event>
 8    1  0.1111182E+005  0.1043930E+01  0.7957747E-01            NaN
         13   -1    0    0    0    0  0.00000000000E+00  0.00000000000E+00  0.74505805969E-08  0.10566000000E+00  0.10566000000E+00 0. -1.
     999900   -1    0    0    0    0 -0.00000000000E+00 -0.00000000000E+00 -0.74505805969E-08  0.93827000000E+00  0.93827000000E+00 0.  1.
     999902    2    1    2    0    0  0.74130293963E-02  0.13227416380E-02  0.18203209254E-01  0.10242307747E+01  0.10240413177E+01 0.  0.
     999903    2    3    3    0    0  0.67870665001E-01 -0.65308751306E-02  0.11670049648E+00  0.13663935936E+00  0.20055651277E-01 0.  0.
         14    1    1    2    0    0 -0.74130293963E-02 -0.13227416380E-02 -0.18203209254E-01  0.19699225300E-01  0.00000000000E+00 0.  1.
     999901    1    3    3    0    0 -0.60457635605E-01  0.78536167686E-02 -0.98497287230E-01  0.88759141534E+00  0.88000000000E+00 0.  1.
        -11    1    4    4    0    0  0.19995985965E-01 -0.99766112415E-02  0.28466604258E-01  0.36193658361E-01  0.51100000000E-03 0.  1.
         11    1    4    4    0    0  0.47874679036E-01  0.34457361109E-02  0.88233892226E-01  0.10044570100E+00  0.51100000000E-03 0. -1.
</event>
<event>
 8    1  0.1111182E+005  0.1043930E+01  0.7957747E-01            NaN
         13   -1    0    0    0    0  0.00000000000E+00  0.00000000000E+00  0.74505805969E-08  0.10566000000E+00  0.10566000000E+00 0. -1.
     999900   -1    0    0    0    0 -0.00000000000E+00 -0.00000000000E+00 -0.74505805969E-08  0.93827000000E+00  0.93827000000E+00 0. -1.
     999902    2    1    2    0    0 -0.12354767055E-02  0.19550852014E-01 -0.13994683304E-01  0.10198548390E+01  0.10195706347E+01 0.  0.
     999903    2    3    3    0    0  0.84613820106E-01  0.85041189404E-01 -0.52448601543E-01  0.13242157959E+00  0.19827165419E-01 0.  0.
         14    1    1    2    0    0  0.12354767055E-02 -0.19550852014E-01  0.13994683304E-01  0.24075161016E-01  0.00000000000E+00 0. -1.
     999901    1    3    3    0    0 -0.85849296811E-01 -0.65490337390E-01  0.38453918239E-01  0.88743325940E+00  0.88000000000E+00 0.  1.
        -11    1    4    4    0    0  0.86406840266E-02  0.17280056102E-02 -0.43015377433E-02  0.98189496278E-02  0.51100000000E-03 0. -1.
         11    1    4    4    0    0  0.75973136079E-01  0.83313183794E-01 -0.48147063800E-01  0.12260262996E+00  0.51100000000E-03 0.  1.
</event>
<event>
 8    1  0.1111182E+005  0.1043930E+01  0.7957747E-01            NaN
         13   -1    0    0    0    0  0.00000000000E+00  0.00000000000E+00  0.74505805969E-08  0.10566000000E+00  0.10566000000E+00 0.  1.
     999900   -1    0    0    0    0 -0.00000000000E+00 -0.00000000000E+00 -0.74505805969E-08  0.93827000000E+00  0.93827000000E+00 0.  1.
     999902    2    1    2    0    0  0.22792721730E-01 -0.50730815340E-02  0.34716818708E-02  0.10203228635E+01  0.10200497286E+01 0.  0.
     999903    2    3    3    0    0 -0.23554912643E-01 -0.10236646057E+00 -0.73957297907E-01  0.13037379093E+00  0.22224249997E-01 0.  0.
         14    1    1    2    0    0 -0.22792721730E-01  0.50730815340E-02 -0.34716818708E-02  0.23607136529E-01  0.00000000000E+00 0. -1.
     999901    1    3    3    0    0  0.46347634373E-01  0.97293379033E-01  0.77428979777E-01  0.88994907255E+00  0.88000000000E+00 0. -1.
        -11    1    4    4    0    0 -0.36454209213E-02 -0.64276547131E-01 -0.43908180665E-01  0.77929154077E-01  0.51100000000E-03 0.  1.
         11    1    4    4    0    0 -0.19909491722E-01 -0.38089913436E-01 -0.30049117242E-01  0.52444636848E-01  0.51100000000E-03 0. -1.
</event>
<event>
 8    1  0.1111182E+005  0.1043930E+01  0.7957747E-01            NaN
         13   -1    0    0    0    0  0.00000000000E+00  0.00000000000E+00  0.74505805969E-08  0.10566000000E+00  0.10566000000E+00 0. -1.
     999900   -1    0    0    0    0 -0.00000000000E+00 -0.00000000000E+00 -0.74505805969E-08  0.93827000000E+00  0.93827000000E+00 0. -1.
     999902    2    1    2    0    0 -0.15288968315E-01  0.56037061096E-02 -0.18043495897E-01  0.10196252305E+01  0.10193355134E+01 0.  0.
     999903    2    3    3    0    0  0.56154064097E-01 -0.66364857556E-01  0.89520744738E-01  0.12729477219E+00  0.25148003010E-01 0.  0.
         14    1    1    2    0    0  0.15288968315E-01 -0.56037061096E-02  0.18043495897E-01  0.24304769459E-01  0.00000000000E+00 0. -1.
     999901    1    3    3    0    0 -0.71443032412E-01  0.71968563665E-01 -0.10756424064E+00  0.89233045835E+00  0.88000000000E+00 0. -1.
        -11    1    4    4    0    0  0.53262559154E-01 -0.48390625197E-01  0.75567529322E-01  0.10435164313E+00  0.51100000000E-03 0. -1.
         11    1    4    4    0    0  0.28915049429E-02 -0.17974232359E-01  0.13953215416E-01  0.22943129062E-01  0.51100000000E-03 0.  1.
</event>
<event>
 8    1  0.1111182E+005  0.1043930E+01  0.7957747E-01            NaN
         13   -1    0    0    0    0  0.00000000000E+00  0.00000000000E+00  0.74505805969E-08  0.10566000000E+00  0.10566000000E+00 0.  1.
     999900   -1    0    0    0    0 -0.00000000000E+00 -0.00000000000E+00 -0.74505805969E-08  0.93827000000E+00  0.93827000000E+00 0. -1.
     999902    2    1    2    0    0  0.26058887546E-02 -0.20477249576E-01  0.12166652644E-01  0.10199688681E+01  0.10196873815E+01 0.  0.
     999903    2    3    3    0    0 -0.10265716103E+00 -0.53191065983E-01  0.59747170634E-01  0.13181662374E+00  0.20931213137E-01 0.  0.
         14    1    1    2    0    0 -0.26058887546E-02  0.20477249576E-01 -0.12166652644E-01  0.23961131921E-01  0.00000000000E+00 0. -1.
     999901    1    3    3    0    0  0.10526304979E+00  0.32713816408E-01 -0.47580517991E-01  0.88815224434E+00  0.88000000000E+00 0. -1.
        -11    1    4    4    0    0 -0.16914088358E-01 -0.10007940786E-01  0.19489356331E-02  0.19756131576E-01  0.51100000000E-03 0. -1.
         11    1    4    4    0    0 -0.85743072675E-01 -0.43183125197E-01  0.57798235001E-01  0.11206049216E+00  0.51100000000E-03 0.  1.
</event>
<event>
 8    1  0.1111182E+005  0.1043930E+01  0.7957747E-01            NaN
         13   -1    0    0    0    0  0.00000000000E+00  0.00000000000E+00  0.74505805969E-08  0.10566000000E+00  0.10566000000E+00 0.  1.
     999900   -1    0    0    0    0 -0.00000000000E+00 -0.00000000000E+00 -0.74505805969E-08  0.93827000000E+00  0.93827000000E+00 0.  1.
     999902    2    1    2    0    0 -0.15021753971E-01 -0.11844642270E-01 -0.13290549925E-01  0.10206364953E+01  0.10203706524E+01 0.  0.
     999903    2    3    3    0    0 -0.19419035502E-01 -0.11760272739E+00 -0.57910426670E-01  0.13317097934E+00  0.13167831749E-01 0.  0.
         14    1    1    2    0    0  0.15021753971E-01  0.11844642270E-01  0.13290549925E-01  0.23293504678E-01  0.00000000000E+00 0.  1.
     999901    1    3    3    0    0  0.43972815305E-02  0.10575808512E+00  0.44619876745E-01  0.88746551598E+00  0.88000000000E+00 0. -1.
        -11    1    4    4    0    0 -0.58261927296E-02 -0.70661217405E-01 -0.37484721200E-01  0.80201730725E-01  0.51100000000E-03 0. -1.
         11    1    4    4    0    0 -0.13592842772E-01 -0.46941509983E-01 -0.20425705470E-01  0.52969248617E-01  0.51100000000E-03 0.  1.
</event>
<event>
 8    1  0.1111182E+005  0.1043930E+01  0.7957747E-01            NaN
         13   -1    0    0    0    0  0.00000000000E+00  0.00000000000E+00  0.74505805969E-08  0.10566000000E+00  0.10566000000E+00 0. -1.
     999900   -1    0    0    0    0 -0.00000000000E+00 -0.00000000000E+00 -0.74505805969E-08  0.93827000000E+00  0.93827000000E+00 0.  1.
     999902    2    1    2    0    0  0.47825885409E-02  0.12355865730E-01 -0.20600082024E-01  0.10194370633E+01  0.10191427878E+01 0.  0.
     999903    2    3    3    0    0 -0.10902851201E+00 -0.65108779349E-01 -0.65344850961E-02  0.12862194278E+00  0.19352909048E-01 0.  0.
         14    1    1    2    0    0 -0.47825885409E-02 -0.12355865730E-01  0.20600082024E-01  0.24492936747E-01  0.00000000000E+00 0. -1.
     999901    1    3    3    0    0  0.11381110055E+00  0.77464645080E-01 -0.14065596928E-01  0.89081512047E+00  0.88000000000E+00 0. -1.
        -11    1    4    4    0    0 -0.74421404531E-01 -0.54359008673E-01 -0.63471681259E-02  0.92379624055E-01  0.51100000000E-03 0.  1.
         11    1    4    4    0    0 -0.34607107483E-01 -0.10749770677E-01 -0.18731697026E-03  0.36242318725E-01  0.51100000000E-03 0. -1.
</event>
<event>
 8    1  0.1111182E+005  0.1043930E+01  0.7957747E-01            NaN
         13   -1    0    0    0    0  0.00000000000E+00  0.00000000000E+00  0.74505805969E-08  0.10566000000E+00  0.10566000000E+00 0.  1.
     999900   -1    0    0    0    0 -0.00000000000E+00 -0.00000000000E+00 -0.74505805969E-08  0.93827000000E+00  0.93827000000E+00 0.  1.
     999902    2    1    2    0    0  0.50550678866E-02  0.20822644468E-01  0.43855773328E-02  0.10220583397E+01  0.10218242903E+01 0.  0.
     999903    2    3    3    0    0  0.11887942686E+00  0.19309753846E-01 -0.52423868460E-01  0.13290954080E+00  0.20285446164E-01 0.  0.
         14    1    1    2    0    0 -0.50550678866E-02 -0.20822644468E-01 -0.43855773328E-02  0.21871660260E-01  0.00000000000E+00 0. -1.
     999901    1    3    3    0    0 -0.11382435897E+00  0.15128906223E-02  0.56809445793E-01  0.88914879894E+00  0.88000000000E+00 0. -1.
        -11    1    4    4    0    0  0.98099437387E-01  0.79343810451E-02 -0.43135464076E-01  0.10745875209E+00  0.51100000000E-03 0.  1.
         11    1    4    4    0    0  0.20779989473E-01  0.11375372801E-01 -0.92884043836E-02  0.25450788708E-01  0.51100000000E-03 0. -1.
</event>
<event>
 8    1  0.1111182E+005  0.1043930E+01  0.7957747E-01            NaN
         13   -1    0    0    0    0  0.00000000000E+00  0.00000000000E+00  0.74505805969E-08  0.10566000000E+00  0.10566000000E+00 0. -1.
     999900   -1    0    0    0    0 -0.00000000000E+00 -0.00000000000E+00 -0.74505805969E-08  0.93827000000E+00  0.93827000000E+00 0. -1.
     999902    2    1    2    0    0  0.75580470315E-02  0.19910894861E-01 -0.10314995418E-01  0.10202663794E+01  0.10199919206E+01 0.  0.
     999903    2    3    3    0    0 -0.26633973937E-02 -0.21980290581E-01 -0.12782396683E+00  0.13140884993E+00  0.20954533753E-01 0.  0.
         14    1    1    2    0    0 -0.75580470315E-02 -0.19910894861E-01  0.10314995418E-01  0.23663620593E-01  0.00000000000E+00 0. -1.
     999901    1    3    3    0    0  0.10221444425E-01  0.41891185442E-01  0.11750897141E+00  0.88885752948E+00  0.88000000000E+00 0.  1.
        -11    1    4    4    0    0 -0.10127059331E-01 -0.12844159359E-01 -0.47920981088E-01  0.50638042121E-01  0.51100000000E-03 0.  1.
         11    1    4    4    0    0  0.74636619371E-02 -0.91361312214E-02 -0.79902985740E-01  0.80770807811E-01  0.51100000000E-03 0. -1.
</event>
<event>
 8    1  0.1111182E+005  0.1043930E+01  0.7957747E-01            NaN
         13   -1    0    0    0    0  0.00000000000E+00  0.00000000000E+00  0.74505805969E-08  0.10566000000E+00  0.10566000000E+00 0. -1.
     999900   -1    0    0    0    0 -0.00000000000E+00 -0.00000000000E+00 -0.74505805969E-08  0.93827000000E+00  0.93827000000E+00 0. -1.
     999902    2    1    2    0    0  0.20431102717E-02 -0.19561145753E-01 -0.14356104868E-01  0.10195802470E+01  0.10192894435E+01 0.  0.
     999903    2    3    3    0    0 -0.12724779895E+00 -0.63648383826E-02 -0.16954967239E-01  0.13003146488E+00  0.19702726675E-01 0.  0.
         14    1    1    2    0    0 -0.20431102717E-02  0.19561145753E-01  0.14356104868E-01  0.24349752970E-01  0.00000000000E+00 0. -1.
     999901    1    3    3    0    0  0.12929090923E+00 -0.13196307370E-01  0.25988623719E-02  0.88954878215E+00  0.88000000000E+00 0. -1.
        -11    1    4    4    0    0 -0.44281216202E-01  0.62935783514E-02 -0.19438098443E-02  0.44771360874E-01  0.51100000000E-03 0. -1.
         11    1    4    4    0    0 -0.82966582753E-01 -0.12658416734E-01 -0.15011157395E-01  0.85260104007E-01  0.51100000000E-03 0.  1.
</event>
<event>
 8    1  0.1121236E+005  0.1043930E+01  0.7957747E-01            NaN
         13   -1    0    0    0    0  0.00000000000E+00  0.00000000000E+00  0.74505805969E-08  0.10566000000E+00  0.10566000000E+00 0. -1.
     999900   -1    0    0    0    0 -0.00000000000E+00 -0.00000000000E+00 -0.74505805969E-08  0.93827000000E+00  0.93827000000E+00 0.  1.
     999902    2    1    2    0    0 -0.20469108084E-01  0.94896717389E-02  0.95792845868E-02  0.10194187587E+01  0.10191240379E+01 0.  0.
     999903    2    3    3    0    0  0.11264875545E+00  0.23677625511E-01 -0.50135678306E-01  0.12729346460E+00  0.20968257839E-01 0.  0.
         14    1    1    2    0    0  0.20469108084E-01 -0.94896717389E-02 -0.95792845868E-02  0.24511241272E-01  0.00000000000E+00 0.  1.
     999901    1    3    3    0    0 -0.13311786354E+00 -0.14187953772E-01  0.59714962892E-01  0.89212529413E+00  0.88000000000E+00 0. -1.
        -11    1    4    4    0    0  0.51810337323E-01  0.99059674974E-02 -0.11732676387E-01  0.54040318854E-01  0.51100000000E-03 0.  1.
         11    1    4    4    0    0  0.60838418129E-01  0.13771658013E-01 -0.38403001918E-01  0.73253145749E-01  0.51100000000E-03 0. -1.
</event>
<event>
 8    1  0.1111182E+005  0.1043930E+01  0.7957747E-01            NaN
         13   -1    0    0    0    0  0.00000000000E+00  0.00000000000E+00  0.74505805969E-08  0.10566000000E+00  0.10566000000E+00 0.  1.
     999900   -1    0    0    0    0 -0.00000000000E+00 -0.00000000000E+00 -0.74505805969E-08  0.93827000000E+00  0.93827000000E+00 0. -1.
     999902    2    1    2    0    0  0.21106922169E-01 -0.22161907771E-02 -0.63430810721E-02  0.10217794167E+01  0.10215392934E+01 0.  0.
     999903    2    3    3    0    0 -0.10257429383E+00 -0.17735036907E-03 -0.77451050337E-01  0.13028766495E+00  0.21323537087E-01 0.  0.
         14    1    1    2    0    0 -0.21106922169E-01  0.22161907771E-02  0.63430810721E-02  0.22150583344E-01  0.00000000000E+00 0.  1.
     999901    1    3    3    0    0  0.12368121599E+00 -0.20388404081E-02  0.71107969265E-01  0.89149175170E+00  0.88000000000E+00 0.  1.
        -11    1    4    4    0    0 -0.73291277636E-01 -0.32663406696E-02 -0.43293028178E-01  0.85187016433E-01  0.51100000000E-03 0.  1.
         11    1    4    4    0    0 -0.29283016189E-01  0.30889903006E-02 -0.34158022158E-01  0.45100648521E-01  0.51100000000E-03 0. -1.
</event>
<event>
 8    1  0.1111182E+005  0.1043930E+01  0.7957747E-01            NaN
         13   -1    0    0    0    0  0.00000000000E+00  0.00000000000E+00  0.74505805969E-08  0.10566000000E+00  0.10566000000E+00 0.  1.
     999900   -1    0    0    0    0 -0.00000000000E+00 -0.00000000000E+00 -0.74505805969E-08  0.93827000000E+00  0.93827000000E+00 0. -1.
     999902    2    1    2    0    0  0.71642219479E-02 -0.21136108914E-01  0.17101838571E-02  0.10215472856E+01  0.10213020468E+01 0.  0.
     999903    2    3    3    0    0 -0.12477853655E+00 -0.22579956881E-01 -0.27380773012E-01  0.13123427321E+00  0.19829021631E-01 0.  0.
         14    1    1    2    0    0 -0.71642219479E-02  0.21136108914E-01 -0.17101838571E-02  0.22382714424E-01  0.00000000000E+00 0.  1.
     999901    1    3    3    0    0  0.13194275849E+00  0.14438479670E-02  0.29090956870E-01  0.89031301237E+00  0.88000000000E+00 0.  1.
        -11    1    4    4    0    0 -0.67111940857E-01 -0.59828630394E-02 -0.64882282673E-02  0.67691694341E-01  0.51100000000E-03 0.  1.
         11    1    4    4    0    0 -0.57666595689E-01 -0.16597093842E-01 -0.20892544745E-01  0.63542578869E-01  0.51100000000E-03 0. -1.
</event>
<event>
 8    1  0.1111182E+005  0.1043930E+01  0.7957747E-01            NaN
         13   -1    0    0    0    0  0.00000000000E+00  0.00000000000E+00  0.74505805969E-08  0.10566000000E+00  0.10566000000E+00 0.  1.
     999900   -1    0    0    0    0 -0.00000000000E+00 -0.00000000000E+00 -0.74505805969E-08  0.93827000000E+00  0.93827000000E+00 0. -1.
     999902    2    1    2    0    0 -0.25176224720E-02 -0.23085905507E-01  0.46863171006E-02  0.10202390941E+01  0.10199639945E+01 0.  0.
     999903    2    3    3    0    0 -0.41524865152E-01  0.49774577011E-01  0.11095810112E+00  0.13000097594E+00  0.19665467116E-01 0.  0.
         14    1    1    2    0    0  0.25176224720E-02  0.23085905507E-01 -0.46863171006E-02  0.23690905933E-01  0.00000000000E+00 0.  1.
     999901    1    3    3    0    0  0.39007242680E-01 -0.72860482518E-01 -0.10627178402E+00  0.89023811813E+00  0.88000000000E+00 0. -1.
        -11    1    4    4    0    0 -0.11091351055E-01  0.14817687086E-01  0.16577115386E-01  0.24852440409E-01  0.51100000000E-03 0. -1.
         11    1    4    4    0    0 -0.30433514097E-01  0.34956889925E-01  0.94380985738E-01  0.10514853553E+00  0.51100000000E-03 0.  1.
</event>
<event>
 8    1  0.1111182E+005  0.1043930E+01  0.7957747E-01            NaN
         13   -1    0    0    0    0  0.00000000000E+00  0.00000000000E+00  0.74505805969E-08  0.10566000000E+00  0.10566000000E+00 0. -1.
     999900   -1    0    0    0    0 -0.00000000000E+00 -0.00000000000E+00 -0.74505805969E-08  0.93827000000E+00  0.93827000000E+00 0.  1.
     999902    2    1    2    0    0  0.13618318693E-01 -0.30420517084E-02 -0.19558971002E-01  0.10199036389E+01  0.10196205993E+01 0.  0.
     999903    2    3    3    0    0 -0.11487928354E+00  0.37633589934E-01  0.36269288707E-01  0.12789302448E+00  0.20679156893E-01 0.  0.
         14    1    1    2    0    0 -0.13618318693E-01  0.30420517084E-02  0.19558971002E-01  0.24026361133E-01  0.00000000000E+00 0. -1.
     999901    1    3    3    0    0  0.12849760223E+00 -0.40675641643E-01 -0.55828259709E-01  0.89201061439E+00  0.88000000000E+00 0. -1.
        -11    1    4    4    0    0 -0.51323936215E-01  0.19083678034E-01  0.26947869555E-01  0.61030992049E-01  0.51100000000E-03 0.  1.
         11    1    4    4    0    0 -0.63555347320E-01  0.18549911901E-01  0.93214191516E-02  0.66862032429E-01  0.51100000000E-03 0. -1.
</event>
<event>
 7    1  0.1111182E+005  0.1043930E+01  0.7957747E-01            NaN
         13   -1    0    0    0    0  0.00000000000E+00  0.00000000000E+00  0.74505805969E-08  0.10566000000E+00  0.10566000000E+00 0. -1.
     999900   -1    0    0    0    0 -0.00000000000E+00 -0.00000000000E+00 -0.74505805969E-08  0.93827000000E+00  0.93827000000E+00 0. -1.
     999903    2    1    2    0    0  0.39953772270E-03 -0.79524441274E-01  0.52998273919E-01  0.98611557649E-01  0.24313080291E-01 0.  0.
         14    1    1    2    0    0  0.49502265526E-01  0.77470782732E-02 -0.34426311344E-01  0.60791960214E-01  0.00000000000E+00 0.  1.
     999901    1    1    2    0    0 -0.49901803249E-01  0.71777363001E-01 -0.18571962576E-01  0.88452648214E+00  0.88000000000E+00 0. -1.
        -11    1    3    3    0    0  0.62628104541E-02 -0.56262714545E-01  0.47723316762E-01  0.74043851375E-01  0.51100000000E-03 0.  1.
         11    1    3    3    0    0 -0.58632727314E-02 -0.23261726729E-01  0.52749571575E-02  0.24567706274E-01  0.51100000000E-03 0. -1.
</event>
<event>
 8    1  0.1111182E+005  0.1043930E+01  0.7957747E-01            NaN
         13   -1    0    0    0    0  0.00000000000E+00  0.00000000000E+00  0.74505805969E-08  0.10566000000E+00  0.10566000000E+00 0. -1.
     999900   -1    0    0    0    0 -0.00000000000E+00 -0.00000000000E+00 -0.74505805969E-08  0.93827000000E+00  0.93827000000E+00 0. -1.
     999902    2    1    2    0    0 -0.23136762638E-01 -0.61799614358E-02 -0.38802702452E-02  0.10196697814E+01  0.10193811382E+01 0.  0.
     999903    2    3    3    0    0 -0.13238422895E-01 -0.10223792092E+00 -0.78718164521E-01  0.13122967700E+00  0.19920602021E-01 0.  0.
         14    1    1    2    0    0  0.23136762638E-01  0.61799614358E-02  0.38802702452E-02  0.24260218587E-01  0.00000000000E+00 0. -1.
     999901    1    3    3    0    0 -0.98983397433E-02  0.96057959485E-01  0.74837894276E-01  0.88844010441E+00  0.88000000000E+00 0.  1.
        -11    1    4    4    0    0 -0.34951740910E-02 -0.75522803092E-01 -0.49001739381E-01  0.90096290779E-01  0.51100000000E-03 0.  1.
         11    1    4    4    0    0 -0.97432488036E-02 -0.26715117830E-01 -0.29716425140E-01  0.41133386221E-01  0.51100000000E-03 0. -1.
</event>
<event>
 8    1  0.1111182E+005  0.1043930E+01  0.7957747E-01            NaN
         13   -1    0    0    0    0  0.00000000000E+00  0.00000000000E+00  0.74505805969E-08  0.10566000000E+00  0.10566000000E+00 0.  1.
     999900   -1    0    0    0    0 -0.00000000000E+00 -0.00000000000E+00 -0.74505805969E-08  0.93827000000E+00  0.93827000000E+00 0.  1.
     999902    2    1    2    0    0  0.10740911372E-01 -0.36708474196E-02  0.20216639179E-01  0.10207447720E+01  0.10204814230E+01 0.  0.
     999903    2    3    3    0    0 -0.58403003884E-01  0.49496153215E-02 -0.11235482178E+00  0.12809120781E+00  0.18663922045E-01 0.  0.
         14    1    1    2    0    0 -0.10740911372E-01  0.36708474196E-02 -0.20216639179E-01  0.23185228004E-01  0.00000000000E+00 0. -1.
     999901    1    3    3    0    0  0.69143915256E-01 -0.86204627411E-02  0.13257146096E+00  0.89265356419E+00  0.88000000000E+00 0. -1.
        -11    1    4    4    0    0 -0.28417369188E-01 -0.23833712727E-02 -0.37458001442E-01  0.47080678873E-01  0.51100000000E-03 0.  1.
         11    1    4    4    0    0 -0.29985634696E-01  0.73329865942E-02 -0.74896820339E-01  0.81010528936E-01  0.51100000000E-03 0. -1.
</event>
<event>
 8    1  0.1111182E+005  0.1043930E+01  0.7957747E-01            NaN
         13   -1    0    0    0    0  0.00000000000E+00  0.00000000000E+00  0.74505805969E-08  0.10566000000E+00  0.10566000000E+00 0. -1.
     999900   -1    0    0    0    0 -0.00000000000E+00 -0.00000000000E+00 -0.74505805969E-08  0.93827000000E+00  0.93827000000E+00 0. -1.
     999902    2    1    2    0    0 -0.20136909387E-01 -0.13411392236E-01  0.10605729894E-02  0.10197125398E+01  0.10194249254E+01 0.  0.
     999903    2    3    3    0    0  0.71370741420E-01 -0.45244135025E-01 -0.95481752239E-01  0.12914676786E+00  0.20525792384E-01 0.  0.
         14    1    1    2    0    0  0.20136909387E-01  0.13411392236E-01 -0.10605729894E-02  0.24217460156E-01  0.00000000000E+00 0.  1.
     999901    1    3    3    0    0 -0.91507650807E-01  0.31832742789E-01  0.96542325228E-01  0.89056577198E+00  0.88000000000E+00 0.  1.
        -11    1    4    4    0    0  0.48113083785E-01 -0.20069691118E-01 -0.50388812100E-01  0.72504860794E-01  0.51100000000E-03 0.  1.
         11    1    4    4    0    0  0.23257657635E-01 -0.25174443906E-01 -0.45092940139E-01  0.56641907066E-01  0.51100000000E-03 0. -1.
</event>
<event>
 8    1  0.1111182E+005  0.1043930E+01  0.7957747E-01            NaN
         13   -1    0    0    0    0  0.00000000000E+00  0.00000000000E+00  0.74505805969E-08  0.10566000000E+00  0.10566000000E+00 0.  1.
     999900   -1    0    0    0    0 -0.00000000000E+00 -0.00000000000E+00 -0.74505805969E-08  0.93827000000E+00  0.93827000000E+00 0.  1.
     999902    2    1    2    0    0 -0.99057229292E-02 -0.17788824611E-01 -0.11509988830E-01  0.10205409968E+01  0.10202729442E+01 0.  0.
     999903    2    3    3    0    0 -0.12529798187E+00  0.24156172379E-01  0.23790591117E-01  0.13131611684E+00  0.19870213708E-01 0.  0.
         14    1    1    2    0    0  0.99057229292E-02  0.17788824611E-01  0.11509988830E-01  0.23389003199E-01  0.00000000000E+00 0.  1.
     999901    1    3    3    0    0  0.11539225894E+00 -0.41944996990E-01 -0.35300579947E-01  0.88922487996E+00  0.88000000000E+00 0. -1.
        -11    1    4    4    0    0 -0.78566748435E-01  0.24847732358E-01  0.15163347164E-01  0.83787421378E-01  0.51100000000E-03 0. -1.
         11    1    4    4    0    0 -0.46731233431E-01 -0.69155997824E-03  0.86272439533E-02  0.47528695463E-01  0.51100000000E-03 0.  1.
</event>
<event>
 8    1  0.1111182E+005  0.1043930E+01  0.7957747E-01            NaN
         13   -1    0    0    0    0  0.00000000000E+00  0.00000000000E+00  0.74505805969E-08  0.10566000000E+00  0.10566000000E+00 0.  1.
     999900   -1    0    0    0    0 -0.00000000000E+00 -0.00000000000E+00 -0.74505805969E-08  0.93827000000E+00  0.93827000000E+00 0.  1.
     999902    2    1    2    0    0 -0.10630449765E-01  0.19724100077E-01 -0.28633559100E-01  0.10075716819E+01  0.10069154716E+01 0.  0.
     999903    2    3    3    0    0  0.93218663267E-01  0.57259074750E-01  0.38049573840E-01  0.11816730100E+00  0.23397011211E-01 0.  0.
         14    1    1    2    0    0  0.10630449765E-01 -0.19724100077E-01  0.28633559100E-01  0.36358318069E-01  0.00000000000E+00 0.  1.
     999901    1    3    3    0    0 -0.10384911303E+00 -0.37534974673E-01 -0.66683132941E-01  0.88940438093E+00  0.88000000000E+00 0.  1.
        -11    1    4    4    0    0  0.54689483352E-01  0.46708591945E-01  0.24394048222E-01  0.75947105675E-01  0.51100000000E-03 0.  1.
         11    1    4    4    0    0  0.38529179915E-01  0.10550482805E-01  0.13655525619E-01  0.42220195325E-01  0.51100000000E-03 0. -1.
</event>
<event>
 8    1  0.1111182E+005  0.1043930E+01  0.7957747E-01            NaN
         13   -1    0    0    0    0  0.00000000000E+00  0.00000000000E+00  0.74505805969E-08  0.10566000000E+00  0.10566000000E+00 0. -1.
     999900   -1    0    0    0    0 -0.00000000000E+00 -0.00000000000E+00 -0.74505805969E-08  0.93827000000E+00  0.93827000000E+00 0.  1.
     999902    2    1    2    0    0  0.89500919969E-02  0.10168715456E-01 -0.58300201232E-02  0.10291822525E+01  0.10290765826E+01 0.  0.
     999903    2    3    3    0    0 -0.10827026569E+00 -0.68467643023E-02 -0.82845598293E-01  0.13791263110E+00  0.19676687911E-01 0.  0.
         14    1    1    2    0    0 -0.89500919969E-02 -0.10168715456E-01  0.58300201232E-02  0.14747747469E-01  0.00000000000E+00 0.  1.
     999901    1    3    3    0    0  0.11722035768E+00  0.17015479758E-01  0.77015578170E-01  0.89126962143E+00  0.88000000000E+00 0.  1.
        -11    1    4    4    0    0 -0.58575157453E-01 -0.45399841372E-02 -0.56954838662E-01  0.81827717154E-01  0.51100000000E-03 0. -1.
         11    1    4    4    0    0 -0.49695108232E-01 -0.23067801650E-02 -0.25890759631E-01  0.56084913945E-01  0.51100000000E-03 0.  1.
</event>
<event>
 8    1  0.1111182E+005  0.1043930E+01  0.7957747E-01            NaN
         13   -1    0    0    0    0  0.00000000000E+00  0.00000000000E+00  0.74505805969E-08  0.10566000000E+00  0.10566000000E+00 0.  1.
     999900   -1    0    0    0    0 -0.00000000000E+00 -0.00000000000E+00 -0.74505805969E-08  0.93827000000E+00  0.93827000000E+00 0. -1.
     999902    2    1    2    0    0  0.89774606130E-03 -0.23373054370E-01 -0.60078027902E-02  0.10197804801E+01  0.10194944964E+01 0.  0.
     999903    2    3    3    0    0 -0.14575737835E-01 -0.72433987524E-01 -0.10806305783E+00  0.13239010433E+00  0.19758050913E-01 0.  0.
         14    1    1    2    0    0 -0.89774606130E-03  0.23373054370E-01  0.60078027902E-02  0.24149519932E-01  0.00000000000E+00 0.  1.
     999901    1    3    3    0    0  0.15473483897E-01  0.49060933154E-01  0.10205525504E+00  0.88739037573E+00  0.88000000000E+00 0.  1.
        -11    1    4    4    0    0 -0.18369440942E-01 -0.48912904694E-01 -0.80285695634E-01  0.95791245167E-01  0.51100000000E-03 0. -1.
         11    1    4    4    0    0  0.37937031070E-02 -0.23521082830E-01 -0.27777362195E-01  0.36598859166E-01  0.51100000000E-03 0.  1.
</event>
<event>
 8    1  0.1111182E+005  0.1043930E+01  0.7957747E-01            NaN
         13   -1    0    0    0    0  0.00000000000E+00  0.00000000000E+00  0.74505805969E-08  0.10566000000E+00  0.10566000000E+00 0. -1.
     999900   -1    0    0    0    0 -0.00000000000E+00 -0.00000000000E+00 -0.74505805969E-08  0.93827000000E+00  0.93827000000E+00 0. -1.
     999902    2    1    2    0    0 -0.79590259784E-02 -0.22259534453E-01 -0.23807152922E-02  0.10201707750E+01  0.10198940677E+01 0.  0.
     999903    2    3    3    0    0 -0.11809691798E+00 -0.27013778161E-01  0.47945604450E-01  0.13186581802E+00  0.20326995090E-01 0.  0.
         14    1    1    2    0    0  0.79590259784E-02  0.22259534453E-01  0.23807152922E-02  0.23759225027E-01  0.00000000000E+00 0. -1.
     999901    1    3    3    0    0  0.11013789200E+00  0.47542437085E-02 -0.50326319742E-01  0.88830495695E+00  0.88000000000E+00 0.  1.
        -11    1    4    4    0    0 -0.63911764384E-01 -0.62239484420E-02  0.31594726554E-01  0.71567723367E-01  0.51100000000E-03 0.  1.
         11    1    4    4    0    0 -0.54185153596E-01 -0.20789829719E-01  0.16350877896E-01  0.60298094654E-01  0.51100000000E-03 0. -1.
</event>
<event>
 8    1  0.1111182E+005  0.1043930E+01  0.7957747E-01            NaN
         13   -1    0    0    0    0  0.00000000000E+00  0.00000000000E+00  0.74505805969E-08  0.10566000000E+00  0.10566000000E+00 0. -1.
     999900   -1    0    0    0    0 -0.00000000000E+00 -0.00000000000E+00 -0.74505805969E-08  0.93827000000E+00  0.93827000000E+00 0.  1.
     999902    2    1    2    0    0 -0.96869625796E-02 -0.10856427735E-01  0.20364144974E-01  0.10189020623E+01  0.10185946273E+01 0.  0.
     999903    2    3    3    0    0  0.51972707210E-01  0.11033758510E+00 -0.29612598686E-01  0.12705702048E+00  0.19774616867E-01 0.  0.
         14    1    1    2    0    0  0.96869625796E-02  0.10856427735E-01 -0.20364144974E-01  0.25027937744E-01  0.00000000000E+00 0.  1.
     999901    1    3    3    0    0 -0.61659669789E-01 -0.12119401284E+00  0.49976743660E-01  0.89184504177E+00  0.88000000000E+00 0. -1.
        -11    1    4    4    0    0  0.79245187388E-02  0.25421908723E-01 -0.14133170129E-01  0.30150937950E-01  0.51100000000E-03 0. -1.
         11    1    4    4    0    0  0.44048188471E-01  0.84915676380E-01 -0.15479428557E-01  0.96906082534E-01  0.51100000000E-03 0.  1.
</event>
<event>
 8    1  0.1111182E+005  0.1043930E+01  0.7957747E-01            NaN
         13   -1    0    0    0    0  0.00000000000E+00  0.00000000000E+00  0.74505805969E-08  0.10566000000E+00  0.10566000000E+00 0.  1.
     999900   -1    0    0    0    0 -0.00000000000E+00 -0.00000000000E+00 -0.74505805969E-08  0.93827000000E+00  0.93827000000E+00 0. -1.
     999902    2    1    2    0    0 -0.22508244161E-01 -0.55664565512E-02 -0.44171873465E-02  0.10203266520E+01  0.10200536058E+01 0.  0.
     999903    2    3    3    0    0  0.11666295298E+00 -0.25307356049E-02  0.48681108976E-01  0.12780367368E+00  0.18635434372E-01 0.  0.
         14    1    1    2    0    0  0.22508244161E-01  0.55664565512E-02  0.44171873465E-02  0.23603348021E-01  0.00000000000E+00 0.  1.
     999901    1    3    3    0    0 -0.13917119714E+00 -0.30357209463E-02 -0.53098296322E-01  0.89252297830E+00  0.88000000000E+00 0. -1.
        -11    1    4    4    0    0  0.71844383288E-01 -0.86661311528E-02  0.35963732397E-01  0.80810694887E-01  0.51100000000E-03 0.  1.
         11    1    4    4    0    0  0.44818569694E-01  0.61353955479E-02  0.12717376579E-01  0.46992978795E-01  0.51100000000E-03 0. -1.
</event>
<event>
 8    1  0.1111182E+005  0.1043930E+01  0.7957747E-01            NaN
         13   -1    0    0    0    0  0.00000000000E+00  0.00000000000E+00  0.74505805969E-08  0.10566000000E+00  0.10566000000E+00 0.  1.
     999900   -1    0    0    0    0 -0.00000000000E+00 -0.00000000000E+00 -0.74505805969E-08  0.93827000000E+00  0.93827000000E+00 0. -1.
     999902    2    1    2    0    0  0.28742082507E-02 -0.11201269217E-01 -0.23062237706E-01  0.10181308467E+01  0.10178039225E+01 0.  0.
     999903    2    3    3    0    0  0.24171439570E-01  0.66311695825E-01  0.10177488202E+00  0.12569253603E+00  0.21423993772E-01 0.  0.
         14    1    1    2    0    0 -0.28742082507E-02  0.11201269217E-01  0.23062237706E-01  0.25799153342E-01  0.00000000000E+00 0.  1.
     999901    1    3    3    0    0 -0.21297231319E-01 -0.77512965042E-01 -0.12483711973E+00  0.89243831063E+00  0.88000000000E+00 0. -1.
        -11    1    4    4    0    0 -0.15909083678E-03  0.62406657289E-02  0.22177521633E-01  0.23045060326E-01  0.51100000000E-03 0.  1.
         11    1    4    4    0    0  0.24330530407E-01  0.60071030096E-01  0.79597360390E-01  0.10264747571E+00  0.51100000000E-03 0. -1.
</event>
<event>
 8    1  0.1111182E+005  0.1043930E+01  0.7957747E-01            NaN
         13   -1    0    0    0    0  0.00000000000E+00  0.00000000000E+00  0.74505805969E-08  0.10566000000E+00  0.10566000000E+00 0.  1.
     999900   -1    0    0    0    0 -0.00000000000E+00 -0.00000000000E+00 -0.74505805969E-08  0.93827000000E+00  0.93827000000E+00 0.  1.
     999902    2    1    2    0    0  0.12745857251E-01  0.17038680832E-01 -0.76131732912E-02  0.10213305768E+01  0.10210805126E+01 0.  0.
     999903    2    3    3    0    0  0.12907556383E+00  0.80400310392E-02  0.18842362779E-01  0.13323515866E+00  0.25911958459E-01 0.  0.
         14    1    1    2    0    0 -0.12745857251E-01 -0.17038680832E-01  0.76131732912E-02  0.22599423203E-01  0.00000000000E+00 0.  1.
     999901    1    3    3    0    0 -0.11632970658E+00  0.89986497929E-02 -0.26455536071E-01  0.88809541814E+00  0.88000000000E+00 0.  1.
        -11    1    4    4    0    0  0.57974019252E-01  0.66151521446E-02  0.21184590119E-01  0.62078942691E-01  0.51100000000E-03 0.  1.
         11    1    4    4    0    0  0.71101544575E-01  0.14248788946E-02 -0.23422273400E-02  0.71156215967E-01  0.51100000000E-03 0. -1.
</event>
<event>
 8    1  0.1111182E+005  0.1043930E+01  0.7957747E-01            NaN
         13   -1    0    0    0    0  0.00000000000E+00  0.00000000000E+00  0.74505805969E-08  0.10566000000E+00  0.10566000000E+00 0. -1.
     999900   -1    0    0    0    0 -0.00000000000E+00 -0.00000000000E+00 -0.74505805969E-08  0.93827000000E+00  0.93827000000E+00 0.  1.
     999902    2    1    2    0    0 -0.82783617138E-02 -0.21627527502E-01 -0.41796903575E-02  0.10203980849E+01  0.10201267081E+01 0.  0.
     999903    2    3    3    0    0  0.52868095627E-01  0.92627362432E-01 -0.68916853131E-01  0.12855506652E+00  0.20050154035E-01 0.  0.
         14    1    1    2    0    0  0.82783617138E-02  0.21627527502E-01  0.41796903575E-02  0.23531915137E-01  0.00000000000E+00 0. -1.
     999901    1    3    3    0    0 -0.61146457340E-01 -0.11425488993E+00  0.64737162773E-01  0.89184301834E+00  0.88000000000E+00 0. -1.
        -11    1    4    4    0    0  0.56329259554E-02  0.20332764696E-01 -0.21091601228E-01  0.29837358100E-01  0.51100000000E-03 0.  1.
         11    1    4    4    0    0  0.47235169671E-01  0.72294597736E-01 -0.47825251902E-01  0.98717708423E-01  0.51100000000E-03 0. -1.
</event>
<event>
 8    1  0.1111182E+005  0.1043930E+01  0.7957747E-01            NaN
         13   -1    0    0    0    0  0.00000000000E+00  0.00000000000E+00  0.74505805969E-08  0.10566000000E+00  0.10566000000E+00 0.  1.
     999900   -1    0    0    0    0 -0.00000000000E+00 -0.00000000000E+00 -0.74505805969E-08  0.93827000000E+00  0.93827000000E+00 0.  1.
     999902    2    1    2    0    0  0.19661449722E-02  0.10421985152E-01  0.20932909516E-01  0.10204636368E+01  0.10201937874E+01 0.  0.
     999903    2    3    3    0    0 -0.16800277508E-01  0.81333807774E-01  0.10254922089E+00  0.13364804861E+00  0.21166496645E-01 0.  0.
         14    1    1    2    0    0 -0.19661449722E-02 -0.10421985152E-01 -0.20932909516E-01  0.23466363191E-01  0.00000000000E+00 0. -1.
     999901    1    3    3    0    0  0.18766422480E-01 -0.70911822621E-01 -0.81616311370E-01  0.88681558820E+00  0.88000000000E+00 0.  1.
        -11    1    4    4    0    0 -0.10281198972E-02  0.41763668100E-01  0.62497488539E-01  0.75176181057E-01  0.51100000000E-03 0.  1.
         11    1    4    4    0    0 -0.15772157611E-01  0.39570139674E-01  0.40051732348E-01  0.58471867548E-01  0.51100000000E-03 0. -1.
</event>
<event>
 8    1  0.1111182E+005  0.1043930E+01  0.7957747E-01            NaN
         13   -1    0    0    0    0  0.00000000000E+00  0.00000000000E+00  0.74505805969E-08  0.10566000000E+00  0.10566000000E+00 0. -1.
     999900   -1    0    0    0    0 -0.00000000000E+00 -0.00000000000E+00 -0.74505805969E-08  0.93827000000E+00  0.93827000000E+00 0.  1.
     999902    2    1    2    0    0 -0.15685855839E-01  0.10166452330E-01  0.14591890266E-01  0.10202165842E+01  0.10199409555E+01 0.  0.
     999903    2    3    3    0    0  0.79589611938E-01  0.47942591287E-01 -0.86499303391E-01  0.12851939298E+00  0.20052593268E-01 0.  0.
         14    1    1    2    0    0  0.15685855839E-01 -0.10166452330E-01 -0.14591890266E-01  0.23713415779E-01  0.00000000000E+00 0.  1.
     999901    1    3    3    0    0 -0.95275467776E-01 -0.37776138957E-01  0.10109119366E+00  0.89169719124E+00  0.88000000000E+00 0.  1.
        -11    1    4    4    0    0  0.36023439665E-01  0.10307494555E-01 -0.33320883304E-01  0.50144541423E-01  0.51100000000E-03 0. -1.
         11    1    4    4    0    0  0.43566172272E-01  0.37635096732E-01 -0.53178420087E-01  0.78374851556E-01  0.51100000000E-03 0.  1.
</event>
<event>
 8    1  0.1111182E+005  0.1043930E+01  0.7957747E-01            NaN
         13   -1    0    0    0    0  0.00000000000E+00  0.00000000000E+00  0.74505805969E-08  0.10566000000E+00  0.10566000000E+00 0.  1.
     999900   -1    0    0    0    0 -0.00000000000E+00 -0.00000000000E+00 -0.74505805969E-08  0.93827000000E+00  0.93827000000E+00 0.  1.
     999902    2    1    2    0    0  0.23765925852E-01  0.30328770448E-02 -0.88771158394E-03  0.10199548961E+01  0.10196730773E+01 0.  0.
     999903    2    3    3    0    0 -0.23870986676E-01 -0.12417765750E+00  0.19629242327E-01  0.12929629657E+00  0.18501635768E-01 0.  0.
         14    1    1    2    0    0 -0.23765925852E-01 -0.30328770448E-02  0.88771158394E-03  0.23975103891E-01  0.00000000000E+00 0. -1.
     999901    1    3    3    0    0  0.47636912528E-01  0.12721053454E+00 -0.20516953911E-01  0.89065859954E+00  0.88000000000E+00 0. -1.
        -11    1    4    4    0    0 -0.66855096701E-02 -0.74734533968E-01  0.64237652333E-02  0.75309179306E-01  0.51100000000E-03 0.  1.
         11    1    4    4    0    0 -0.17185477006E-01 -0.49443123529E-01  0.13205477094E-01  0.53987117264E-01  0.51100000000E-03 0. -1.
</event>
<event>
 8    1  0.1111182E+005  0.1043930E+01  0.7957747E-01            NaN
         13   -1    0    0    0    0  0.00000000000E+00  0.00000000000E+00  0.74505805969E-08  0.10566000000E+00  0.10566000000E+00 0.  1.
     999900   -1    0    0    0    0 -0.00000000000E+00 -0.00000000000E+00 -0.74505805969E-08  0.93827000000E+00  0.93827000000E+00 0.  1.
     999902    2    1    2    0    0  0.15833658012E-01 -0.16214825439E-01 -0.23105667093E-02  0.10211492184E+01  0.10208950790E+01 0.  0.
     999903    2    3    3    0    0 -0.97708036874E-02  0.12716119227E+00  0.44588317523E-02  0.12915252805E+00  0.19876038225E-01 0.  0.
         14    1    1    2    0    0 -0.15833658012E-01  0.16214825439E-01  0.23105667093E-02  0.22780781562E-01  0.00000000000E+00 0.  1.
     999901    1    3    3    0    0  0.25604461699E-01 -0.14337601771E+00 -0.67693984616E-02  0.89199669039E+00  0.88000000000E+00 0. -1.
        -11    1    4    4    0    0 -0.94283721489E-02  0.24167837093E-01  0.32555998368E-02  0.26150307884E-01  0.51100000000E-03 0.  1.
         11    1    4    4    0    0 -0.34243153841E-03  0.10299335518E+00  0.12032319156E-02  0.10300222016E+00  0.51100000000E-03 0. -1.
</event>
<event>
 7    1  0.1111182E+005  0.1043930E+01  0.7957747E-01            NaN
         13   -1    0    0    0    0  0.00000000000E+00  0.00000000000E+00  0.74505805969E-08  0.10566000000E+00  0.10566000000E+00 0. -1.
     999900   -1    0    0    0    0 -0.00000000000E+00 -0.00000000000E+00 -0.74505805969E-08  0.93827000000E+00  0.93827000000E+00 0. -1.
     999903    2    1    2    0    0  0.43122828942E-01  0.28385899626E-01  0.43884898357E-01  0.70977182508E-01  0.21131456633E-01 0.  0.
         14    1    1    2    0    0  0.78327330431E-01  0.53360148070E-02  0.22001653164E-01  0.81533529841E-01  0.00000000000E+00 0. -1.
     999901    1    1    2    0    0 -0.12145015937E+00 -0.33721914433E-01 -0.65886551521E-01  0.89141928765E+00  0.88000000000E+00 0. -1.
        -11    1    3    3    0    0  0.79563907875E-02  0.16988988399E-01  0.13414388113E-01  0.23068090746E-01  0.51100000000E-03 0.  1.
         11    1    3    3    0    0  0.35166438154E-01  0.11396911226E-01  0.30470510244E-01  0.47909091762E-01  0.51100000000E-03 0. -1.
</event>
<event>
 7    1  0.1111182E+005  0.1043930E+01  0.7957747E-01            NaN
         13   -1    0    0    0    0  0.00000000000E+00  0.00000000000E+00  0.74505805969E-08  0.10566000000E+00  0.10566000000E+00 0. -1.
     999900   -1    0    0    0    0 -0.00000000000E+00 -0.00000000000E+00 -0.74505805969E-08  0.93827000000E+00  0.93827000000E+00 0. -1.
     999903    2    1    2    0    0 -0.10604718355E+00  0.25261457668E-01 -0.18035984157E-01  0.11228824549E+00  0.19980164376E-01 0.  0.
         14    1    1    2    0    0  0.19466107726E-02 -0.43063676968E-01 -0.12234655320E-01  0.44810226046E-01  0.00000000000E+00 0.  1.
     999901    1    1    2    0    0  0.10410057278E+00  0.17802219299E-01  0.30270639478E-01  0.88683152846E+00  0.88000000000E+00 0.  1.
        -11    1    3    3    0    0 -0.44254092844E-01  0.62908275547E-02  0.15986618087E-02  0.44730482731E-01  0.51100000000E-03 0.  1.
         11    1    3    3    0    0 -0.61793090705E-01  0.18970630113E-01 -0.19634645966E-01  0.67557762759E-01  0.51100000000E-03 0. -1.
</event>
<event>
 8    1  0.1111182E+005  0.1043930E+01  0.7957747E-01            NaN
         13   -1    0    0    0    0  0.00000000000E+00  0.00000000000E+00  0.74505805969E-08  0.10566000000E+00  0.10566000000E+00 0. -1.
     999900   -1    0    0    0    0 -0.00000000000E+00 -0.00000000000E+00 -0.74505805969E-08  0.93827000000E+00  0.93827000000E+00 0. -1.
     999902    2    1    2    0    0 -0.14328454449E-01 -0.15052642268E-01  0.11474401599E-01  0.10201908227E+01  0.10199145877E+01 0.  0.
     999903    2    3    3    0    0  0.44311751639E-01  0.74836659634E-01  0.94566696670E-01  0.12978468512E+00  0.18361574382E-01 0.  0.
         14    1    1    2    0    0  0.14328454449E-01  0.15052642268E-01 -0.11474401599E-01  0.23739177286E-01  0.00000000000E+00 0.  1.
     999901    1    3    3    0    0 -0.58640206089E-01 -0.89889301903E-01 -0.83092295071E-01  0.89040613759E+00  0.88000000000E+00 0. -1.
        -11    1    4    4    0    0  0.31621189830E-01  0.37079837929E-01  0.57458426101E-01  0.75342855521E-01  0.51100000000E-03 0.  1.
         11    1    4    4    0    0  0.12690561809E-01  0.37756821705E-01  0.37108270569E-01  0.54441829598E-01  0.51100000000E-03 0. -1.
</event>
<event>
 8    1  0.1111182E+005  0.1043930E+01  0.7957747E-01            NaN
         13   -1    0    0    0    0  0.00000000000E+00  0.00000000000E+00  0.74505805969E-08  0.10566000000E+00  0.10566000000E+00 0. -1.
     999900   -1    0    0    0    0 -0.00000000000E+00 -0.00000000000E+00 -0.74505805969E-08  0.93827000000E+00  0.93827000000E+00 0. -1.
     999902    2    1    2    0    0 -0.75996085018E-02  0.17261699234E-01 -0.12430626063E-01  0.10213414902E+01  0.10210916702E+01 0.  0.
     999903    2    3    3    0    0  0.66303856252E-01  0.58100735477E-01 -0.98663215335E-01  0.13310412980E+00  0.14504568033E-01 0.  0.
         14    1    1    2    0    0  0.75996085018E-02 -0.17261699234E-01  0.12430626063E-01  0.22588509781E-01  0.00000000000E+00 0. -1.
     999901    1    3    3    0    0 -0.73903464754E-01 -0.40839036244E-01  0.86232589272E-01  0.88823736041E+00  0.88000000000E+00 0. -1.
        -11    1    4    4    0    0  0.59437997385E-01  0.45766232380E-01 -0.79623070941E-01  0.10939615216E+00  0.51100000000E-03 0. -1.
         11    1    4    4    0    0  0.68658588672E-02  0.12334503098E-01 -0.19040144394E-01  0.23707977649E-01  0.51100000000E-03 0.  1.
</event>
<event>
 8    1  0.1111182E+005  0.1043930E+01  0.7957747E-01            NaN
         13   -1    0    0    0    0  0.00000000000E+00  0.00000000000E+00  0.74505805969E-08  0.10566000000E+00  0.10566000000E+00 0.  1.
     999900   -1    0    0    0    0 -0.00000000000E+00 -0.00000000000E+00 -0.74505805969E-08  0.93827000000E+00  0.93827000000E+00 0. -1.
     999902    2    1    2    0    0 -0.13947937451E-01 -0.40708671824E-02  0.18515997356E-01  0.10203936648E+01  0.10201221848E+01 0.  0.
     999903    2    3    3    0    0  0.11445033442E+00  0.41253466887E-01  0.40383026265E-01  0.12965319838E+00  0.19453417738E-01 0.  0.
         14    1    1    2    0    0  0.13947937451E-01  0.40708671824E-02 -0.18515997356E-01  0.23536335246E-01  0.00000000000E+00 0. -1.
     999901    1    3    3    0    0 -0.12839827187E+00 -0.45324334069E-01 -0.21867028909E-01  0.89074046637E+00  0.88000000000E+00 0.  1.
        -11    1    4    4    0    0  0.59789678422E-01  0.11539636204E-01  0.17477669816E-01  0.63353760051E-01  0.51100000000E-03 0. -1.
         11    1    4    4    0    0  0.54660655997E-01  0.29713830683E-01  0.22905356449E-01  0.66299438331E-01  0.51100000000E-03 0.  1.
</event>
<event>
 8    1  0.1111182E+005  0.1043930E+01  0.7957747E-01            NaN
         13   -1    0    0    0    0  0.00000000000E+00  0.00000000000E+00  0.74505805969E-08  0.10566000000E+00  0.10566000000E+00 0. -1.
     999900   -1    0    0    0    0 -0.00000000000E+00 -0.00000000000E+00 -0.74505805969E-08  0.93827000000E+00  0.93827000000E+00 0. -1.
     999902    2    1    2    0    0  0.21140087120E-01  0.14028821209E-01  0.60386566995E-02  0.10178498067E+01  0.10175156277E+01 0.  0.
     999903    2    3    3    0    0  0.99653229083E-01  0.27470646723E-01  0.78248669330E-01  0.13130636047E+00  0.20811140014E-01 0.  0.
         14    1    1    2    0    0 -0.21140087120E-01 -0.14028821209E-01 -0.60386566995E-02  0.26080193302E-01  0.00000000000E+00 0.  1.
     999901    1    3    3    0    0 -0.78513141963E-01 -0.13441825514E-01 -0.72210012631E-01  0.88654344623E+00  0.88000000000E+00 0.  1.
        -11    1    4    4    0    0  0.59320317059E-01  0.19162901248E-01  0.59052058725E-01  0.85869223596E-01  0.51100000000E-03 0.  1.
         11    1    4    4    0    0  0.40332912024E-01  0.83077454753E-02  0.19196610605E-01  0.45437136870E-01  0.51100000000E-03 0. -1.
</event>
<event>
 8    1  0.1111182E+005  0.1043930E+01  0.7957747E-01            NaN
         13   -1    0    0    0    0  0.00000000000E+00  0.00000000000E+00  0.74505805969E-08  0.10566000000E+00  0.10566000000E+00 0.  1.
     999900   -1    0    0    0    0 -0.00000000000E+00 -0.00000000000E+00 -0.74505805969E-08  0.93827000000E+00  0.93827000000E+00 0. -1.
     999902    2    1    2    0    0  0.62063616933E-02 -0.23685122739E-01  0.66912364577E-02  0.10185473955E+01  0.10182310741E+01 0.  0.
     999903    2    3    3    0    0 -0.26641094708E-01 -0.12791301989E+00  0.10269254090E-01  0.13178067753E+00  0.13755028344E-01 0.  0.
         14    1    1    2    0    0 -0.62063616933E-02  0.23685122739E-01 -0.66912364577E-02  0.25382604475E-01  0.00000000000E+00 0.  1.
     999901    1    3    3    0    0  0.32847456401E-01  0.10422789715E+00 -0.35780176324E-02  0.88676671800E+00  0.88000000000E+00 0. -1.
        -11    1    4    4    0    0 -0.80433975412E-02 -0.56166059690E-01  0.10255720261E-01  0.57660761564E-01  0.51100000000E-03 0.  1.
         11    1    4    4    0    0 -0.18597697167E-01 -0.71746960203E-01  0.13533829408E-04  0.74119915964E-01  0.51100000000E-03 0. -1.
</event>
<event>
 8    1  0.1111182E+005  0.1043930E+01  0.7957747E-01            NaN
         13   -1    0    0    0    0  0.00000000000E+00  0.00000000000E+00  0.74505805969E-08  0.10566000000E+00  0.10566000000E+00 0.  1.
     999900   -1    0    0    0    0 -0.00000000000E+00 -0.00000000000E+00 -0.74505805969E-08  0.93827000000E+00  0.93827000000E+00 0.  1.
     999902    2    1    2    0    0  0.18048631823E-01 -0.12797111812E-01 -0.65521247744E-02  0.10208551323E+01  0.10205943129E+01 0.  0.
     999903    2    3    3    0    0  0.79487770560E-01  0.82793432975E-01  0.60195328445E-01  0.13104192574E+00  0.19376545657E-01 0.  0.
         14    1    1    2    0    0 -0.18048631823E-01  0.12797111812E-01  0.65521247744E-02  0.23074867724E-01  0.00000000000E+00 0. -1.
     999901    1    3    3    0    0 -0.61439138736E-01 -0.95590544787E-01 -0.66747453220E-01  0.88981320654E+00  0.88000000000E+00 0.  1.
        -11    1    4    4    0    0  0.66784096379E-01  0.57666451239E-01  0.45792296253E-01  0.99411924058E-01  0.51100000000E-03 0. -1.
         11    1    4    4    0    0  0.12703674181E-01  0.25126981736E-01  0.14403032192E-01  0.31630001678E-01  0.51100000000E-03 0.  1.
</event>
<event>
 8    1  0.1111182E+005  0.1043930E+01  0.7957747E-01            NaN
         13   -1    0    0    0    0  0.00000000000E+00  0.00000000000E+00  0.74505805969E-08  0.10566000000E+00  0.10566000000E+00 0. -1.
     999900   -1    0    0    0    0 -0.00000000000E+00 -0.00000000000E+00 -0.74505805969E-08  0.93827000000E+00  0.93827000000E+00 0.  1.
     999902    2    1    2    0    0 -0.23333433827E-01 -0.76581903133E-04 -0.44684008274E-02  0.10201724411E+01  0.10198957731E+01 0.  0.
     999903    2    3    3    0    0 -0.49255366308E-01 -0.27306762457E-01 -0.11787385027E+00  0.13209911908E+00  0.19600568820E-01 0.  0.
         14    1    1    2    0    0  0.23333433827E-01  0.76581903133E-04  0.44684008274E-02  0.23757558900E-01  0.00000000000E+00 0.  1.
     999901    1    3    3    0    0  0.25921932480E-01  0.27230180554E-01  0.11340544945E+00  0.88807332202E+00  0.88000000000E+00 0. -1.
        -11    1    4    4    0    0 -0.13155999456E-01 -0.11055854403E-01 -0.56545123303E-01  0.59100967239E-01  0.51100000000E-03 0.  1.
         11    1    4    4    0    0 -0.36099366852E-01 -0.16250908054E-01 -0.61328726970E-01  0.72998151843E-01  0.51100000000E-03 0. -1.
</event>
<event>
 8    1  0.1111182E+005  0.1043930E+01  0.7957747E-01            NaN
         13   -1    0    0    0    0  0.00000000000E+00  0.00000000000E+00  0.74505805969E-08  0.10566000000E+00  0.10566000000E+00 0. -1.
     999900   -1    0    0    0    0 -0.00000000000E+00 -0.00000000000E+00 -0.74505805969E-08  0.93827000000E+00  0.93827000000E+00 0. -1.
     999902    2    1    2    0    0  0.12151550025E-01  0.68479551316E-02  0.18550863587E-01  0.10207203210E+01  0.10204564099E+01 0.  0.
     999903    2    3    3    0    0  0.97053625518E-01 -0.45939785078E-02 -0.85926398824E-01  0.13040870221E+00  0.13511947762E-01 0.  0.
         14    1    1    2    0    0 -0.12151550025E-01 -0.68479551316E-02 -0.18550863587E-01  0.23209678958E-01  0.00000000000E+00 0.  1.
     999901    1    3    3    0    0 -0.84902075493E-01  0.11441933639E-01  0.10447726241E+00  0.89031161883E+00  0.88000000000E+00 0. -1.
        -11    1    4    4    0    0  0.45423691837E-01  0.30865851618E-02 -0.34443397935E-01  0.57091571798E-01  0.51100000000E-03 0. -1.
         11    1    4    4    0    0  0.51629933681E-01 -0.76805636696E-02 -0.51483000889E-01  0.73317130411E-01  0.51100000000E-03 0.  1.
</event>
<event>
 8    1  0.1111182E+005  0.1043930E+01  0.7957747E-01            NaN
         13   -1    0    0    0    0  0.00000000000E+00  0.00000000000E+00  0.74505805969E-08  0.10566000000E+00  0.10566000000E+00 0.  1.
     999900   -1    0    0    0    0 -0.00000000000E+00 -0.00000000000E+00 -0.74505805969E-08  0.93827000000E+00  0.93827000000E+00 0.  1.
     999902    2    1    2    0    0  0.23668039795E-02  0.23559010762E-01  0.40546213583E-02  0.10199077457E+01  0.10196248040E+01 0.  0.
     999903    2    3    3    0    0  0.61331097580E-02 -0.79194129272E-01 -0.98639696252E-01  0.12798929888E+00  0.18497183666E-01 0.  0.
         14    1    1    2    0    0 -0.23668039795E-02 -0.23559010762E-01 -0.40546213583E-02  0.24022254339E-01  0.00000000000E+00 0.  1.
     999901    1    3    3    0    0 -0.37663057785E-02  0.10275314003E+00  0.10269431761E+00  0.89191844679E+00  0.88000000000E+00 0. -1.
        -11    1    4    4    0    0  0.93174859493E-02 -0.61224444236E-01 -0.85146408374E-01  0.10528732163E+00  0.51100000000E-03 0.  1.
         11    1    4    4    0    0 -0.31843761913E-02 -0.17969685036E-01 -0.13493287878E-01  0.22701977244E-01  0.51100000000E-03 0. -1.
</event>
<event>
 8    1  0.1111182E+005  0.1043930E+01  0.7957747E-01            NaN
         13   -1    0    0    0    0  0.00000000000E+00  0.00000000000E+00  0.74505805969E-08  0.10566000000E+00  0.10566000000E+00 0. -1.
     999900   -1    0    0    0    0 -0.00000000000E+00 -0.00000000000E+00 -0.74505805969E-08  0.93827000000E+00  0.93827000000E+00 0. -1.
     999902    2    1    2    0    0  0.78683891343E-04 -0.10199086919E-02 -0.22851564216E-01  0.10210555515E+01  0.10207992942E+01 0.  0.
     999903    2    3    3    0    0 -0.34390651958E-01  0.12438744922E+00  0.89474852719E-02  0.13092841452E+00  0.20180133064E-01 0.  0.
         14    1    1    2    0    0 -0.78683891343E-04  0.10199086919E-02  0.22851564216E-01  0.22874448452E-01  0.00000000000E+00 0. -1.
     999901    1    3    3    0    0  0.34469335849E-01 -0.12540735791E+00 -0.31799049488E-01  0.89012713703E+00  0.88000000000E+00 0. -1.
        -11    1    4    4    0    0 -0.15181387380E-01  0.83471500931E-01  0.11678284376E-01  0.85642334376E-01  0.51100000000E-03 0. -1.
         11    1    4    4    0    0 -0.19209264578E-01  0.40915948285E-01 -0.27307991045E-02  0.45286080140E-01  0.51100000000E-03 0.  1.
</event>
<event>
 8    1  0.1111182E+005  0.1043930E+01  0.7957747E-01            NaN
         13   -1    0    0    0    0  0.00000000000E+00  0.00000000000E+00  0.74505805969E-08  0.10566000000E+00  0.10566000000E+00 0.  1.
     999900   -1    0    0    0    0 -0.00000000000E+00 -0.00000000000E+00 -0.74505805969E-08  0.93827000000E+00  0.93827000000E+00 0.  1.
     999902    2    1    2    0    0  0.11741310969E-01  0.21005147776E-01  0.59577799636E-03  0.10198586567E+01  0.10195745437E+01 0.  0.
     999903    2    3    3    0    0 -0.59496668784E-01  0.93992601799E-01  0.67335462734E-01  0.13145773161E+00  0.19303053353E-01 0.  0.
         14    1    1    2    0    0 -0.11741310969E-01 -0.21005147776E-01 -0.59577799636E-03  0.24071343289E-01  0.00000000000E+00 0. -1.
     999901    1    3    3    0    0  0.71237979752E-01 -0.72987454023E-01 -0.66739684737E-01  0.88840092510E+00  0.88000000000E+00 0.  1.
        -11    1    4    4    0    0 -0.49231767942E-01  0.62099084102E-01  0.50343161447E-01  0.93886943962E-01  0.51100000000E-03 0.  1.
         11    1    4    4    0    0 -0.10264900842E-01  0.31893517697E-01  0.16992301286E-01  0.37570787646E-01  0.51100000000E-03 0. -1.
</event>
<event>
 8    1  0.1111182E+005  0.1043930E+01  0.7957747E-01            NaN
         13   -1    0    0    0    0  0.00000000000E+00  0.00000000000E+00  0.74505805969E-08  0.10566000000E+00  0.10566000000E+00 0.  1.
     999900   -1    0    0    0    0 -0.00000000000E+00 -0.00000000000E+00 -0.74505805969E-08  0.93827000000E+00  0.93827000000E+00 0. -1.
     999902    2    1    2    0    0  0.23379941488E-01  0.59074169655E-02 -0.48518229481E-03  0.10198104096E+01  0.10195251428E+01 0.  0.
     999903    2    3    3    0    0  0.11881855134E+00  0.49869249799E-01 -0.26582639393E-01  0.13317505712E+00  0.20595361261E-01 0.  0.
         14    1    1    2    0    0 -0.23379941488E-01 -0.59074169655E-02  0.48518229481E-03  0.24119590400E-01  0.00000000000E+00 0.  1.
     999901    1    3    3    0    0 -0.95438609848E-01 -0.43961832834E-01  0.26097457098E-01  0.88663535248E+00  0.88000000000E+00 0.  1.
        -11    1    4    4    0    0  0.95676515251E-01  0.34304350790E-01 -0.14099111488E-01  0.10261496051E+00  0.51100000000E-03 0. -1.
         11    1    4    4    0    0  0.23142036084E-01  0.15564899010E-01 -0.12483527905E-01  0.30560096618E-01  0.51100000000E-03 0.  1.
</event>
<event>
 8    1  0.1111182E+005  0.1043930E+01  0.7957747E-01            NaN
         13   -1    0    0    0    0  0.00000000000E+00  0.00000000000E+00  0.74505805969E-08  0.10566000000E+00  0.10566000000E+00 0. -1.
     999900   -1    0    0    0    0 -0.00000000000E+00 -0.00000000000E+00 -0.74505805969E-08  0.93827000000E+00  0.93827000000E+00 0. -1.
     999902    2    1    2    0    0 -0.19344600112E-01 -0.84821567524E-02  0.12309260946E-01  0.10194825371E+01  0.10191893666E+01 0.  0.
     999903    2    3    3    0    0 -0.72040804595E-01 -0.23322415103E-01 -0.10399579126E+00  0.13014346319E+00  0.19707456432E-01 0.  0.
         14    1    1    2    0    0  0.19344600112E-01  0.84821567524E-02 -0.12309260946E-01  0.24447462889E-01  0.00000000000E+00 0.  1.
     999901    1    3    3    0    0  0.52696204483E-01  0.14840258350E-01  0.11630505220E+00  0.88933907392E+00  0.88000000000E+00 0.  1.
        -11    1    4    4    0    0 -0.21344295352E-01 -0.65474434561E-02 -0.47018922946E-01  0.52052744364E-01  0.51100000000E-03 0. -1.
         11    1    4    4    0    0 -0.50696509242E-01 -0.16774971647E-01 -0.56976868312E-01  0.78090718826E-01  0.51100000000E-03 0.  1.
</event>
<event>
 8    1  0.1111182E+005  0.1043930E+01  0.7957747E-01            NaN
         13   -1    0    0    0    0  0.00000000000E+00  0.00000000000E+00  0.74505805969E-08  0.10566000000E+00  0.10566000000E+00 0. -1.
     999900   -1    0    0    0    0 -0.00000000000E+00 -0.00000000000E+00 -0.74505805969E-08  0.93827000000E+00  0.93827000000E+00 0. -1.
     999902    2    1    2    0    0  0.16821756174E-02  0.65682561283E-02 -0.22623704196E-01  0.10203121319E+01  0.10200387457E+01 0.  0.
     999903    2    3    3    0    0  0.79557179501E-01 -0.57311877629E-01  0.80257216198E-01  0.12861169366E+00  0.22039756524E-01 0.  0.
         14    1    1    2    0    0 -0.16821756174E-02 -0.65682561283E-02  0.22623704196E-01  0.23617868129E-01  0.00000000000E+00 0. -1.
     999901    1    3    3    0    0 -0.77875003883E-01  0.63880133758E-01 -0.10288092039E+00  0.89170043821E+00  0.88000000000E+00 0. -1.
        -11    1    4    4    0    0  0.47158662397E-01 -0.33775330953E-01  0.33267070950E-01  0.66870558175E-01  0.51100000000E-03 0. -1.
         11    1    4    4    0    0  0.32398517104E-01 -0.23536546677E-01  0.46990145248E-01  0.61741135489E-01  0.51100000000E-03 0.  1.
</event>
<event>
 8    1  0.1111182E+005  0.1043930E+01  0.7957747E-01            NaN
         13   -1    0    0    0    0  0.00000000000E+00  0.00000000000E+00  0.74505805969E-08  0.10566000000E+00  0.10566000000E+00 0. -1.
     999900   -1    0    0    0    0 -0.00000000000E+00 -0.00000000000E+00 -0.74505805969E-08  0.93827000000E+00  0.93827000000E+00 0. -1.
     999902    2    1    2    0    0 -0.22678837656E-01  0.89986823391E-02 -0.42953372351E-02  0.10191559030E+01  0.10188547486E+01 0.  0.
     999903    2    3    3    0    0 -0.52832421859E-01  0.55468038315E-01  0.10419143966E+00  0.13076521165E+00  0.19383405412E-01 0.  0.
         14    1    1    2    0    0  0.22678837656E-01 -0.89986823391E-02  0.42953372351E-02  0.24774097021E-01  0.00000000000E+00 0.  1.
     999901    1    3    3    0    0  0.30153584203E-01 -0.46469355976E-01 -0.10848677689E+00  0.88839069133E+00  0.88000000000E+00 0. -1.
        -11    1    4    4    0    0 -0.33277219816E-01  0.23688558810E-01  0.63947432106E-01  0.75881857984E-01  0.51100000000E-03 0.  1.
         11    1    4    4    0    0 -0.19555202043E-01  0.31779479505E-01  0.40244007550E-01  0.54883353663E-01  0.51100000000E-03 0. -1.
</event>
<event>
 8    1  0.1111182E+005  0.1043930E+01  0.7957747E-01            NaN
         13   -1    0    0    0    0  0.00000000000E+00  0.00000000000E+00  0.74505805969E-08  0.10566000000E+00  0.10566000000E+00 0. -1.
     999900   -1    0    0    0    0 -0.00000000000E+00 -0.00000000000E+00 -0.74505805969E-08  0.93827000000E+00  0.93827000000E+00 0. -1.
     999902    2    1    2    0    0 -0.39605967780E-02 -0.21865698607E-01  0.94173398668E-02  0.10197953487E+01  0.10195097213E+01 0.  0.
     999903    2    3    3    0    0  0.39893732375E-01  0.76774319774E-01 -0.91858867325E-01  0.12743335627E+00  0.17759581231E-01 0.  0.
         14    1    1    2    0    0  0.39605967780E-02  0.21865698607E-01 -0.94173398668E-02  0.24134651284E-01  0.00000000000E+00 0.  1.
     999901    1    3    3    0    0 -0.43854329153E-01 -0.98640018381E-01  0.10127620719E+00  0.89236199244E+00  0.88000000000E+00 0.  1.
        -11    1    4    4    0    0  0.24149336537E-01  0.36567720434E-01 -0.35297473279E-01  0.56272207828E-01  0.51100000000E-03 0.  1.
         11    1    4    4    0    0  0.15744395838E-01  0.40206599340E-01 -0.56561394046E-01  0.71161148446E-01  0.51100000000E-03 0. -1.
</event>
<event>
 8    1  0.1111182E+005  0.1043930E+01  0.7957747E-01            NaN
         13   -1    0    0    0    0  0.00000000000E+00  0.00000000000E+00  0.74505805969E-08  0.10566000000E+00  0.10566000000E+00 0. -1.
     999900   -1    0    0    0    0 -0.00000000000E+00 -0.00000000000E+00 -0.74505805969E-08  0.93827000000E+00  0.93827000000E+00 0.  1.
     999902    2    1    2    0    0 -0.16737972544E-01 -0.15784384708E-01 -0.67626158461E-02  0.10199500188E+01  0.10196680839E+01 0.  0.
     999903    2    3    3    0    0  0.40210342812E-01 -0.82322135960E-01 -0.92151854538E-01  0.13148971859E+00  0.20094179781E-01 0.  0.
         14    1    1    2    0    0  0.16737972544E-01  0.15784384708E-01  0.67626158461E-02  0.23979981205E-01  0.00000000000E+00 0. -1.
     999901    1    3    3    0    0 -0.56948315357E-01  0.66537751252E-01  0.85389238691E-01  0.88846030021E+00  0.88000000000E+00 0. -1.
        -11    1    4    4    0    0  0.10978957559E-01 -0.40349843537E-01 -0.50188189893E-01  0.65328117287E-01  0.51100000000E-03 0. -1.
         11    1    4    4    0    0  0.29231385253E-01 -0.41972292423E-01 -0.41963664645E-01  0.66161601299E-01  0.51100000000E-03 0.  1.
</event>
<event>
 8    1  0.1111182E+005  0.1043930E+01  0.7957747E-01            NaN
         13   -1    0    0    0    0  0.00000000000E+00  0.00000000000E+00  0.74505805969E-08  0.10566000000E+00  0.10566000000E+00 0.  1.
     999900   -1    0    0    0    0 -0.00000000000E+00 -0.00000000000E+00 -0.74505805969E-08  0.93827000000E+00  0.93827000000E+00 0.  1.
     999902    2    1    2    0    0 -0.44530360192E-02 -0.21810167534E-01 -0.36560551141E-02  0.10213716384E+01  0.10211224922E+01 0.  0.
     999903    2    3    3    0    0 -0.63005401808E-02 -0.77353904422E-01  0.10592085589E+00  0.13283597826E+00  0.20071025684E-01 0.  0.
         14    1    1    2    0    0  0.44530360192E-02  0.21810167534E-01  0.36560551141E-02  0.22558361568E-01  0.00000000000E+00 0.  1.
     999901    1    3    3    0    0  0.18475041616E-02  0.55543736888E-01 -0.10957691100E+00  0.88853566018E+00  0.88000000000E+00 0.  1.
        -11    1    4    4    0    0  0.57658979844E-02 -0.35256019926E-01  0.39343805842E-01  0.53145354451E-01  0.51100000000E-03 0.  1.
         11    1    4    4    0    0 -0.12066438165E-01 -0.42097884495E-01  0.66577050043E-01  0.79690623805E-01  0.51100000000E-03 0. -1.
</event>
<event>
 8    1  0.1111182E+005  0.1043930E+01  0.7957747E-01            NaN
         13   -1    0    0    0    0  0.00000000000E+00  0.00000000000E+00  0.74505805969E-08  0.10566000000E+00  0.10566000000E+00 0. -1.
     999900   -1    0    0    0    0 -0.00000000000E+00 -0.00000000000E+00 -0.74505805969E-08  0.93827000000E+00  0.93827000000E+00 0. -1.
     999902    2    1    2    0    0  0.21922535200E-01 -0.54280829071E-02  0.67107679114E-02  0.10203695238E+01  0.10200974802E+01 0.  0.
     999903    2    3    3    0    0 -0.49800283643E-01 -0.10522768226E+00 -0.53370951449E-01  0.12980007911E+00  0.21134538431E-01 0.  0.
         14    1    1    2    0    0 -0.21922535200E-01  0.54280829071E-02 -0.67107679114E-02  0.23560476218E-01  0.00000000000E+00 0.  1.
     999901    1    3    3    0    0  0.71722818843E-01  0.99799599353E-01  0.60081719361E-01  0.89056944467E+00  0.88000000000E+00 0. -1.
        -11    1    4    4    0    0 -0.12320952249E-01 -0.44601728275E-01 -0.28296386939E-01  0.54240821013E-01  0.51100000000E-03 0. -1.
         11    1    4    4    0    0 -0.37479331394E-01 -0.60625953986E-01 -0.25074564511E-01  0.75559258101E-01  0.51100000000E-03 0.  1.
</event>
<event>
 8    1  0.1111182E+005  0.1043930E+01  0.7957747E-01            NaN
         13   -1    0    0    0    0  0.00000000000E+00  0.00000000000E+00  0.74505805969E-08  0.10566000000E+00  0.10566000000E+00 0. -1.
     999900   -1    0    0    0    0 -0.00000000000E+00 -0.00000000000E+00 -0.74505805969E-08  0.93827000000E+00  0.93827000000E+00 0.  1.
     999902    2    1    2    0    0  0.15340912886E-01 -0.16632403928E-01  0.66391156574E-02  0.10203491110E+01  0.10200765903E+01 0.  0.
     999903    2    3    3    0    0 -0.10084363869E+00 -0.74474247550E-01 -0.28553455635E-01  0.13013394266E+00  0.20092042972E-01 0.  0.
         14    1    1    2    0    0 -0.15340912886E-01  0.16632403928E-01 -0.66391156574E-02  0.23580888985E-01  0.00000000000E+00 0. -1.
     999901    1    3    3    0    0  0.11618455158E+00  0.57841843621E-01  0.35192571292E-01  0.89021516836E+00  0.88000000000E+00 0. -1.
        -11    1    4    4    0    0 -0.84477870558E-01 -0.64021425483E-01 -0.31282357741E-01  0.11051742198E+00  0.51100000000E-03 0.  1.
         11    1    4    4    0    0 -0.16365768132E-01 -0.10452822067E-01  0.27289021060E-02  0.19616520676E-01  0.51100000000E-03 0. -1.
</event>
<event>
 8    1  0.1111182E+005  0.1043930E+01  0.7957747E-01            NaN
         13   -1    0    0    0    0  0.00000000000E+00  0.00000000000E+00  0.74505805969E-08  0.10566000000E+00  0.10566000000E+00 0. -1.
     999900   -1    0    0    0    0 -0.00000000000E+00 -0.00000000000E+00 -0.74505805969E-08  0.93827000000E+00  0.93827000000E+00 0.  1.
     999902    2    1    2    0    0 -0.10057016343E-01 -0.11473693422E-02 -0.21013319050E-01  0.10206057720E+01  0.10203392192E+01 0.  0.
     999903    2    3    3    0    0 -0.20203228159E-01 -0.98087899718E-01 -0.84993889979E-01  0.13291555267E+00  0.20326738763E-01 0.  0.
         14    1    1    2    0    0  0.10057016343E-01  0.11473693422E-02  0.21013319050E-01  0.23324227997E-01  0.00000000000E+00 0. -1.
     999901    1    3    3    0    0  0.10146211816E-01  0.96940530376E-01  0.63980570928E-01  0.88769021933E+00  0.88000000000E+00 0. -1.
        -11    1    4    4    0    0  0.10908601091E-02 -0.52085577731E-03 -0.43840124362E-02  0.45762378172E-02  0.51100000000E-03 0. -1.
         11    1    4    4    0    0 -0.21294088268E-01 -0.97567043941E-01 -0.80609877542E-01  0.12833931485E+00  0.51100000000E-03 0.  1.
</event>
<event>
 8    1  0.1111182E+005  0.1043930E+01  0.7957747E-01            NaN
         13   -1    0    0    0    0  0.00000000000E+00  0.00000000000E+00  0.74505805969E-08  0.10566000000E+00  0.10566000000E+00 0.  1.
     999900   -1    0    0    0    0 -0.00000000000E+00 -0.00000000000E+00 -0.74505805969E-08  0.93827000000E+00  0.93827000000E+00 0.  1.
     999902    2    1    2    0    0 -0.22096283613E-01  0.84972343893E-02 -0.13714155346E-02  0.10202165118E+01  0.10199408813E+01 0.  0.
     999903    2    3    3    0    0  0.12032542421E+00  0.17545991344E-01  0.34439354396E-01  0.12800115994E+00  0.20301681974E-01 0.  0.
         14    1    1    2    0    0  0.22096283613E-01 -0.84972343893E-02  0.13714155346E-02  0.23713488194E-01  0.00000000000E+00 0.  1.
     999901    1    3    3    0    0 -0.14242170782E+00 -0.90487569551E-02 -0.35810769931E-01  0.89221535187E+00  0.88000000000E+00 0.  1.
        -11    1    4    4    0    0  0.73162428076E-01  0.20587000089E-01  0.22100704727E-01  0.79153444177E-01  0.51100000000E-03 0.  1.
         11    1    4    4    0    0  0.47162996135E-01 -0.30410087446E-02  0.12338649670E-01  0.48847715764E-01  0.51100000000E-03 0. -1.
</event>
<event>
 8    1  0.1111182E+005  0.1043930E+01  0.7957747E-01            NaN
         13   -1    0    0    0    0  0.00000000000E+00  0.00000000000E+00  0.74505805969E-08  0.10566000000E+00  0.10566000000E+00 0. -1.
     999900   -1    0    0    0    0 -0.00000000000E+00 -0.00000000000E+00 -0.74505805969E-08  0.93827000000E+00  0.93827000000E+00 0.  1.
     999902    2    1    2    0    0 -0.12874859614E-01 -0.23073528207E-02  0.19830116009E-01  0.10201745924E+01  0.10198979751E+01 0.  0.
     999903    2    3    3    0    0  0.66216465747E-02  0.21397823023E-01 -0.12442032897E+00  0.12790207802E+00  0.19411601382E-01 0.  0.
         14    1    1    2    0    0  0.12874859614E-01  0.23073528207E-02 -0.19830116009E-01  0.23755407554E-01  0.00000000000E+00 0. -1.
     999901    1    3    3    0    0 -0.19496506188E-01 -0.23705175844E-01  0.14425044498E+00  0.89227251442E+00  0.88000000000E+00 0. -1.
        -11    1    4    4    0    0  0.10337616162E-01  0.30108373531E-02 -0.40575957108E-01  0.41983340336E-01  0.51100000000E-03 0. -1.
         11    1    4    4    0    0 -0.37159695868E-02  0.18386985670E-01 -0.83844371863E-01  0.85918737689E-01  0.51100000000E-03 0.  1.
</event>
<event>
 8    1  0.1111182E+005  0.1043930E+01  0.7957747E-01            NaN
         13   -1    0    0    0    0  0.00000000000E+00  0.00000000000E+00  0.74505805969E-08  0.10566000000E+00  0.10566000000E+00 0.  1.
     999900   -1    0    0    0    0 -0.00000000000E+00 -0.00000000000E+00 -0.74505805969E-08  0.93827000000E+00  0.93827000000E+00 0. -1.
     999902    2    1    2    0    0 -0.22184770252E-01  0.75793607998E-02  0.32781716987E-02  0.10202581359E+01  0.10199834835E+01 0.  0.
     999903    2    3    3    0    0  0.45938146765E-01  0.12023184638E+00  0.79078527598E-02  0.13045324250E+00  0.19735859043E-01 0.  0.
         14    1    1    2    0    0  0.22184770252E-01 -0.75793607998E-02 -0.32781716987E-02  0.23671864120E-01  0.00000000000E+00 0. -1.
     999901    1    3    3    0    0 -0.68122917017E-01 -0.11265248558E+00 -0.46296810611E-02  0.88980489338E+00  0.88000000000E+00 0. -1.
        -11    1    4    4    0    0  0.18549182981E-01  0.72357539166E-01  0.93153936971E-02  0.75277641728E-01  0.51100000000E-03 0.  1.
         11    1    4    4    0    0  0.27388963784E-01  0.47874307213E-01 -0.14075409374E-02  0.55175600775E-01  0.51100000000E-03 0. -1.
</event>
<event>
 8    1  0.1111182E+005  0.1043930E+01  0.7957747E-01            NaN
         13   -1    0    0    0    0  0.00000000000E+00  0.00000000000E+00  0.74505805969E-08  0.10566000000E+00  0.10566000000E+00 0.  1.
     999900   -1    0    0    0    0 -0.00000000000E+00 -0.00000000000E+00 -0.74505805969E-08  0.93827000000E+00  0.93827000000E+00 0.  1.
     999902    2    1    2    0    0  0.12922523334E-03  0.18657759295E-01 -0.98914512597E-02  0.10228120103E+01  0.10225939756E+01 0.  0.
     999903    2    3    3    0    0 -0.93757352932E-01 -0.40745892627E-01 -0.82358422101E-01  0.13287103176E+00  0.20521510538E-01 0.  0.
         14    1    1    2    0    0 -0.12922523334E-03 -0.18657759295E-01  0.98914512597E-02  0.21117989703E-01  0.00000000000E+00 0.  1.
     999901    1    3    3    0    0  0.93886578165E-01  0.59403651921E-01  0.72466970841E-01  0.88994097854E+00  0.88000000000E+00 0. -1.
        -11    1    4    4    0    0 -0.73335278882E-01 -0.24116644342E-01 -0.54292667159E-01  0.94380244179E-01  0.51100000000E-03 0. -1.
         11    1    4    4    0    0 -0.20422074050E-01 -0.16629248284E-01 -0.28065754941E-01  0.38490787579E-01  0.51100000000E-03 0.  1.
</event>
<event>
 8    1  0.1111182E+005  0.1043930E+01  0.7957747E-01            NaN
         13   -1    0    0    0    0  0.00000000000E+00  0.00000000000E+00  0.74505805969E-08  0.10566000000E+00  0.10566000000E+00 0. -1.
     999900   -1    0    0    0    0 -0.00000000000E+00 -0.00000000000E+00 -0.74505805969E-08  0.93827000000E+00  0.93827000000E+00 0.  1.
     999902    2    1    2    0    0  0.67381244551E-02  0.21106264752E-01 -0.88535101669E-02  0.10200708010E+01  0.10197917325E+01 0.  0.
     999903    2    3    3    0    0  0.29256824922E-01  0.72543773618E-01  0.10343606018E+00  0.13116031241E+00  0.19632832451E-01 0.  0.
         14    1    1    2    0    0 -0.67381244551E-02 -0.21106264752E-01  0.88535101669E-02  0.23859198965E-01  0.00000000000E+00 0. -1.
     999901    1    3    3    0    0 -0.22518700467E-01 -0.51437508866E-01 -0.11228957034E+00  0.88891048863E+00  0.88000000000E+00 0. -1.
        -11    1    4    4    0    0  0.11361660000E-01  0.27175423410E-01  0.24237524521E-01  0.38148521222E-01  0.51100000000E-03 0.  1.
         11    1    4    4    0    0  0.17895164922E-01  0.45368350207E-01  0.79198535656E-01  0.93011791183E-01  0.51100000000E-03 0. -1.
</event>
<event>
 8    1  0.1111182E+005  0.1043930E+01  0.7957747E-01            NaN
         13   -1    0    0    0    0  0.00000000000E+00  0.00000000000E+00  0.74505805969E-08  0.10566000000E+00  0.10566000000E+00 0.  1.
     999900   -1    0    0    0    0 -0.00000000000E+00 -0.00000000000E+00 -0.74505805969E-08  0.93827000000E+00  0.93827000000E+00 0. -1.
     999902    2    1    2    0    0  0.10250093135E-01 -0.17052337413E-01  0.13146042304E-01  0.10200833011E+01  0.10198045284E+01 0.  0.
     999903    2    3    3    0    0 -0.58011584637E-01 -0.11512218973E+00  0.22075543074E-01  0.13196332689E+00  0.17564951530E-01 0.  0.
         14    1    1    2    0    0 -0.10250093135E-01  0.17052337413E-01 -0.13146042304E-01  0.23846698907E-01  0.00000000000E+00 0. -1.
     999901    1    3    3    0    0  0.68261677772E-01  0.98069852319E-01 -0.89295007702E-02  0.88811997420E+00  0.88000000000E+00 0. -1.
        -11    1    4    4    0    0 -0.47544876486E-01 -0.77387398068E-01  0.17948205681E-01  0.92583604747E-01  0.51100000000E-03 0. -1.
         11    1    4    4    0    0 -0.10466708151E-01 -0.37734791664E-01  0.41273373927E-02  0.39379722147E-01  0.51100000000E-03 0.  1.
</event>
<event>
 8    1  0.1111182E+005  0.1043930E+01  0.7957747E-01            NaN
         13   -1    0    0    0    0  0.00000000000E+00  0.00000000000E+00  0.74505805969E-08  0.10566000000E+00  0.10566000000E+00 0.  1.
     999900   -1    0    0    0    0 -0.00000000000E+00 -0.00000000000E+00 -0.74505805969E-08  0.93827000000E+00  0.93827000000E+00 0. -1.
     999902    2    1    2    0    0 -0.37935065833E-04 -0.13944440880E-01  0.20710605298E-01  0.10189624602E+01  0.10186565257E+01 0.  0.
     999903    2    3    3    0    0 -0.55894656237E-01  0.41991170026E-01 -0.10512854250E+00  0.12650279336E+00  0.79671402647E-02 0.  0.
         14    1    1    2    0    0  0.37935065833E-04  0.13944440880E-01 -0.20710605298E-01  0.24967539773E-01  0.00000000000E+00 0. -1.
     999901    1    3    3    0    0  0.55856721172E-01 -0.55935610906E-01  0.12583914780E+00  0.89245966687E+00  0.88000000000E+00 0.  1.
        -11    1    4    4    0    0 -0.24084188242E-01  0.19126158664E-01 -0.53205119248E-01  0.61456520432E-01  0.51100000000E-03 0. -1.
         11    1    4    4    0    0 -0.31810467996E-01  0.22865011363E-01 -0.51923423250E-01  0.65046272927E-01  0.51100000000E-03 0.  1.
</event>
<event>
 8    1  0.1111182E+005  0.1043930E+01  0.7957747E-01            NaN
         13   -1    0    0    0    0  0.00000000000E+00  0.00000000000E+00  0.74505805969E-08  0.10566000000E+00  0.10566000000E+00 0.  1.
     999900   -1    0    0    0    0 -0.00000000000E+00 -0.00000000000E+00 -0.74505805969E-08  0.93827000000E+00  0.93827000000E+00 0.  1.
     999902    2    1    2    0    0  0.90533830060E-02 -0.20542538556E-01 -0.79458182962E-02  0.10201162296E+01  0.10198382353E+01 0.  0.
     999903    2    3    3    0    0  0.51392535154E-02  0.46149173106E-01 -0.12032266960E+00  0.13045805839E+00  0.19636753181E-01 0.  0.
         14    1    1    2    0    0 -0.90533830060E-02  0.20542538556E-01  0.79458182962E-02  0.23813770440E-01  0.00000000000E+00 0.  1.
     999901    1    3    3    0    0  0.39141294907E-02 -0.66691711661E-01  0.11237685130E+00  0.88965817117E+00  0.88000000000E+00 0.  1.
        -11    1    4    4    0    0 -0.74714518758E-02  0.15524798148E-01 -0.38307007494E-01  0.42006307798E-01  0.51100000000E-03 0. -1.
         11    1    4    4    0    0  0.12610705391E-01  0.30624374957E-01 -0.82015662105E-01  0.88451750596E-01  0.51100000000E-03 0.  1.
</event>
<event>
 8    1  0.1111182E+005  0.1043930E+01  0.7957747E-01            NaN
         13   -1    0    0    0    0  0.00000000000E+00  0.00000000000E+00  0.74505805969E-08  0.10566000000E+00  0.10566000000E+00 0. -1.
     999900   -1    0    0    0    0 -0.00000000000E+00 -0.00000000000E+00 -0.74505805969E-08  0.93827000000E+00  0.93827000000E+00 0.  1.
     999902    2    1    2    0    0 -0.46598502098E-02 -0.13908522587E-01  0.18095823574E-01  0.10206357940E+01  0.10203699348E+01 0.  0.
     999903    2    3    3    0    0  0.59411515743E-01 -0.86233875950E-01  0.79863796521E-01  0.13319487809E+00  0.19915822583E-01 0.  0.
         14    1    1    2    0    0  0.46598502098E-02  0.13908522587E-01 -0.18095823574E-01  0.23294206047E-01  0.00000000000E+00 0. -1.
     999901    1    3    3    0    0 -0.64071365953E-01  0.72325353363E-01 -0.61767972947E-01  0.88744091587E+00  0.88000000000E+00 0. -1.
        -11    1    4    4    0    0  0.51397654033E-01 -0.59396064998E-01  0.57380732861E-01  0.97274976238E-01  0.51100000000E-03 0. -1.
         11    1    4    4    0    0  0.80138617097E-02 -0.26837810952E-01  0.22483063659E-01  0.35919901847E-01  0.51100000000E-03 0.  1.
</event>
<event>
 8    1  0.1111182E+005  0.1043930E+01  0.7957747E-01            NaN
         13   -1    0    0    0    0  0.00000000000E+00  0.00000000000E+00  0.74505805969E-08  0.10566000000E+00  0.10566000000E+00 0.  1.
     999900   -1    0    0    0    0 -0.00000000000E+00 -0.00000000000E+00 -0.74505805969E-08  0.93827000000E+00  0.93827000000E+00 0.  1.
     999902    2    1    2    0    0 -0.12085852026E-02  0.86907227609E-02  0.21838900843E-01  0.10203943477E+01  0.10201228837E+01 0.  0.
     999903    2    3    3    0    0  0.99236933078E-01  0.25019364344E-01 -0.77099584072E-01  0.12902195048E+00  0.15112258717E-01 0.  0.
         14    1    1    2    0    0  0.12085852026E-02 -0.86907227609E-02 -0.21838900843E-01  0.23535652325E-01  0.00000000000E+00 0. -1.
     999901    1    3    3    0    0 -0.10044551828E+00 -0.16328641583E-01  0.98938484915E-01  0.89137239719E+00  0.88000000000E+00 0. -1.
        -11    1    4    4    0    0  0.70027367379E-01  0.19923671911E-01 -0.62562629512E-01  0.95995461439E-01  0.51100000000E-03 0. -1.
         11    1    4    4    0    0  0.29209565700E-01  0.50956924328E-02 -0.14536954560E-01  0.33026489045E-01  0.51100000000E-03 0.  1.
</event>
<event>
 8    1  0.1111182E+005  0.1043930E+01  0.7957747E-01            NaN
         13   -1    0    0    0    0  0.00000000000E+00  0.00000000000E+00  0.74505805969E-08  0.10566000000E+00  0.10566000000E+00 0. -1.
     999900   -1    0    0    0    0 -0.00000000000E+00 -0.00000000000E+00 -0.74505805969E-08  0.93827000000E+00  0.93827000000E+00 0. -1.
     999902    2    1    2    0    0 -0.20005209708E-01  0.45750951373E-02  0.10214610543E-01  0.10210066892E+01  0.10207493234E+01 0.  0.
     999903    2    3    3    0    0  0.16261683889E-01  0.12555942914E+00  0.30839734661E-01  0.13174975645E+00  0.19424121086E-01 0.  0.
         14    1    1    2    0    0  0.20005209708E-01 -0.45750951373E-02 -0.10214610543E-01  0.22923310833E-01  0.00000000000E+00 0.  1.
     999901    1    3    3    0    0 -0.36266893598E-01 -0.12098433401E+00 -0.20625124118E-01  0.88925693272E+00  0.88000000000E+00 0. -1.
        -11    1    4    4    0    0  0.83382353740E-02  0.59902454769E-01  0.47987114116E-02  0.60672226008E-01  0.51100000000E-03 0.  1.
         11    1    4    4    0    0  0.79234485155E-02  0.65656974375E-01  0.26041023250E-01  0.71077530439E-01  0.51100000000E-03 0. -1.
</event>
<event>
 8    1  0.1111182E+005  0.1043930E+01  0.7957747E-01            NaN
         13   -1    0    0    0    0  0.00000000000E+00  0.00000000000E+00  0.74505805969E-08  0.10566000000E+00  0.10566000000E+00 0.  1.
     999900   -1    0    0    0    0 -0.00000000000E+00 -0.00000000000E+00 -0.74505805969E-08  0.93827000000E+00  0.93827000000E+00 0.  1.
     999902    2    1    2    0    0 -0.37487653550E-02  0.22425784798E-01  0.51795912975E-02  0.10206105396E+01  0.10203440971E+01 0.  0.
     999903    2    3    3    0    0 -0.82401309686E-01  0.43052199785E-01 -0.90974740444E-01  0.13164635181E+00  0.20270441601E-01 0.  0.
         14    1    1    2    0    0  0.37487653550E-02 -0.22425784798E-01 -0.51795912975E-02  0.23319460360E-01  0.00000000000E+00 0.  1.
     999901    1    3    3    0    0  0.78652544331E-01 -0.20626414988E-01  0.96154331742E-01  0.88896418783E+00  0.88000000000E+00 0. -1.
        -11    1    4    4    0    0 -0.58302173164E-01  0.36925475983E-01 -0.75801660770E-01  0.10251237520E+00  0.51100000000E-03 0. -1.
         11    1    4    4    0    0 -0.24099136522E-01  0.61267238023E-02 -0.15173079674E-01  0.29133976616E-01  0.51100000000E-03 0.  1.
</event>
<event>
 8    1  0.1111182E+005  0.1043930E+01  0.7957747E-01            NaN
         13   -1    0    0    0    0  0.00000000000E+00  0.00000000000E+00  0.74505805969E-08  0.10566000000E+00  0.10566000000E+00 0. -1.
     999900   -1    0    0    0    0 -0.00000000000E+00 -0.00000000000E+00 -0.74505805969E-08  0.93827000000E+00  0.93827000000E+00 0.  1.
     999902    2    1    2    0    0  0.26809493726E-02  0.10993359862E-01 -0.20878663524E-01  0.10201821571E+01  0.10199057180E+01 0.  0.
     999903    2    3    3    0    0 -0.43834990457E-01  0.12221563790E+00  0.48182821050E-02  0.13159087830E+00  0.20851255966E-01 0.  0.
         14    1    1    2    0    0 -0.26809493726E-02 -0.10993359862E-01  0.20878663524E-01  0.23747842873E-01  0.00000000000E+00 0.  1.
     999901    1    3    3    0    0  0.46515939830E-01 -0.11122227803E+00 -0.25696945629E-01  0.88859127882E+00  0.88000000000E+00 0. -1.
        -11    1    4    4    0    0 -0.21305383735E-01  0.33415746603E-01 -0.23006295811E-02  0.39699943509E-01  0.51100000000E-03 0. -1.
         11    1    4    4    0    0 -0.22529606722E-01  0.88799891292E-01  0.71189116861E-02  0.91890934793E-01  0.51100000000E-03 0.  1.
</event>
<event>
 8    1  0.1111182E+005  0.1043930E+01  0.7957747E-01            NaN
         13   -1    0    0    0    0  0.00000000000E+00  0.00000000000E+00  0.74505805969E-08  0.10566000000E+00  0.10566000000E+00 0.  1.
     999900   -1    0    0    0    0 -0.00000000000E+00 -0.00000000000E+00 -0.74505805969E-08  0.93827000000E+00  0.93827000000E+00 0. -1.
     999902    2    1    2    0    0 -0.44625022977E-02  0.19822013874E-01 -0.11178140165E-01  0.10207399811E+01  0.10204765220E+01 0.  0.
     999903    2    3    3    0    0  0.12488070917E+00 -0.17086708383E-01 -0.26614637098E-01  0.13038600338E+00  0.20125204185E-01 0.  0.
         14    1    1    2    0    0  0.44625022977E-02 -0.19822013874E-01  0.11178140165E-01  0.23190018938E-01  0.00000000000E+00 0.  1.
     999901    1    3    3    0    0 -0.12934321147E+00  0.36908722257E-01  0.15436496933E-01  0.89035397768E+00  0.88000000000E+00 0.  1.
        -11    1    4    4    0    0  0.77871482724E-01 -0.99678912069E-02 -0.26429111529E-01  0.82837707199E-01  0.51100000000E-03 0.  1.
         11    1    4    4    0    0  0.47009226449E-01 -0.71188171760E-02 -0.18552556977E-03  0.47548296184E-01  0.51100000000E-03 0. -1.
</event>
<event>
 8    1  0.1111182E+005  0.1043930E+01  0.7957747E-01            NaN
         13   -1    0    0    0    0  0.00000000000E+00  0.00000000000E+00  0.74505805969E-08  0.10566000000E+00  0.10566000000E+00 0. -1.
     999900   -1    0    0    0    0 -0.00000000000E+00 -0.00000000000E+00 -0.74505805969E-08  0.93827000000E+00  0.93827000000E+00 0.  1.
     999902    2    1    2    0    0 -0.22855816477E-01  0.66013092006E-02  0.16474333655E-02  0.10200829946E+01  0.10198042146E+01 0.  0.
     999903    2    3    3    0    0 -0.93987026160E-01  0.64938386306E-01  0.65064080290E-01  0.13301787035E+00  0.20245102737E-01 0.  0.
         14    1    1    2    0    0  0.22855816477E-01 -0.66013092006E-02 -0.16474333655E-02  0.23847005403E-01  0.00000000000E+00 0.  1.
     999901    1    3    3    0    0  0.71131209683E-01 -0.58337077106E-01 -0.63416646924E-01  0.88706512425E+00  0.88000000000E+00 0.  1.
        -11    1    4    4    0    0 -0.73871914775E-01  0.58081784345E-01  0.58816140822E-01  0.11086096250E+00  0.51100000000E-03 0. -1.
         11    1    4    4    0    0 -0.20115111385E-01  0.68566019616E-02  0.62479394678E-02  0.22156907841E-01  0.51100000000E-03 0.  1.
</event>
<event>
 8    1  0.1111182E+005  0.1043930E+01  0.7957747E-01            NaN
         13   -1    0    0    0    0  0.00000000000E+00  0.00000000000E+00  0.74505805969E-08  0.10566000000E+00  0.10566000000E+00 0. -1.
     999900   -1    0    0    0    0 -0.00000000000E+00 -0.00000000000E+00 -0.74505805969E-08  0.93827000000E+00  0.93827000000E+00 0.  1.
     999902    2    1    2    0    0  0.10005369323E-01  0.22221717383E-01 -0.33850564097E-02  0.10193257169E+01  0.10190287270E+01 0.  0.
     999903    2    3    3    0    0  0.12173862322E+00 -0.25803684579E-01  0.32751813410E-01  0.13022694141E+00  0.20006310674E-01 0.  0.
         14    1    1    2    0    0 -0.10005369323E-01 -0.22221717383E-01  0.33850564097E-02  0.24604283075E-01  0.00000000000E+00 0.  1.
     999901    1    3    3    0    0 -0.11173325390E+00  0.48025401962E-01 -0.36136869820E-01  0.88909877551E+00  0.88000000000E+00 0.  1.
        -11    1    4    4    0    0  0.30238169281E-01 -0.85613508550E-02  0.17185673596E-01  0.35822508397E-01  0.51100000000E-03 0. -1.
         11    1    4    4    0    0  0.91500453938E-01 -0.17242333724E-01  0.15566139814E-01  0.94404433014E-01  0.51100000000E-03 0.  1.
</event>
<event>
 8    1  0.1111182E+005  0.1043930E+01  0.7957747E-01            NaN
         13   -1    0    0    0    0  0.00000000000E+00  0.00000000000E+00  0.74505805969E-08  0.10566000000E+00  0.10566000000E+00 0. -1.
     999900   -1    0    0    0    0 -0.00000000000E+00 -0.00000000000E+00 -0.74505805969E-08  0.93827000000E+00  0.93827000000E+00 0.  1.
     999902    2    1    2    0    0  0.43390186904E-02 -0.10104050559E-01 -0.21390732942E-01  0.10198783394E+01  0.10195946964E+01 0.  0.
     999903    2    3    3    0    0  0.12432757934E+00  0.30757919551E-01 -0.19071021128E-01  0.13079322744E+00  0.18432794027E-01 0.  0.
         14    1    1    2    0    0 -0.43390186904E-02  0.10104050559E-01  0.21390732942E-01  0.24051660581E-01  0.00000000000E+00 0. -1.
     999901    1    3    3    0    0 -0.11998856065E+00 -0.40861970110E-01 -0.23197118133E-02  0.88908511198E+00  0.88000000000E+00 0. -1.
        -11    1    4    4    0    0  0.29160990684E-01  0.85564020297E-02  0.32048678066E-02  0.30563175425E-01  0.51100000000E-03 0.  1.
         11    1    4    4    0    0  0.95166588659E-01  0.22201517521E-01 -0.22275888935E-01  0.10023005201E+00  0.51100000000E-03 0. -1.
</event>
<event>
 7    1  0.1629477E+005  0.1043930E+01  0.7957747E-01            NaN
         13   -1    0    0    0    0  0.00000000000E+00  0.00000000000E+00  0.74505805969E-08  0.10566000000E+00  0.10566000000E+00 0. -1.
     999900   -1    0    0    0    0 -0.00000000000E+00 -0.00000000000E+00 -0.74505805969E-08  0.93827000000E+00  0.93827000000E+00 0. -1.
     999903    2    1    2    0    0  0.94599857711E-01 -0.16630322382E-01  0.26865283417E-01  0.10186365589E+00  0.20706526411E-01 0.  0.
         14    1    1    2    0    0  0.35977039042E-01 -0.13862551589E-01  0.31800495798E-01  0.49977887188E-01  0.00000000000E+00 0. -1.
     999901    1    1    2    0    0 -0.13057689675E+00  0.30492873971E-01 -0.58665779214E-01  0.89208845693E+00  0.88000000000E+00 0. -1.
        -11    1    3    3    0    0  0.45939033839E-01 -0.38597739179E-02  0.22675243288E-01  0.51378210011E-01  0.51100000000E-03 0. -1.
         11    1    3    3    0    0  0.48660823873E-01 -0.12770548465E-01  0.41900401291E-02  0.50485445876E-01  0.51100000000E-03 0.  1.
</event>
<event>
 8    1  0.1111182E+005  0.1043930E+01  0.7957747E-01            NaN
         13   -1    0    0    0    0  0.00000000000E+00  0.00000000000E+00  0.74505805969E-08  0.10566000000E+00  0.10566000000E+00 0. -1.
     999900   -1    0    0    0    0 -0.00000000000E+00 -0.00000000000E+00 -0.74505805969E-08  0.93827000000E+00  0.93827000000E+00 0. -1.
     999902    2    1    2    0    0 -0.17686043308E-01 -0.13058726597E-01  0.70660184864E-02  0.10208376834E+01  0.10205764649E+01 0.  0.
     999903    2    3    3    0    0  0.12655339833E+00 -0.13875484344E-01  0.76081230693E-02  0.12909445944E+00  0.19980095781E-01 0.  0.
         14    1    1    2    0    0  0.17686043308E-01  0.13058726597E-01 -0.70660184864E-02  0.23092316590E-01  0.00000000000E+00 0.  1.
     999901    1    3    3    0    0 -0.14423944164E+00  0.81675774700E-03 -0.54210458288E-03  0.89174322397E+00  0.88000000000E+00 0.  1.
        -11    1    4    4    0    0  0.35855335497E-01  0.12462023648E-02  0.95238461739E-02  0.37123077336E-01  0.51100000000E-03 0.  1.
         11    1    4    4    0    0  0.90698062832E-01 -0.15121686709E-01 -0.19157231047E-02  0.91971382106E-01  0.51100000000E-03 0. -1.
</event>
<event>
 8    1  0.1111182E+005  0.1043930E+01  0.7957747E-01            NaN
         13   -1    0    0    0    0  0.00000000000E+00  0.00000000000E+00  0.74505805969E-08  0.10566000000E+00  0.10566000000E+00 0.  1.
     999900   -1    0    0    0    0 -0.00000000000E+00 -0.00000000000E+00 -0.74505805969E-08  0.93827000000E+00  0.93827000000E+00 0. -1.
     999902    2    1    2    0    0  0.76790518721E-02 -0.56142187139E-02 -0.21865738791E-01  0.10200847107E+01  0.10198059713E+01 0.  0.
     999903    2    3    3    0    0  0.10210787082E+00 -0.24419396894E-01  0.74203591136E-01  0.12963552476E+00  0.16639474559E-01 0.  0.
         14    1    1    2    0    0 -0.76790518721E-02  0.56142187139E-02  0.21865738791E-01  0.23845289311E-01  0.00000000000E+00 0.  1.
     999901    1    3    3    0    0 -0.94428818948E-01  0.18805178180E-01 -0.96069329927E-01  0.89044918593E+00  0.88000000000E+00 0.  1.
        -11    1    4    4    0    0  0.35229433583E-01 -0.59601910180E-02  0.16341128660E-01  0.39292880709E-01  0.51100000000E-03 0. -1.
         11    1    4    4    0    0  0.66878437237E-01 -0.18459205876E-01  0.57862462476E-01  0.90342644048E-01  0.51100000000E-03 0.  1.
</event>
<event>
 8    1  0.1111182E+005  0.1043930E+01  0.7957747E-01            NaN
         13   -1    0    0    0    0  0.00000000000E+00  0.00000000000E+00  0.74505805969E-08  0.10566000000E+00  0.10566000000E+00 0. -1.
     999900   -1    0    0    0    0 -0.00000000000E+00 -0.00000000000E+00 -0.74505805969E-08  0.93827000000E+00  0.93827000000E+00 0.  1.
     999902    2    1    2    0    0  0.17936168098E-02  0.77759243783E-02  0.21946172107E-01  0.10205779866E+01  0.10203107910E+01 0.  0.
     999903    2    3    3    0    0  0.80922916892E-01 -0.72383522327E-01 -0.66804941900E-01  0.12897059356E+00  0.19560699331E-01 0.  0.
         14    1    1    2    0    0 -0.17936168098E-02 -0.77759243783E-02 -0.21946172107E-01  0.23352013432E-01  0.00000000000E+00 0.  1.
     999901    1    3    3    0    0 -0.79129300083E-01  0.80159446705E-01  0.88751114007E-01  0.89160739301E+00  0.88000000000E+00 0. -1.
        -11    1    4    4    0    0  0.54329578593E-01 -0.60003662524E-01 -0.47588557308E-01  0.93899278666E-01  0.51100000000E-03 0.  1.
         11    1    4    4    0    0  0.26593338299E-01 -0.12379859803E-01 -0.19216384593E-01  0.35071314895E-01  0.51100000000E-03 0. -1.
</event>
<event>
 8    1  0.1111182E+005  0.1043930E+01  0.7957747E-01            NaN
         13   -1    0    0    0    0  0.00000000000E+00  0.00000000000E+00  0.74505805969E-08  0.10566000000E+00  0.10566000000E+00 0. -1.
     999900   -1    0    0    0    0 -0.00000000000E+00 -0.00000000000E+00 -0.74505805969E-08  0.93827000000E+00  0.93827000000E+00 0. -1.
     999902    2    1    2    0    0 -0.22530744562E-01 -0.10511442070E-02  0.84285927597E-02  0.10198513678E+01  0.10195670806E+01 0.  0.
     999903    2    3    3    0    0  0.78589182295E-01  0.34821949241E-01  0.94271887266E-01  0.12918802527E+00  0.20335422839E-01 0.  0.
         14    1    1    2    0    0  0.22530744562E-01  0.10511442070E-02 -0.84285927597E-02  0.24078632240E-01  0.00000000000E+00 0.  1.
     999901    1    3    3    0    0 -0.10111992686E+00 -0.35873093448E-01 -0.85843294507E-01  0.89066334249E+00  0.88000000000E+00 0. -1.
        -11    1    4    4    0    0  0.39824972557E-01  0.13468822733E-01  0.32224443457E-01  0.52972761889E-01  0.51100000000E-03 0. -1.
         11    1    4    4    0    0  0.38764209738E-01  0.21353126508E-01  0.62047443809E-01  0.76215263383E-01  0.51100000000E-03 0.  1.
</event>
<event>
 8    1  0.1111182E+005  0.1043930E+01  0.7957747E-01            NaN
         13   -1    0    0    0    0  0.00000000000E+00  0.00000000000E+00  0.74505805969E-08  0.10566000000E+00  0.10566000000E+00 0.  1.
     999900   -1    0    0    0    0 -0.00000000000E+00 -0.00000000000E+00 -0.74505805969E-08  0.93827000000E+00  0.93827000000E+00 0.  1.
     999902    2    1    2    0    0 -0.17015924370E-01 -0.14289082337E-01  0.69449767799E-02  0.10206501319E+01  0.10203846037E+01 0.  0.
     999903    2    3    3    0    0  0.12302806139E+00  0.30992164234E-01  0.43765652025E-02  0.12842297138E+00  0.19413580825E-01 0.  0.
         14    1    1    2    0    0  0.17015924370E-01  0.14289082337E-01 -0.69449767799E-02  0.23279868099E-01  0.00000000000E+00 0. -1.
     999901    1    3    3    0    0 -0.14004398576E+00 -0.45281246571E-01  0.25684115774E-02  0.89222716052E+00  0.88000000000E+00 0.  1.
        -11    1    4    4    0    0  0.98551541222E-01  0.17610215879E-01 -0.41089139213E-03  0.10011471387E+00  0.51100000000E-03 0.  1.
         11    1    4    4    0    0  0.24476520170E-01  0.13381948355E-01  0.47874565946E-02  0.28308257507E-01  0.51100000000E-03 0. -1.
</event>
<event>
 8    1  0.1111182E+005  0.1043930E+01  0.7957747E-01            NaN
         13   -1    0    0    0    0  0.00000000000E+00  0.00000000000E+00  0.74505805969E-08  0.10566000000E+00  0.10566000000E+00 0.  1.
     999900   -1    0    0    0    0 -0.00000000000E+00 -0.00000000000E+00 -0.74505805969E-08  0.93827000000E+00  0.93827000000E+00 0.  1.
     999902    2    1    2    0    0  0.18582542712E-01  0.10274910168E-03  0.14729665666E-01  0.10202174611E+01  0.10199418530E+01 0.  0.
     999903    2    3    3    0    0  0.53585471975E-01 -0.11825506916E+00 -0.28796194742E-02  0.13142959825E+00  0.20243095094E-01 0.  0.
         14    1    1    2    0    0 -0.18582542712E-01 -0.10274910168E-03 -0.14729665666E-01  0.23712538912E-01  0.00000000000E+00 0. -1.
     999901    1    3    3    0    0 -0.35002929263E-01  0.11835781826E+00  0.17609285140E-01  0.88878786284E+00  0.88000000000E+00 0. -1.
        -11    1    4    4    0    0  0.16735928924E-01 -0.53130017896E-01 -0.86700858384E-02  0.56376605326E-01  0.51100000000E-03 0.  1.
         11    1    4    4    0    0  0.36849543051E-01 -0.65125051266E-01  0.57904663642E-02  0.75052992926E-01  0.51100000000E-03 0. -1.
</event>
<event>
 8    1  0.1111182E+005  0.1043930E+01  0.7957747E-01            NaN
         13   -1    0    0    0    0  0.00000000000E+00  0.00000000000E+00  0.74505805969E-08  0.10566000000E+00  0.10566000000E+00 0.  1.
     999900   -1    0    0    0    0 -0.00000000000E+00 -0.00000000000E+00 -0.74505805969E-08  0.93827000000E+00  0.93827000000E+00 0.  1.
     999902    2    1    2    0    0  0.34986202822E-02  0.13679491126E-01  0.18648689464E-01  0.10205389239E+01  0.10202708233E+01 0.  0.
     999903    2    3    3    0    0  0.36172533911E-01  0.55795341953E-01 -0.10948802495E+00  0.12966275570E+00  0.20080593002E-01 0.  0.
         14    1    1    2    0    0 -0.34986202822E-02 -0.13679491126E-01 -0.18648689464E-01  0.23391076078E-01  0.00000000000E+00 0. -1.
     999901    1    3    3    0    0 -0.32673913628E-01 -0.42115850827E-01  0.12813671441E+00  0.89087616822E+00  0.88000000000E+00 0. -1.
        -11    1    4    4    0    0  0.93448643373E-02  0.93540004871E-02 -0.98147305062E-02  0.16474643259E-01  0.51100000000E-03 0. -1.
         11    1    4    4    0    0  0.26827669573E-01  0.46441341466E-01 -0.99673294445E-01  0.11318811244E+00  0.51100000000E-03 0.  1.
</event>
<event>
 8    1  0.1111182E+005  0.1043930E+01  0.7957747E-01            NaN
         13   -1    0    0    0    0  0.00000000000E+00  0.00000000000E+00  0.74505805969E-08  0.10566000000E+00  0.10566000000E+00 0.  1.
     999900   -1    0    0    0    0 -0.00000000000E+00 -0.00000000000E+00 -0.74505805969E-08  0.93827000000E+00  0.93827000000E+00 0.  1.
     999902    2    1    2    0    0  0.23892265183E-01  0.28422222235E-03  0.39859626518E-02  0.10197058588E+01  0.10194180838E+01 0.  0.
     999903    2    3    3    0    0  0.28629667085E-01 -0.93111533171E-01  0.85316927290E-01  0.13102147395E+00  0.19955778762E-01 0.  0.
         14    1    1    2    0    0 -0.23892265183E-01 -0.28422222235E-03 -0.39859626518E-02  0.24224141184E-01  0.00000000000E+00 0.  1.
     999901    1    3    3    0    0 -0.47374019024E-02  0.93395755393E-01 -0.81330964638E-01  0.88868438487E+00  0.88000000000E+00 0.  1.
        -11    1    4    4    0    0  0.11871781307E-01 -0.63945648534E-01  0.48381057374E-01  0.81061538299E-01  0.51100000000E-03 0. -1.
         11    1    4    4    0    0  0.16757885778E-01 -0.29165884637E-01  0.36935869916E-01  0.49959935647E-01  0.51100000000E-03 0.  1.
</event>
<event>
 8    1  0.1535534E+005  0.1043930E+01  0.7957747E-01            NaN
         13   -1    0    0    0    0  0.00000000000E+00  0.00000000000E+00  0.74505805969E-08  0.10566000000E+00  0.10566000000E+00 0. -1.
     999900   -1    0    0    0    0 -0.00000000000E+00 -0.00000000000E+00 -0.74505805969E-08  0.93827000000E+00  0.93827000000E+00 0.  1.
     999902    2    1    2    0    0 -0.13786900319E-01  0.42408478920E-02  0.19645525109E-01  0.10195576782E+01  0.10192663289E+01 0.  0.
     999903    2    3    3    0    0  0.57976795942E-01  0.38002005046E-01 -0.10485847299E+00  0.12726227347E+00  0.19872735960E-01 0.  0.
         14    1    1    2    0    0  0.13786900319E-01 -0.42408478920E-02 -0.19645525109E-01  0.24372321762E-01  0.00000000000E+00 0.  1.
     999901    1    3    3    0    0 -0.71763696261E-01 -0.33761157154E-01  0.12450399810E+00  0.89229540477E+00  0.88000000000E+00 0. -1.
        -11    1    4    4    0    0  0.42945058434E-01  0.26884483757E-01 -0.59207397822E-01  0.77928368317E-01  0.51100000000E-03 0.  1.
         11    1    4    4    0    0  0.15031737508E-01  0.11117521289E-01 -0.45651075170E-01  0.49333905150E-01  0.51100000000E-03 0. -1.
</event>
<event>
 7    1  0.1111182E+005  0.1043930E+01  0.7957747E-01            NaN
         13   -1    0    0    0    0  0.00000000000E+00  0.00000000000E+00  0.74505805969E-08  0.10566000000E+00  0.10566000000E+00 0. -1.
     999900   -1    0    0    0    0 -0.00000000000E+00 -0.00000000000E+00 -0.74505805969E-08  0.93827000000E+00  0.93827000000E+00 0.  1.
     999903    2    1    2    0    0  0.36278601412E-02 -0.14574280384E-01 -0.14223407750E+00  0.14448380215E+00  0.20480851142E-01 0.  0.
         14    1    1    2    0    0 -0.69209312233E-02  0.35024996580E-03 -0.27645935950E-02  0.74608941677E-02  0.00000000000E+00 0.  1.
     999901    1    1    2    0    0  0.32930710821E-02  0.14224030418E-01  0.14499867110E+00  0.89198530368E+00  0.88000000000E+00 0. -1.
        -11    1    3    3    0    0 -0.71180191427E-02 -0.10668768795E-02 -0.61618218741E-01  0.62039265184E-01  0.51100000000E-03 0. -1.
         11    1    3    3    0    0  0.10745879284E-01 -0.13507403505E-01 -0.80615858763E-01  0.82444536970E-01  0.51100000000E-03 0.  1.
</event>
<event>
 8    1  0.1111182E+005  0.1043930E+01  0.7957747E-01            NaN
         13   -1    0    0    0    0  0.00000000000E+00  0.00000000000E+00  0.74505805969E-08  0.10566000000E+00  0.10566000000E+00 0.  1.
     999900   -1    0    0    0    0 -0.00000000000E+00 -0.00000000000E+00 -0.74505805969E-08  0.93827000000E+00  0.93827000000E+00 0. -1.
     999902    2    1    2    0    0  0.19235550167E-01  0.36232883061E-02 -0.13086984533E-01  0.10203842196E+01  0.10201125192E+01 0.  0.
     999903    2    3    3    0    0 -0.29780426652E-01 -0.35767294731E-01 -0.12140576557E+00  0.13151575787E+00  0.19770216714E-01 0.  0.
         14    1    1    2    0    0 -0.19235550167E-01 -0.36232883061E-02  0.13086984533E-01  0.23545780356E-01  0.00000000000E+00 0.  1.
     999901    1    3    3    0    0  0.49015976819E-01  0.39390583037E-01  0.10831878104E+00  0.88886846178E+00  0.88000000000E+00 0.  1.
        -11    1    4    4    0    0 -0.17470856279E-02 -0.55265775307E-02 -0.39548159146E-02  0.70354145089E-02  0.51100000000E-03 0.  1.
         11    1    4    4    0    0 -0.28033341024E-01 -0.30240717200E-01 -0.11745094966E+00  0.12448034336E+00  0.51100000000E-03 0. -1.
</event>
<event>
 8    1  0.1111182E+005  0.1043930E+01  0.7957747E-01            NaN
         13   -1    0    0    0    0  0.00000000000E+00  0.00000000000E+00  0.74505805969E-08  0.10566000000E+00  0.10566000000E+00 0. -1.
     999900   -1    0    0    0    0 -0.00000000000E+00 -0.00000000000E+00 -0.74505805969E-08  0.93827000000E+00  0.93827000000E+00 0.  1.
     999902    2    1    2    0    0  0.33275603219E-02 -0.14849234608E-01  0.17230146120E-01  0.10209419518E+01  0.10206831137E+01 0.  0.
     999903    2    3    3    0    0  0.76922151238E-02 -0.27198575198E-01  0.12948848001E+00  0.13371397095E+00  0.17698217540E-01 0.  0.
         14    1    1    2    0    0 -0.33275603219E-02  0.14849234608E-01 -0.17230146120E-01  0.22988048231E-01  0.00000000000E+00 0.  1.
     999901    1    3    3    0    0 -0.43646548018E-02  0.12349340590E-01 -0.11225833389E+00  0.88722798082E+00  0.88000000000E+00 0.  1.
        -11    1    4    4    0    0  0.72561843569E-02 -0.24157203609E-01  0.74861702918E-01  0.78998470760E-01  0.51100000000E-03 0. -1.
         11    1    4    4    0    0  0.43603076681E-03 -0.30413715894E-02  0.54626777096E-01  0.54715500188E-01  0.51100000000E-03 0.  1.
</event>
<event>
 8    1  0.1111182E+005  0.1043930E+01  0.7957747E-01            NaN
         13   -1    0    0    0    0  0.00000000000E+00  0.00000000000E+00  0.74505805969E-08  0.10566000000E+00  0.10566000000E+00 0. -1.
     999900   -1    0    0    0    0 -0.00000000000E+00 -0.00000000000E+00 -0.74505805969E-08  0.93827000000E+00  0.93827000000E+00 0.  1.
     999902    2    1    2    0    0  0.16597719294E-01  0.15392449986E-01  0.91340135287E-02  0.10195201248E+01  0.10192278661E+01 0.  0.
     999903    2    3    3    0    0  0.24906689041E-01  0.12580445395E+00  0.25922315957E-01  0.13242278142E+00  0.20413788997E-01 0.  0.
         14    1    1    2    0    0 -0.16597719294E-01 -0.15392449986E-01 -0.91340135287E-02  0.24409875163E-01  0.00000000000E+00 0. -1.
     999901    1    3    3    0    0 -0.83089697472E-02 -0.11041200397E+00 -0.16788302428E-01  0.88709734342E+00  0.88000000000E+00 0. -1.
        -11    1    4    4    0    0  0.22007668878E-01  0.73498863186E-01  0.22345451510E-01  0.79912456497E-01  0.51100000000E-03 0. -1.
         11    1    4    4    0    0  0.28990201627E-02  0.52305590767E-01  0.35768644465E-02  0.52510324924E-01  0.51100000000E-03 0.  1.
</event>
<event>
 8    1  0.1111182E+005  0.1043930E+01  0.7957747E-01            NaN
         13   -1    0    0    0    0  0.00000000000E+00  0.00000000000E+00  0.74505805969E-08  0.10566000000E+00  0.10566000000E+00 0. -1.
     999900   -1    0    0    0    0 -0.00000000000E+00 -0.00000000000E+00 -0.74505805969E-08  0.93827000000E+00  0.93827000000E+00 0.  1.
     999902    2    1    2    0    0  0.11816790372E-01 -0.82658861826E-02 -0.18997715414E-01  0.10200789078E+01  0.10198000311E+01 0.  0.
     999903    2    3    3    0    0 -0.91676834521E-01  0.66108508505E-01 -0.58979586535E-01  0.12999968041E+00  0.25423382828E-01 0.  0.
         14    1    1    2    0    0 -0.11816790372E-01  0.82658861826E-02  0.18997715414E-01  0.23851092219E-01  0.00000000000E+00 0. -1.
     999901    1    3    3    0    0  0.10349362489E+00 -0.74374394687E-01  0.39981871122E-01  0.89007922737E+00  0.88000000000E+00 0.  1.
        -11    1    4    4    0    0 -0.25562528932E-01  0.12201569351E-01 -0.26273255779E-01  0.38637627648E-01  0.51100000000E-03 0.  1.
         11    1    4    4    0    0 -0.66114305589E-01  0.53906939154E-01 -0.32706330756E-01  0.91362052763E-01  0.51100000000E-03 0. -1.
</event>
<event>
 8    1  0.1111182E+005  0.1043930E+01  0.7957747E-01            NaN
         13   -1    0    0    0    0  0.00000000000E+00  0.00000000000E+00  0.74505805969E-08  0.10566000000E+00  0.10566000000E+00 0.  1.
     999900   -1    0    0    0    0 -0.00000000000E+00 -0.00000000000E+00 -0.74505805969E-08  0.93827000000E+00  0.93827000000E+00 0. -1.
     999902    2    1    2    0    0  0.12957229145E-02  0.10267245527E-01  0.20733483703E-01  0.10207573313E+01  0.10204942708E+01 0.  0.
     999903    2    3    3    0    0  0.10026667445E+00  0.81601457202E-01  0.19717288868E-01  0.13234028302E+00  0.20321791442E-01 0.  0.
         14    1    1    2    0    0 -0.12957229145E-02 -0.10267245527E-01 -0.20733483703E-01  0.23172668708E-01  0.00000000000E+00 0. -1.
     999901    1    3    3    0    0 -0.98970951536E-01 -0.71334211674E-01  0.10161948346E-02  0.88841704827E+00  0.88000000000E+00 0.  1.
        -11    1    4    4    0    0  0.43003961854E-01  0.27550324504E-01  0.15941174392E-01  0.53504609870E-01  0.51100000000E-03 0. -1.
         11    1    4    4    0    0  0.57262712597E-01  0.54051132698E-01  0.37761144764E-02  0.78835673153E-01  0.51100000000E-03 0.  1.
</event>
<event>
 8    1  0.1111182E+005  0.1043930E+01  0.7957747E-01            NaN
         13   -1    0    0    0    0  0.00000000000E+00  0.00000000000E+00  0.74505805969E-08  0.10566000000E+00  0.10566000000E+00 0. -1.
     999900   -1    0    0    0    0 -0.00000000000E+00 -0.00000000000E+00 -0.74505805969E-08  0.93827000000E+00  0.93827000000E+00 0.  1.
     999902    2    1    2    0    0  0.21916335469E-01 -0.38981506387E-02 -0.77236653826E-02  0.10203678196E+01  0.10200957361E+01 0.  0.
     999903    2    3    3    0    0  0.12476541479E+00  0.23449007749E-01 -0.38876280600E-01  0.13340880947E+00  0.13049159332E-01 0.  0.
         14    1    1    2    0    0 -0.21916335469E-01  0.38981506387E-02  0.77236653826E-02  0.23562180412E-01  0.00000000000E+00 0. -1.
     999901    1    3    3    0    0 -0.10284907932E+00 -0.27347158388E-01  0.31152615217E-01  0.88695901012E+00  0.88000000000E+00 0.  1.
        -11    1    4    4    0    0  0.77719600311E-01  0.14845897741E-01 -0.17594342149E-01  0.81058984381E-01  0.51100000000E-03 0.  1.
         11    1    4    4    0    0  0.47045814480E-01  0.86031100088E-02 -0.21281938451E-01  0.52349825092E-01  0.51100000000E-03 0. -1.
</event>
<event>
 8    1  0.1111182E+005  0.1043930E+01  0.7957747E-01            NaN
         13   -1    0    0    0    0  0.00000000000E+00  0.00000000000E+00  0.74505805969E-08  0.10566000000E+00  0.10566000000E+00 0.  1.
     999900   -1    0    0    0    0 -0.00000000000E+00 -0.00000000000E+00 -0.74505805969E-08  0.93827000000E+00  0.93827000000E+00 0.  1.
     999902    2    1    2    0    0 -0.23963856376E-01  0.50109262871E-02  0.10939556380E-01  0.10171148981E+01  0.10167613615E+01 0.  0.
     999903    2    3    3    0    0  0.31769681513E-01 -0.62877385844E-01  0.10476406530E+00  0.12777914115E+00  0.19726155714E-01 0.  0.
         14    1    1    2    0    0  0.23963856376E-01 -0.50109262871E-02 -0.10939556380E-01  0.26815101873E-01  0.00000000000E+00 0. -1.
     999901    1    3    3    0    0 -0.55733537889E-01  0.67888312131E-01 -0.93824508924E-01  0.88933575698E+00  0.88000000000E+00 0.  1.
        -11    1    4    4    0    0  0.14944190256E-01 -0.15658099417E-01  0.21012532451E-01  0.30171054684E-01  0.51100000000E-03 0. -1.
         11    1    4    4    0    0  0.16825491257E-01 -0.47219286427E-01  0.83751532852E-01  0.97608086462E-01  0.51100000000E-03 0.  1.
</event>
<event>
 8    1  0.1111182E+005  0.1043930E+01  0.7957747E-01            NaN
         13   -1    0    0    0    0  0.00000000000E+00  0.00000000000E+00  0.74505805969E-08  0.10566000000E+00  0.10566000000E+00 0. -1.
     999900   -1    0    0    0    0 -0.00000000000E+00 -0.00000000000E+00 -0.74505805969E-08  0.93827000000E+00  0.93827000000E+00 0. -1.
     999902    2    1    2    0    0 -0.18575140881E-01  0.12045397023E-01  0.89577169486E-02  0.10200476186E+01  0.10197680011E+01 0.  0.
     999903    2    3    3    0    0  0.11021413775E+00 -0.60095909480E-01 -0.80301027387E-02  0.12759054266E+00  0.21358593819E-01 0.  0.
         14    1    1    2    0    0  0.18575140881E-01 -0.12045397023E-01 -0.89577169486E-02  0.23882381396E-01  0.00000000000E+00 0.  1.
     999901    1    3    3    0    0 -0.12878927863E+00  0.72141306503E-01  0.16987819687E-01  0.89245707595E+00  0.88000000000E+00 0.  1.
        -11    1    4    4    0    0  0.74738591325E-01 -0.51206312106E-01 -0.86338679567E-02  0.91009605150E-01  0.51100000000E-03 0.  1.
         11    1    4    4    0    0  0.35475546421E-01 -0.88895973737E-02  0.60376521806E-03  0.36580937505E-01  0.51100000000E-03 0. -1.
</event>
<event>
 8    1  0.1111182E+005  0.1043930E+01  0.7957747E-01            NaN
         13   -1    0    0    0    0  0.00000000000E+00  0.00000000000E+00  0.74505805969E-08  0.10566000000E+00  0.10566000000E+00 0. -1.
     999900   -1    0    0    0    0 -0.00000000000E+00 -0.00000000000E+00 -0.74505805969E-08  0.93827000000E+00  0.93827000000E+00 0.  1.
     999902    2    1    2    0    0 -0.61921950460E-02  0.16962981873E-02 -0.22166250660E-01  0.10208526653E+01  0.10205917896E+01 0.  0.
     999903    2    3    3    0    0 -0.43506543068E-01  0.92471747940E-01 -0.82672119888E-01  0.13333167794E+00  0.22334132608E-01 0.  0.
         14    1    1    2    0    0  0.61921950460E-02 -0.16962981873E-02  0.22166250660E-01  0.23077334668E-01  0.00000000000E+00 0. -1.
     999901    1    3    3    0    0  0.37314348022E-01 -0.90775449753E-01  0.60505869228E-01  0.88752098739E+00  0.88000000000E+00 0. -1.
        -11    1    4    4    0    0 -0.19804565166E-01  0.61594972685E-01 -0.60232023872E-01  0.88398638464E-01  0.51100000000E-03 0.  1.
         11    1    4    4    0    0 -0.23701977902E-01  0.30876775255E-01 -0.22440096016E-01  0.44933039479E-01  0.51100000000E-03 0. -1.
</event>
<event>
 8    1  0.1111182E+005  0.1043930E+01  0.7957747E-01            NaN
         13   -1    0    0    0    0  0.00000000000E+00  0.00000000000E+00  0.74505805969E-08  0.10566000000E+00  0.10566000000E+00 0. -1.
     999900   -1    0    0    0    0 -0.00000000000E+00 -0.00000000000E+00 -0.74505805969E-08  0.93827000000E+00  0.93827000000E+00 0. -1.
     999902    2    1    2    0    0  0.14583432210E-01  0.11277880380E-01 -0.14986516862E-01  0.10201715748E+01  0.10198948864E+01 0.  0.
     999903    2    3    3    0    0 -0.10332736683E+00 -0.63122410564E-01 -0.40712463641E-01  0.12882417665E+00  0.16648734026E-01 0.  0.
         14    1    1    2    0    0 -0.14583432210E-01 -0.11277880380E-01  0.14986516862E-01  0.23758425212E-01  0.00000000000E+00 0. -1.
     999901    1    3    3    0    0  0.11791079903E+00  0.74400290945E-01  0.25725946779E-01  0.89134739813E+00  0.88000000000E+00 0. -1.
        -11    1    4    4    0    0 -0.53035891046E-01 -0.33191256123E-01 -0.29746752859E-01  0.69279114087E-01  0.51100000000E-03 0.  1.
         11    1    4    4    0    0 -0.50291475779E-01 -0.29931154442E-01 -0.10965710781E-01  0.59545062568E-01  0.51100000000E-03 0. -1.
</event>
<event>
 8    1  0.1111182E+005  0.1043930E+01  0.7957747E-01            NaN
         13   -1    0    0    0    0  0.00000000000E+00  0.00000000000E+00  0.74505805969E-08  0.10566000000E+00  0.10566000000E+00 0.  1.
     999900   -1    0    0    0    0 -0.00000000000E+00 -0.00000000000E+00 -0.74505805969E-08  0.93827000000E+00  0.93827000000E+00 0. -1.
     999902    2    1    2    0    0 -0.25550745631E-01 -0.11413978852E-02  0.43921089468E-02  0.10179793928E+01  0.10176485691E+01 0.  0.
     999903    2    3    3    0    0 -0.63126849767E-01 -0.64070922266E-01  0.93210301690E-01  0.13047685199E+00  0.15683313493E-01 0.  0.
         14    1    1    2    0    0  0.25550745631E-01  0.11413978852E-02 -0.43921089468E-02  0.25950607169E-01  0.00000000000E+00 0. -1.
     999901    1    3    3    0    0  0.37576104136E-01  0.62929524381E-01 -0.88818192744E-01  0.88750254084E+00  0.88000000000E+00 0.  1.
        -11    1    4    4    0    0 -0.15766365555E-01 -0.12620122832E-01  0.30270356321E-01  0.36392325783E-01  0.51100000000E-03 0. -1.
         11    1    4    4    0    0 -0.47360484211E-01 -0.51450799434E-01  0.62939945369E-01  0.94084526205E-01  0.51100000000E-03 0.  1.
</event>
<event>
 8    1  0.1111182E+005  0.1043930E+01  0.7957747E-01            NaN
         13   -1    0    0    0    0  0.00000000000E+00  0.00000000000E+00  0.74505805969E-08  0.10566000000E+00  0.10566000000E+00 0.  1.
     999900   -1    0    0    0    0 -0.00000000000E+00 -0.00000000000E+00 -0.74505805969E-08  0.93827000000E+00  0.93827000000E+00 0.  1.
     999902    2    1    2    0    0 -0.24779897711E-01 -0.94484063734E-02 -0.18693875756E-02  0.10173440954E+01  0.10169966559E+01 0.  0.
     999903    2    3    3    0    0  0.30342452042E-01  0.39344504229E-01  0.11387560562E+00  0.12671727960E+00  0.24919088765E-01 0.  0.
         14    1    1    2    0    0  0.24779897711E-01  0.94484063734E-02  0.18693875756E-02  0.26585904601E-01  0.00000000000E+00 0. -1.
     999901    1    3    3    0    0 -0.55122349753E-01 -0.48792910602E-01 -0.11574499320E+00  0.89062681580E+00  0.88000000000E+00 0.  1.
        -11    1    4    4    0    0  0.13552172160E-01  0.91162922026E-02  0.63810572576E-01  0.65869708116E-01  0.51100000000E-03 0.  1.
         11    1    4    4    0    0  0.16790279881E-01  0.30228212026E-01  0.50065033045E-01  0.60847571485E-01  0.51100000000E-03 0. -1.
</event>
<event>
 8    1  0.1111182E+005  0.1043930E+01  0.7957747E-01            NaN
         13   -1    0    0    0    0  0.00000000000E+00  0.00000000000E+00  0.74505805969E-08  0.10566000000E+00  0.10566000000E+00 0. -1.
     999900   -1    0    0    0    0 -0.00000000000E+00 -0.00000000000E+00 -0.74505805969E-08  0.93827000000E+00  0.93827000000E+00 0. -1.
     999902    2    1    2    0    0 -0.82425988413E-02 -0.11681205742E-01  0.19362685072E-01  0.10198612531E+01  0.10195772021E+01 0.  0.
     999903    2    3    3    0    0  0.22882227776E-01  0.11046147387E+00 -0.56307304169E-01  0.12766534622E+00  0.20064759314E-01 0.  0.
         14    1    1    2    0    0  0.82425988413E-02  0.11681205742E-01 -0.19362685072E-01  0.24068746881E-01  0.00000000000E+00 0. -1.
     999901    1    3    3    0    0 -0.31124826617E-01 -0.12214267961E+00  0.75669989241E-01  0.89219590690E+00  0.88000000000E+00 0.  1.
        -11    1    4    4    0    0  0.11089750902E-01  0.57985100317E-01 -0.18317487747E-01  0.61814609214E-01  0.51100000000E-03 0. -1.
         11    1    4    4    0    0  0.11792476873E-01  0.52476373549E-01 -0.37989816422E-01  0.65850737007E-01  0.51100000000E-03 0.  1.
</event>
<event>
 8    1  0.1111182E+005  0.1043930E+01  0.7957747E-01            NaN
         13   -1    0    0    0    0  0.00000000000E+00  0.00000000000E+00  0.74505805969E-08  0.10566000000E+00  0.10566000000E+00 0. -1.
     999900   -1    0    0    0    0 -0.00000000000E+00 -0.00000000000E+00 -0.74505805969E-08  0.93827000000E+00  0.93827000000E+00 0. -1.
     999902    2    1    2    0    0 -0.62310776472E-02  0.22109797856E-01  0.11076057419E-01  0.10184280680E+01  0.10181087275E+01 0.  0.
     999903    2    3    3    0    0  0.32664673786E-01 -0.89352160600E-01  0.82826281005E-01  0.12765046258E+00  0.19587196176E-01 0.  0.
         14    1    1    2    0    0  0.62310776472E-02 -0.22109797856E-01 -0.11076057419E-01  0.25501932041E-01  0.00000000000E+00 0. -1.
     999901    1    3    3    0    0 -0.38895751433E-01  0.11146195846E+00 -0.71750223587E-01  0.89077760538E+00  0.88000000000E+00 0.  1.
        -11    1    4    4    0    0  0.16261605301E-01 -0.19592342041E-01  0.21775030717E-01  0.33506906114E-01  0.51100000000E-03 0. -1.
         11    1    4    4    0    0  0.16403068485E-01 -0.69759818559E-01  0.61051250288E-01  0.94143556465E-01  0.51100000000E-03 0.  1.
</event>
<event>
 8    1  0.1111182E+005  0.1043930E+01  0.7957747E-01            NaN
         13   -1    0    0    0    0  0.00000000000E+00  0.00000000000E+00  0.74505805969E-08  0.10566000000E+00  0.10566000000E+00 0. -1.
     999900   -1    0    0    0    0 -0.00000000000E+00 -0.00000000000E+00 -0.74505805969E-08  0.93827000000E+00  0.93827000000E+00 0.  1.
     999902    2    1    2    0    0  0.20502127540E-01 -0.82585822467E-02  0.39046679604E-02  0.10214847812E+01  0.10212381556E+01 0.  0.
     999903    2    3    3    0    0 -0.14390389668E-01 -0.10379183522E+00 -0.77479354568E-01  0.13189642175E+00  0.20341762742E-01 0.  0.
         14    1    1    2    0    0 -0.20502127540E-01  0.82585822467E-02 -0.39046679604E-02  0.22445218784E-01  0.00000000000E+00 0.  1.
     999901    1    3    3    0    0  0.34892517208E-01  0.95533252976E-01  0.81384022528E-01  0.88958835947E+00  0.88000000000E+00 0. -1.
        -11    1    4    4    0    0  0.31998460990E-02 -0.50565193232E-01 -0.35807830241E-01  0.62044658184E-01  0.51100000000E-03 0. -1.
         11    1    4    4    0    0 -0.17590235767E-01 -0.53226641991E-01 -0.41671524327E-01  0.69851763562E-01  0.51100000000E-03 0.  1.
</event>
<event>
 7    1  0.1111182E+005  0.1043930E+01  0.7957747E-01            NaN
         13   -1    0    0    0    0  0.00000000000E+00  0.00000000000E+00  0.74505805969E-08  0.10566000000E+00  0.10566000000E+00 0. -1.
     999900   -1    0    0    0    0 -0.00000000000E+00 -0.00000000000E+00 -0.74505805969E-08  0.93827000000E+00  0.93827000000E+00 0. -1.
     999902    2    1    2    0    0  0.59042539733E-02  0.93194693137E-02 -0.20327096219E-01  0.10208020177E+01  0.10205399825E+01 0.  0.
         14    1    1    2    0    0 -0.59042539733E-02 -0.93194693137E-02  0.20327096219E-01  0.23127982271E-01  0.00000000000E+00 0. -1.
     999901    1    3    3    0    0 -0.81227162909E-01 -0.55450460086E-01 -0.84302286545E-01  0.88948270418E+00  0.88000000000E+00 0.  1.
        -11    1    3    3    0    0  0.82110453398E-01  0.47892037505E-01  0.62231588449E-01  0.11361692451E+00  0.51100000000E-03 0. -1.
         11    1    3    3    0    0  0.50209634845E-02  0.16877891894E-01  0.17436018773E-02  0.17702389037E-01  0.51100000000E-03 0.  1.
</event>
<event>
 8    1  0.1111182E+005  0.1043930E+01  0.7957747E-01            NaN
         13   -1    0    0    0    0  0.00000000000E+00  0.00000000000E+00  0.74505805969E-08  0.10566000000E+00  0.10566000000E+00 0. -1.
     999900   -1    0    0    0    0 -0.00000000000E+00 -0.00000000000E+00 -0.74505805969E-08  0.93827000000E+00  0.93827000000E+00 0. -1.
     999902    2    1    2    0    0  0.84690072192E-02  0.35269390342E-02  0.26871786004E-01  0.10155353479E+01  0.10151383091E+01 0.  0.
     999903    2    3    3    0    0 -0.17942176344E-01  0.12309459106E+00 -0.11122338796E-01  0.12624488497E+00  0.18435414825E-01 0.  0.
         14    1    1    2    0    0 -0.84690072192E-02 -0.35269390342E-02 -0.26871786004E-01  0.28394652054E-01  0.00000000000E+00 0.  1.
     999901    1    3    3    0    0  0.26411183563E-01 -0.11956765203E+00  0.37994124800E-01  0.88929046298E+00  0.88000000000E+00 0. -1.
        -11    1    4    4    0    0  0.36862204611E-02  0.20536615960E-01 -0.33951609189E-02  0.21145426339E-01  0.51100000000E-03 0.  1.
         11    1    4    4    0    0 -0.21628396805E-01  0.10255797510E+00 -0.77271778775E-02  0.10509945863E+00  0.51100000000E-03 0. -1.
</event>
<event>
 8    1  0.1111182E+005  0.1043930E+01  0.7957747E-01            NaN
         13   -1    0    0    0    0  0.00000000000E+00  0.00000000000E+00  0.74505805969E-08  0.10566000000E+00  0.10566000000E+00 0.  1.
     999900   -1    0    0    0    0 -0.00000000000E+00 -0.00000000000E+00 -0.74505805969E-08  0.93827000000E+00  0.93827000000E+00 0.  1.
     999902    2    1    2    0    0 -0.72077864411E-03  0.22818740240E-01 -0.68375841340E-02  0.10200979421E+01  0.10198195156E+01 0.  0.
     999903    2    3    3    0    0 -0.12381066192E+00  0.32508808378E-01 -0.22398206718E-01  0.13134198583E+00  0.19056100094E-01 0.  0.
         14    1    1    2    0    0  0.72077864411E-03 -0.22818740240E-01  0.68375841340E-02  0.23832057921E-01  0.00000000000E+00 0. -1.
     999901    1    3    3    0    0  0.12308988328E+00 -0.96900681386E-02  0.15560622584E-01  0.88875595625E+00  0.88000000000E+00 0.  1.
        -11    1    4    4    0    0 -0.51946804641E-01  0.79861391867E-02 -0.16895667288E-01  0.55208456106E-01  0.51100000000E-03 0.  1.
         11    1    4    4    0    0 -0.71863857281E-01  0.24522669192E-01 -0.55025394298E-02  0.76133529728E-01  0.51100000000E-03 0. -1.
</event>
<event>
 8    1  0.1111182E+005  0.1043930E+01  0.7957747E-01            NaN
         13   -1    0    0    0    0  0.00000000000E+00  0.00000000000E+00  0.74505805969E-08  0.10566000000E+00  0.10566000000E+00 0. -1.
     999900   -1    0    0    0    0 -0.00000000000E+00 -0.00000000000E+00 -0.74505805969E-08  0.93827000000E+00  0.93827000000E+00 0.  1.
     999902    2    1    2    0    0  0.22526128604E-01  0.96105134852E-02 -0.47239350704E-02  0.10189879872E+01  0.10186826857E+01 0.  0.
     999903    2    3    3    0    0 -0.46807879847E-01 -0.11661501448E+00 -0.49589074356E-02  0.12728167690E+00  0.19646762900E-01 0.  0.
         14    1    1    2    0    0 -0.22526128604E-01 -0.96105134852E-02  0.47239350704E-02  0.24942012787E-01  0.00000000000E+00 0. -1.
     999901    1    3    3    0    0  0.69334008451E-01  0.12622552797E+00  0.23497236516E-03  0.89170631031E+00  0.88000000000E+00 0.  1.
        -11    1    4    4    0    0 -0.27736433959E-01 -0.54911910412E-01  0.58470503015E-02  0.61798679533E-01  0.51100000000E-03 0.  1.
         11    1    4    4    0    0 -0.19071445888E-01 -0.61703104073E-01 -0.10805957737E-01  0.65482997367E-01  0.51100000000E-03 0. -1.
</event>
<event>
 8    1  0.1111182E+005  0.1043930E+01  0.7957747E-01            NaN
         13   -1    0    0    0    0  0.00000000000E+00  0.00000000000E+00  0.74505805969E-08  0.10566000000E+00  0.10566000000E+00 0.  1.
     999900   -1    0    0    0    0 -0.00000000000E+00 -0.00000000000E+00 -0.74505805969E-08  0.93827000000E+00  0.93827000000E+00 0. -1.
     999902    2    1    2    0    0 -0.43711261396E-02 -0.28477913816E-02  0.22597239981E-01  0.10207383654E+01  0.10204748692E+01 0.  0.
     999903    2    3    3    0    0 -0.84770406937E-01  0.20145928191E-01 -0.93353450454E-01  0.12920187256E+00  0.19656470878E-01 0.  0.
         14    1    1    2    0    0  0.43711261396E-02  0.28477913816E-02 -0.22597239981E-01  0.23191634575E-01  0.00000000000E+00 0. -1.
     999901    1    3    3    0    0  0.80399280797E-01 -0.22993719572E-01  0.11595069043E+00  0.89153649286E+00  0.88000000000E+00 0.  1.
        -11    1    4    4    0    0 -0.15986520865E-01  0.86537704886E-02 -0.29448737296E-01  0.34611354241E-01  0.51100000000E-03 0.  1.
         11    1    4    4    0    0 -0.68783886072E-01  0.11492157702E-01 -0.63904713158E-01  0.94590518323E-01  0.51100000000E-03 0. -1.
</event>
<event>
 8    1  0.1111182E+005  0.1043930E+01  0.7957747E-01            NaN
         13   -1    0    0    0    0  0.00000000000E+00  0.00000000000E+00  0.74505805969E-08  0.10566000000E+00  0.10566000000E+00 0.  1.
     999900   -1    0    0    0    0 -0.00000000000E+00 -0.00000000000E+00 -0.74505805969E-08  0.93827000000E+00  0.93827000000E+00 0.  1.
     999902    2    1    2    0    0  0.23420808439E-01 -0.45806624682E-03  0.11079588125E-02  0.10204785253E+01  0.10202090222E+01 0.  0.
     999903    2    3    3    0    0 -0.40753931389E-01  0.73141721391E-01 -0.96976800241E-01  0.12966095367E+00  0.19921565965E-01 0.  0.
         14    1    1    2    0    0 -0.23420808439E-01  0.45806624682E-03 -0.11079588125E-02  0.23451474695E-01  0.00000000000E+00 0. -1.
     999901    1    3    3    0    0  0.64174739829E-01 -0.73599787637E-01  0.98084759053E-01  0.89081757163E+00  0.88000000000E+00 0. -1.
        -11    1    4    4    0    0 -0.21204956662E-01  0.55472344704E-01 -0.72198559747E-01  0.93486492953E-01  0.51100000000E-03 0.  1.
         11    1    4    4    0    0 -0.19548974727E-01  0.17669376686E-01 -0.24778240494E-01  0.36174460719E-01  0.51100000000E-03 0. -1.
</event>
<event>
 8    1  0.1111182E+005  0.1043930E+01  0.7957747E-01            NaN
         13   -1    0    0    0    0  0.00000000000E+00  0.00000000000E+00  0.74505805969E-08  0.10566000000E+00  0.10566000000E+00 0. -1.
     999900   -1    0    0    0    0 -0.00000000000E+00 -0.00000000000E+00 -0.74505805969E-08  0.93827000000E+00  0.93827000000E+00 0. -1.
     999902    2    1    2    0    0 -0.39705273068E-02  0.77782819932E-03  0.23031334068E-01  0.10205459787E+01  0.10202780416E+01 0.  0.
     999903    2    3    3    0    0  0.98979137159E-01  0.64664162554E-01 -0.48398242337E-01  0.12937692541E+00  0.20437109778E-01 0.  0.
         14    1    1    2    0    0  0.39705273068E-02 -0.77782819932E-03 -0.23031334068E-01  0.23384021313E-01  0.00000000000E+00 0.  1.
     999901    1    3    3    0    0 -0.10294966447E+00 -0.63886334354E-01  0.71429576405E-01  0.89116905328E+00  0.88000000000E+00 0.  1.
        -11    1    4    4    0    0  0.42430610419E-01  0.18545652785E-01 -0.12040714492E-01  0.47849115606E-01  0.51100000000E-03 0.  1.
         11    1    4    4    0    0  0.56548526740E-01  0.46118509768E-01 -0.36357527845E-01  0.81527809806E-01  0.51100000000E-03 0. -1.
</event>
<event>
 8    1  0.1111182E+005  0.1043930E+01  0.7957747E-01            NaN
         13   -1    0    0    0    0  0.00000000000E+00  0.00000000000E+00  0.74505805969E-08  0.10566000000E+00  0.10566000000E+00 0.  1.
     999900   -1    0    0    0    0 -0.00000000000E+00 -0.00000000000E+00 -0.74505805969E-08  0.93827000000E+00  0.93827000000E+00 0.  1.
     999902    2    1    2    0    0 -0.54254399905E-02  0.11156604038E-01  0.20208569933E-01  0.10202173133E+01  0.10199417017E+01 0.  0.
     999903    2    3    3    0    0  0.90866788080E-01  0.82240843440E-02  0.91493412772E-01  0.13209439292E+00  0.27449504910E-01 0.  0.
         14    1    1    2    0    0  0.54254399905E-02 -0.11156604038E-01 -0.20208569933E-01  0.23712686720E-01  0.00000000000E+00 0. -1.
     999901    1    3    3    0    0 -0.96292228070E-01  0.29325196943E-02 -0.71284842839E-01  0.88812292036E+00  0.88000000000E+00 0. -1.
        -11    1    4    4    0    0  0.97527713078E-02  0.22371158612E-03  0.25208757113E-01  0.27035331536E-01  0.51100000000E-03 0.  1.
         11    1    4    4    0    0  0.81114016772E-01  0.80003727579E-02  0.66284655659E-01  0.10505906138E+00  0.51100000000E-03 0. -1.
</event>
<event>
 8    1  0.1111182E+005  0.1043930E+01  0.7957747E-01            NaN
         13   -1    0    0    0    0  0.00000000000E+00  0.00000000000E+00  0.74505805969E-08  0.10566000000E+00  0.10566000000E+00 0. -1.
     999900   -1    0    0    0    0 -0.00000000000E+00 -0.00000000000E+00 -0.74505805969E-08  0.93827000000E+00  0.93827000000E+00 0. -1.
     999902    2    1    2    0    0 -0.72553905344E-03 -0.72468142735E-02  0.22696389108E-01  0.10200937083E+01  0.10198151817E+01 0.  0.
     999903    2    3    3    0    0  0.80089899584E-01 -0.10049719255E+00 -0.12939404739E-01  0.13076998884E+00  0.20476426961E-01 0.  0.
         14    1    1    2    0    0  0.72553905344E-03  0.72468142735E-02 -0.22696389108E-01  0.23836291712E-01  0.00000000000E+00 0.  1.
     999901    1    3    3    0    0 -0.80815438637E-01  0.93250378273E-01  0.35635793847E-01  0.88932371945E+00  0.88000000000E+00 0. -1.
        -11    1    4    4    0    0  0.12953576566E-01 -0.29020458294E-01  0.50982789746E-03  0.31788412840E-01  0.51100000000E-03 0. -1.
         11    1    4    4    0    0  0.67136323018E-01 -0.71476734253E-01 -0.13449232637E-01  0.98981576000E-01  0.51100000000E-03 0.  1.
</event>
<event>
 8    1  0.1111182E+005  0.1043930E+01  0.7957747E-01            NaN
         13   -1    0    0    0    0  0.00000000000E+00  0.00000000000E+00  0.74505805969E-08  0.10566000000E+00  0.10566000000E+00 0. -1.
     999900   -1    0    0    0    0 -0.00000000000E+00 -0.00000000000E+00 -0.74505805969E-08  0.93827000000E+00  0.93827000000E+00 0. -1.
     999902    2    1    2    0    0  0.12724985692E-01 -0.22800774686E-02 -0.22980773643E-01  0.10175625964E+01  0.10172209188E+01 0.  0.
     999903    2    3    3    0    0 -0.83938858229E-01  0.79497901486E-01  0.45464498712E-01  0.12586966056E+00  0.20260862385E-01 0.  0.
         14    1    1    2    0    0 -0.12724985692E-01  0.22800774686E-02  0.22980773643E-01  0.26367403577E-01  0.00000000000E+00 0. -1.
     999901    1    3    3    0    0  0.96663843921E-01 -0.81777978954E-01 -0.68445272356E-01  0.89169293586E+00  0.88000000000E+00 0.  1.
        -11    1    4    4    0    0 -0.54421092032E-01  0.49186734410E-01  0.38957967628E-01  0.83060065390E-01  0.51100000000E-03 0.  1.
         11    1    4    4    0    0 -0.29517766197E-01  0.30311167076E-01  0.65065310840E-02  0.42809595169E-01  0.51100000000E-03 0. -1.
</event>
<event>
 8    1  0.1111182E+005  0.1043930E+01  0.7957747E-01            NaN
         13   -1    0    0    0    0  0.00000000000E+00  0.00000000000E+00  0.74505805969E-08  0.10566000000E+00  0.10566000000E+00 0.  1.
     999900   -1    0    0    0    0 -0.00000000000E+00 -0.00000000000E+00 -0.74505805969E-08  0.93827000000E+00  0.93827000000E+00 0.  1.
     999902    2    1    2    0    0  0.34617586195E-02  0.22189289068E-02 -0.23673240272E-01  0.10199023134E+01  0.10196192422E+01 0.  0.
     999903    2    3    3    0    0  0.10338776197E+00  0.12692822407E-01  0.72394779552E-01  0.12899043615E+00  0.23396398180E-01 0.  0.
         14    1    1    2    0    0 -0.34617586195E-02 -0.22189289068E-02  0.23673240272E-01  0.24027686597E-01  0.00000000000E+00 0.  1.
     999901    1    3    3    0    0 -0.99926003347E-01 -0.10473893500E-01 -0.96068019824E-01  0.89091187725E+00  0.88000000000E+00 0.  1.
        -11    1    4    4    0    0  0.77082913291E-01  0.25659445846E-02  0.43181300502E-01  0.88392564320E-01  0.51100000000E-03 0. -1.
         11    1    4    4    0    0  0.26304848676E-01  0.10126877822E-01  0.29213479050E-01  0.40597871835E-01  0.51100000000E-03 0.  1.
</event>
<event>
 8    1  0.1111182E+005  0.1043930E+01  0.7957747E-01            NaN
         13   -1    0    0    0    0  0.00000000000E+00  0.00000000000E+00  0.74505805969E-08  0.10566000000E+00  0.10566000000E+00 0. -1.
     999900   -1    0    0    0    0 -0.00000000000E+00 -0.00000000000E+00 -0.74505805969E-08  0.93827000000E+00  0.93827000000E+00 0. -1.
     999902    2    1    2    0    0  0.14234472370E-01 -0.15479360095E-01  0.11694097161E-01  0.10198679406E+01  0.10195840493E+01 0.  0.
     999903    2    3    3    0    0 -0.96297068218E-01  0.56183151212E-01  0.61084375846E-01  0.12869335806E+00  0.20025174385E-01 0.  0.
         14    1    1    2    0    0 -0.14234472370E-01  0.15479360095E-01 -0.11694097161E-01  0.24062059368E-01  0.00000000000E+00 0.  1.
     999901    1    3    3    0    0  0.11053154059E+00 -0.71662511307E-01 -0.49390278685E-01  0.89117458257E+00  0.88000000000E+00 0. -1.
        -11    1    4    4    0    0 -0.22786508782E-01  0.68783931898E-02  0.64173127063E-02  0.24657256512E-01  0.51100000000E-03 0. -1.
         11    1    4    4    0    0 -0.73510559436E-01  0.49304758022E-01  0.54667063140E-01  0.10403610155E+00  0.51100000000E-03 0.  1.
</event>
<event>
 8    1  0.1111182E+005  0.1043930E+01  0.7957747E-01            NaN
         13   -1    0    0    0    0  0.00000000000E+00  0.00000000000E+00  0.74505805969E-08  0.10566000000E+00  0.10566000000E+00 0.  1.
     999900   -1    0    0    0    0 -0.00000000000E+00 -0.00000000000E+00 -0.74505805969E-08  0.93827000000E+00  0.93827000000E+00 0. -1.
     999902    2    1    2    0    0  0.83894132760E-02  0.21082811067E-01 -0.66981659997E-02  0.10202713313E+01  0.10199969886E+01 0.  0.
     999903    2    3    3    0    0  0.41579188239E-01 -0.94343111672E-01  0.73937244270E-01  0.12846037924E+00  0.20146993051E-01 0.  0.
         14    1    1    2    0    0 -0.83894132760E-02 -0.21082811067E-01  0.66981659997E-02  0.23658668715E-01  0.00000000000E+00 0. -1.
     999901    1    3    3    0    0 -0.33189774963E-01  0.11542592274E+00 -0.80635410270E-01  0.89181095205E+00  0.88000000000E+00 0. -1.
        -11    1    4    4    0    0  0.16583111824E-01 -0.56424509282E-01  0.33715056683E-01  0.67791526119E-01  0.51100000000E-03 0. -1.
         11    1    4    4    0    0  0.24996076415E-01 -0.37918602391E-01  0.40222187587E-01  0.60668853118E-01  0.51100000000E-03 0.  1.
</event>
<event>
 7    1  0.1111182E+005  0.1043930E+01  0.7957747E-01            NaN
         13   -1    0    0    0    0  0.00000000000E+00  0.00000000000E+00  0.74505805969E-08  0.10566000000E+00  0.10566000000E+00 0.  1.
     999900   -1    0    0    0    0 -0.00000000000E+00 -0.00000000000E+00 -0.74505805969E-08  0.93827000000E+00  0.93827000000E+00 0.  1.
     999903    2    1    2    0    0  0.28019344740E-01 -0.74652358321E-01  0.79107797852E-01  0.11368806398E+00  0.17574809501E-01 0.  0.
         14    1    1    2    0    0  0.23272804369E-01  0.86991897425E-03  0.31071436337E-01  0.38830585088E-01  0.00000000000E+00 0.  1.
     999901    1    1    2    0    0 -0.51292149109E-01  0.73782439347E-01 -0.11017923419E+00  0.89141135093E+00  0.88000000000E+00 0.  1.
        -11    1    3    3    0    0  0.15269216264E-01 -0.59369263239E-01  0.54430215384E-01  0.81980289403E-01  0.51100000000E-03 0. -1.
         11    1    3    3    0    0  0.12750128476E-01 -0.15283095082E-01  0.24677582468E-01  0.31707774581E-01  0.51100000000E-03 0.  1.
</event>
<event>
 8    1  0.1111182E+005  0.1043930E+01  0.7957747E-01            NaN
         13   -1    0    0    0    0  0.00000000000E+00  0.00000000000E+00  0.74505805969E-08  0.10566000000E+00  0.10566000000E+00 0.  1.
     999900   -1    0    0    0    0 -0.00000000000E+00 -0.00000000000E+00 -0.74505805969E-08  0.93827000000E+00  0.93827000000E+00 0. -1.
     999902    2    1    2    0    0  0.20816938059E-01 -0.18044227829E-02 -0.12191922927E-01  0.10197381866E+01  0.10194511883E+01 0.  0.
     999903    2    3    3    0    0 -0.70644675275E-01  0.90385585664E-01  0.52527963392E-01  0.12785653072E+00  0.20685291158E-01 0.  0.
         14    1    1    2    0    0 -0.20816938059E-01  0.18044227829E-02  0.12191922927E-01  0.24191813417E-01  0.00000000000E+00 0. -1.
     999901    1    3    3    0    0  0.91461613334E-01 -0.92190008447E-01 -0.64719886319E-01  0.89188165586E+00  0.88000000000E+00 0.  1.
        -11    1    4    4    0    0 -0.67689721726E-01  0.87373405191E-01  0.54426794183E-01  0.12320124759E+00  0.51100000000E-03 0. -1.
         11    1    4    4    0    0 -0.29549535484E-02  0.30121804733E-02 -0.18988307911E-02  0.46552831332E-02  0.51100000000E-03 0.  1.
</event>
<event>
 8    1  0.1111182E+005  0.1043930E+01  0.7957747E-01            NaN
         13   -1    0    0    0    0  0.00000000000E+00  0.00000000000E+00  0.74505805969E-08  0.10566000000E+00  0.10566000000E+00 0.  1.
     999900   -1    0    0    0    0 -0.00000000000E+00 -0.00000000000E+00 -0.74505805969E-08  0.93827000000E+00  0.93827000000E+00 0.  1.
     999902    2    1    2    0    0  0.13034991162E-01 -0.18159491169E-01 -0.87225053205E-02  0.10199349961E+01  0.10196527036E+01 0.  0.
     999903    2    3    3    0    0 -0.10211000250E+00 -0.13894354121E-01  0.74399424961E-01  0.12853956404E+00  0.19173925063E-01 0.  0.
         14    1    1    2    0    0 -0.13034991162E-01  0.18159491169E-01  0.87225053205E-02  0.23995003921E-01  0.00000000000E+00 0. -1.
     999901    1    3    3    0    0  0.11514499366E+00 -0.42651370480E-02 -0.83121930281E-01  0.89139543204E+00  0.88000000000E+00 0. -1.
        -11    1    4    4    0    0 -0.63449299684E-01 -0.17928751636E-01  0.45949372916E-01  0.80367031537E-01  0.51100000000E-03 0. -1.
         11    1    4    4    0    0 -0.38660702819E-01  0.40343975143E-02  0.28450052045E-01  0.48172532507E-01  0.51100000000E-03 0.  1.
</event>
<event>
 8    1  0.1111182E+005  0.1043930E+01  0.7957747E-01            NaN
         13   -1    0    0    0    0  0.00000000000E+00  0.00000000000E+00  0.74505805969E-08  0.10566000000E+00  0.10566000000E+00 0. -1.
     999900   -1    0    0    0    0 -0.00000000000E+00 -0.00000000000E+00 -0.74505805969E-08  0.93827000000E+00  0.93827000000E+00 0. -1.
     999902    2    1    2    0    0 -0.59652193966E-02 -0.16635035425E-01 -0.16404872748E-01  0.10198171798E+01  0.10195320751E+01 0.  0.
     999903    2    3    3    0    0 -0.87836951944E-01 -0.82971841268E-01 -0.51436290282E-01  0.13283874007E+00  0.20019548855E-01 0.  0.
         14    1    1    2    0    0  0.59652193966E-02  0.16635035425E-01  0.16404872748E-01  0.24112820157E-01  0.00000000000E+00 0. -1.
     999901    1    3    3    0    0  0.81871732547E-01  0.66336805843E-01  0.35031417534E-01  0.88697843977E+00  0.88000000000E+00 0. -1.
        -11    1    4    4    0    0 -0.80145355594E-01 -0.66087905573E-01 -0.44774487190E-01  0.11311898652E+00  0.51100000000E-03 0.  1.
         11    1    4    4    0    0 -0.76915963497E-02 -0.16883935695E-01 -0.66618030926E-02  0.19719753558E-01  0.51100000000E-03 0. -1.
</event>
<event>
 8    1  0.1111182E+005  0.1043930E+01  0.7957747E-01            NaN
         13   -1    0    0    0    0  0.00000000000E+00  0.00000000000E+00  0.74505805969E-08  0.10566000000E+00  0.10566000000E+00 0.  1.
     999900   -1    0    0    0    0 -0.00000000000E+00 -0.00000000000E+00 -0.74505805969E-08  0.93827000000E+00  0.93827000000E+00 0. -1.
     999902    2    1    2    0    0  0.66387106334E-02  0.97522550472E-02 -0.21077860646E-01  0.10197751834E+01  0.10194890727E+01 0.  0.
     999903    2    3    3    0    0  0.36281732640E-01 -0.11944496491E+00 -0.29817823732E-01  0.12980494939E+00  0.19410268115E-01 0.  0.
         14    1    1    2    0    0 -0.66387106334E-02 -0.97522550472E-02  0.21077860646E-01  0.24154816637E-01  0.00000000000E+00 0.  1.
     999901    1    3    3    0    0 -0.29643022006E-01  0.12919721996E+00  0.87399630860E-02  0.88997023397E+00  0.88000000000E+00 0.  1.
        -11    1    4    4    0    0  0.11393912578E-01 -0.60585677193E-01 -0.21830652398E-01  0.65400948234E-01  0.51100000000E-03 0. -1.
         11    1    4    4    0    0  0.24887820062E-01 -0.58859287719E-01 -0.79871713344E-02  0.64404001158E-01  0.51100000000E-03 0.  1.
</event>
<event>
 8    1  0.1111182E+005  0.1043930E+01  0.7957747E-01            NaN
         13   -1    0    0    0    0  0.00000000000E+00  0.00000000000E+00  0.74505805969E-08  0.10566000000E+00  0.10566000000E+00 0.  1.
     999900   -1    0    0    0    0 -0.00000000000E+00 -0.00000000000E+00 -0.74505805969E-08  0.93827000000E+00  0.93827000000E+00 0. -1.
     999902    2    1    2    0    0 -0.19230795119E-01 -0.13942118153E-01  0.29546165275E-02  0.10199939206E+01  0.10197130293E+01 0.  0.
     999903    2    3    3    0    0 -0.76131265498E-01 -0.39535863642E-01 -0.98401294062E-01  0.13198168870E+00  0.19424144255E-01 0.  0.
         14    1    1    2    0    0  0.19230795119E-01  0.13942118153E-01 -0.29546165275E-02  0.23936079427E-01  0.00000000000E+00 0. -1.
     999901    1    3    3    0    0  0.56900470379E-01  0.25593745489E-01  0.10135591059E+00  0.88801223187E+00  0.88000000000E+00 0.  1.
        -11    1    4    4    0    0 -0.34725464706E-01 -0.81170670121E-02 -0.34649536069E-01  0.49725206352E-01  0.51100000000E-03 0.  1.
         11    1    4    4    0    0 -0.41405800792E-01 -0.31418796630E-01 -0.63751757993E-01  0.82256482353E-01  0.51100000000E-03 0. -1.
</event>
<event>
 8    1  0.1111182E+005  0.1043930E+01  0.7957747E-01            NaN
         13   -1    0    0    0    0  0.00000000000E+00  0.00000000000E+00  0.74505805969E-08  0.10566000000E+00  0.10566000000E+00 0. -1.
     999900   -1    0    0    0    0 -0.00000000000E+00 -0.00000000000E+00 -0.74505805969E-08  0.93827000000E+00  0.93827000000E+00 0.  1.
     999902    2    1    2    0    0  0.25518503002E-01  0.15940523909E-01 -0.31055648999E-02  0.10136820442E+01  0.10132306489E+01 0.  0.
     999903    2    3    3    0    0  0.18080540046E-02 -0.12027986172E+00  0.15052752012E-01  0.12270061714E+00  0.18929921020E-01 0.  0.
         14    1    1    2    0    0 -0.25518503002E-01 -0.15940523909E-01  0.31055648999E-02  0.30247955821E-01  0.00000000000E+00 0.  1.
     999901    1    3    3    0    0  0.23710448998E-01  0.13622038563E+00 -0.18158316912E-01  0.89098142704E+00  0.88000000000E+00 0. -1.
        -11    1    4    4    0    0 -0.39021761926E-02 -0.17849341873E-01 -0.30324849615E-02  0.18527899784E-01  0.51100000000E-03 0. -1.
         11    1    4    4    0    0  0.57102301973E-02 -0.10243051984E+00  0.18085236973E-01  0.10417271736E+00  0.51100000000E-03 0.  1.
</event>
<event>
 8    1  0.1111182E+005  0.1043930E+01  0.7957747E-01            NaN
         13   -1    0    0    0    0  0.00000000000E+00  0.00000000000E+00  0.74505805969E-08  0.10566000000E+00  0.10566000000E+00 0.  1.
     999900   -1    0    0    0    0 -0.00000000000E+00 -0.00000000000E+00 -0.74505805969E-08  0.93827000000E+00  0.93827000000E+00 0. -1.
     999902    2    1    2    0    0 -0.87270884755E-02  0.21162408635E-01 -0.58544726274E-02  0.10203019560E+01  0.10200283315E+01 0.  0.
     999903    2    3    3    0    0  0.36933215229E-01  0.10955257260E+00 -0.62473614596E-01  0.13288806631E+00  0.19759987224E-01 0.  0.
         14    1    1    2    0    0  0.87270884755E-02 -0.21162408635E-01  0.58544726274E-02  0.23628043978E-01  0.00000000000E+00 0. -1.
     999901    1    3    3    0    0 -0.45660303705E-01 -0.88390163968E-01  0.56619141969E-01  0.88741388971E+00  0.88000000000E+00 0.  1.
        -11    1    4    4    0    0  0.11426339062E-01  0.46679780138E-01 -0.16029305357E-01  0.50663229756E-01  0.51100000000E-03 0.  1.
         11    1    4    4    0    0  0.25506876168E-01  0.62872792465E-01 -0.46444309240E-01  0.82224836552E-01  0.51100000000E-03 0. -1.
</event>
<event>
 8    1  0.1111182E+005  0.1043930E+01  0.7957747E-01            NaN
         13   -1    0    0    0    0  0.00000000000E+00  0.00000000000E+00  0.74505805969E-08  0.10566000000E+00  0.10566000000E+00 0.  1.
     999900   -1    0    0    0    0 -0.00000000000E+00 -0.00000000000E+00 -0.74505805969E-08  0.93827000000E+00  0.93827000000E+00 0.  1.
     999902    2    1    2    0    0 -0.19768973120E-01 -0.27368738567E-02 -0.13807865513E-01  0.10196615034E+01  0.10193726608E+01 0.  0.
     999903    2    3    3    0    0  0.97317909259E-02 -0.10681424587E+00 -0.72747701636E-01  0.13108044423E+00  0.19643418515E-01 0.  0.
         14    1    1    2    0    0  0.19768973120E-01  0.27368738567E-02  0.13807865513E-01  0.24268496590E-01  0.00000000000E+00 0.  1.
     999901    1    3    3    0    0 -0.29500764046E-01  0.10407737202E+00  0.58939836123E-01  0.88858105918E+00  0.88000000000E+00 0.  1.
        -11    1    4    4    0    0  0.15052454551E-01 -0.81188505976E-01 -0.51050610521E-01  0.97080254667E-01  0.51100000000E-03 0.  1.
         11    1    4    4    0    0 -0.53206636255E-02 -0.25625739898E-01 -0.21697091114E-01  0.34000189567E-01  0.51100000000E-03 0. -1.
</event>
<event>
 8    1  0.1111182E+005  0.1043930E+01  0.7957747E-01            NaN
         13   -1    0    0    0    0  0.00000000000E+00  0.00000000000E+00  0.74505805969E-08  0.10566000000E+00  0.10566000000E+00 0. -1.
     999900   -1    0    0    0    0 -0.00000000000E+00 -0.00000000000E+00 -0.74505805969E-08  0.93827000000E+00  0.93827000000E+00 0. -1.
     999902    2    1    2    0    0 -0.78552345952E-02  0.12107231286E-01  0.18336841722E-01  0.10205948436E+01  0.10203280381E+01 0.  0.
     999903    2    3    3    0    0 -0.36273313342E-01  0.74455212549E-01 -0.98517530398E-01  0.13022986099E+00  0.19869095649E-01 0.  0.
         14    1    1    2    0    0  0.78552345952E-02 -0.12107231286E-01 -0.18336841722E-01  0.23335156401E-01  0.00000000000E+00 0.  1.
     999901    1    3    3    0    0  0.28418078747E-01 -0.62347981263E-01  0.11685437212E+00  0.89036498261E+00  0.88000000000E+00 0.  1.
        -11    1    4    4    0    0 -0.18994703504E-02  0.76335774095E-02 -0.20237068801E-01  0.21718185153E-01  0.51100000000E-03 0.  1.
         11    1    4    4    0    0 -0.34373842992E-01  0.66821635139E-01 -0.78280461597E-01  0.10851167584E+00  0.51100000000E-03 0. -1.
</event>
<event>
 8    1  0.1111182E+005  0.1043930E+01  0.7957747E-01            NaN
         13   -1    0    0    0    0  0.00000000000E+00  0.00000000000E+00  0.74505805969E-08  0.10566000000E+00  0.10566000000E+00 0. -1.
     999900   -1    0    0    0    0 -0.00000000000E+00 -0.00000000000E+00 -0.74505805969E-08  0.93827000000E+00  0.93827000000E+00 0.  1.
     999902    2    1    2    0    0 -0.10703559604E-01 -0.19142977433E-01  0.33037283310E-02  0.10217504059E+01  0.10215096463E+01 0.  0.
     999903    2    3    3    0    0  0.42707425945E-01 -0.16455763654E-01 -0.12119731393E+00  0.13137943602E+00  0.21841495288E-01 0.  0.
         14    1    1    2    0    0  0.10703559604E-01  0.19142977433E-01 -0.33037283310E-02  0.22179594092E-01  0.00000000000E+00 0.  1.
     999901    1    3    3    0    0 -0.53410985549E-01 -0.26872137797E-02  0.12450104226E+00  0.89037096989E+00  0.88000000000E+00 0. -1.
        -11    1    4    4    0    0  0.27741521597E-01 -0.20273847756E-01 -0.71396390143E-01  0.79235891929E-01  0.51100000000E-03 0.  1.
         11    1    4    4    0    0  0.14965904348E-01  0.38180841025E-02 -0.49800923788E-01  0.52143544090E-01  0.51100000000E-03 0. -1.
</event>
<event>
 8    1  0.1111182E+005  0.1043930E+01  0.7957747E-01            NaN
         13   -1    0    0    0    0  0.00000000000E+00  0.00000000000E+00  0.74505805969E-08  0.10566000000E+00  0.10566000000E+00 0. -1.
     999900   -1    0    0    0    0 -0.00000000000E+00 -0.00000000000E+00 -0.74505805969E-08  0.93827000000E+00  0.93827000000E+00 0. -1.
     999902    2    1    2    0    0  0.11531170575E-02 -0.12651275392E-01  0.20378124044E-01  0.10199164124E+01  0.10196336773E+01 0.  0.
     999903    2    3    3    0    0 -0.41595116695E-01 -0.11712779724E+00  0.41713106066E-01  0.13244926569E+00  0.18808246738E-01 0.  0.
         14    1    1    2    0    0 -0.11531170575E-02  0.12651275392E-01 -0.20378124044E-01  0.24013587561E-01  0.00000000000E+00 0.  1.
     999901    1    3    3    0    0  0.42748233753E-01  0.10447652184E+00 -0.21334982021E-01  0.88746714675E+00  0.88000000000E+00 0. -1.
        -11    1    4    4    0    0 -0.13575511763E-01 -0.31833603884E-01  0.32049218684E-02  0.34759250582E-01  0.51100000000E-03 0. -1.
         11    1    4    4    0    0 -0.28019604932E-01 -0.85294193352E-01  0.38508184197E-01  0.97690015105E-01  0.51100000000E-03 0.  1.
</event>
<event>
 8    1  0.1111182E+005  0.1043930E+01  0.7957747E-01            NaN
         13   -1    0    0    0    0  0.00000000000E+00  0.00000000000E+00  0.74505805969E-08  0.10566000000E+00  0.10566000000E+00 0. -1.
     999900   -1    0    0    0    0 -0.00000000000E+00 -0.00000000000E+00 -0.74505805969E-08  0.93827000000E+00  0.93827000000E+00 0. -1.
     999902    2    1    2    0    0 -0.22504829990E-01  0.84333838159E-03  0.82913614229E-02  0.10199315570E+01  0.10196491827E+01 0.  0.
     999903    2    3    3    0    0  0.91095313550E-01  0.37115302155E-01  0.80531816111E-01  0.12895494043E+00  0.21635652303E-01 0.  0.
         14    1    1    2    0    0  0.22504829990E-01 -0.84333838159E-03 -0.82913614229E-02  0.23998443007E-01  0.00000000000E+00 0.  1.
     999901    1    3    3    0    0 -0.11360014354E+00 -0.36271963773E-01 -0.72240454688E-01  0.89097661656E+00  0.88000000000E+00 0. -1.
        -11    1    4    4    0    0  0.83070057676E-01  0.33854631970E-01  0.63711182852E-01  0.11002793522E+00  0.51100000000E-03 0.  1.
         11    1    4    4    0    0  0.80252558736E-02  0.32606701846E-02  0.16820633258E-01  0.18927005207E-01  0.51100000000E-03 0. -1.
</event>
<event>
 8    1  0.1111182E+005  0.1043930E+01  0.7957747E-01            NaN
         13   -1    0    0    0    0  0.00000000000E+00  0.00000000000E+00  0.74505805969E-08  0.10566000000E+00  0.10566000000E+00 0.  1.
     999900   -1    0    0    0    0 -0.00000000000E+00 -0.00000000000E+00 -0.74505805969E-08  0.93827000000E+00  0.93827000000E+00 0.  1.
     999902    2    1    2    0    0 -0.96392190859E-02  0.19706566101E-01 -0.50945526321E-02  0.10214085045E+01  0.10211601810E+01 0.  0.
     999903    2    3    3    0    0  0.67396188699E-01 -0.10054821242E+00  0.39482413970E-01  0.12878161059E+00  0.19330104588E-01 0.  0.
         14    1    1    2    0    0  0.96392190859E-02 -0.19706566101E-01  0.50945526321E-02  0.22521495479E-01  0.00000000000E+00 0. -1.
     999901    1    3    3    0    0 -0.77035407785E-01  0.12025477852E+00 -0.44576966602E-01  0.89262689393E+00  0.88000000000E+00 0.  1.
        -11    1    4    4    0    0  0.54406233755E-01 -0.74482827374E-01  0.37553456555E-01  0.99590426574E-01  0.51100000000E-03 0.  1.
         11    1    4    4    0    0  0.12989954944E-01 -0.26065385042E-01  0.19289574154E-02  0.29191184021E-01  0.51100000000E-03 0. -1.
</event>
<event>
 8    1  0.1111182E+005  0.1043930E+01  0.7957747E-01            NaN
         13   -1    0    0    0    0  0.00000000000E+00  0.00000000000E+00  0.74505805969E-08  0.10566000000E+00  0.10566000000E+00 0.  1.
     999900   -1    0    0    0    0 -0.00000000000E+00 -0.00000000000E+00 -0.74505805969E-08  0.93827000000E+00  0.93827000000E+00 0.  1.
     999902    2    1    2    0    0  0.94985618442E-03 -0.11065915378E-01 -0.72882401926E-02  0.10306456048E+01  0.10305599874E+01 0.  0.
     999903    2    3    3    0    0  0.50728866764E-01 -0.25179164086E-01 -0.12773795864E+00  0.14093482690E+00  0.18391061132E-01 0.  0.
         14    1    1    2    0    0 -0.94985618442E-03  0.11065915378E-01  0.72882401926E-02  0.13284395170E-01  0.00000000000E+00 0.  1.
     999901    1    3    3    0    0 -0.49779010580E-01  0.14113248708E-01  0.12044971845E+00  0.88971077793E+00  0.88000000000E+00 0. -1.
        -11    1    4    4    0    0  0.22553404838E-01 -0.52337720676E-02 -0.34893945819E-01  0.41879553670E-01  0.51100000000E-03 0. -1.
         11    1    4    4    0    0  0.28175461927E-01 -0.19945392019E-01 -0.92844012822E-01  0.99055273234E-01  0.51100000000E-03 0.  1.
</event>
<event>
 8    1  0.1111182E+005  0.1043930E+01  0.7957747E-01            NaN
         13   -1    0    0    0    0  0.00000000000E+00  0.00000000000E+00  0.74505805969E-08  0.10566000000E+00  0.10566000000E+00 0.  1.
     999900   -1    0    0    0    0 -0.00000000000E+00 -0.00000000000E+00 -0.74505805969E-08  0.93827000000E+00  0.93827000000E+00 0.  1.
     999902    2    1    2    0    0 -0.20867968286E-02  0.54160883479E-02 -0.22436843285E-01  0.10207545675E+01  0.10204914436E+01 0.  0.
     999903    2    3    3    0    0 -0.51449027510E-01  0.30823836493E-01  0.11215536423E+00  0.12879198657E+00  0.20283953089E-01 0.  0.
         14    1    1    2    0    0  0.20867968286E-02 -0.54160883479E-02  0.22436843285E-01  0.23175432479E-01  0.00000000000E+00 0.  1.
     999901    1    3    3    0    0  0.49362230682E-01 -0.25407748146E-01 -0.13459220751E+00  0.89196258095E+00  0.88000000000E+00 0.  1.
        -11    1    4    4    0    0 -0.15682088335E-01  0.12389430156E-01  0.57812452745E-01  0.61171616682E-01  0.51100000000E-03 0. -1.
         11    1    4    4    0    0 -0.35766939175E-01  0.18434406338E-01  0.54342911483E-01  0.67620369893E-01  0.51100000000E-03 0.  1.
</event>
<event>
 8    1  0.1111182E+005  0.1043930E+01  0.7957747E-01            NaN
         13   -1    0    0    0    0  0.00000000000E+00  0.00000000000E+00  0.74505805969E-08  0.10566000000E+00  0.10566000000E+00 0.  1.
     999900   -1    0    0    0    0 -0.00000000000E+00 -0.00000000000E+00 -0.74505805969E-08  0.93827000000E+00  0.93827000000E+00 0. -1.
     999902    2    1    2    0    0 -0.21311035618E-01 -0.49959107292E-02  0.90943685051E-02  0.10202271120E+01  0.10199517308E+01 0.  0.
     999903    2    3    3    0    0 -0.56713137491E-01 -0.11528901325E+00  0.25219408625E-01  0.13248959771E+00  0.20237054889E-01 0.  0.
         14    1    1    2    0    0  0.21311035618E-01  0.49959107292E-02 -0.90943685051E-02  0.23702888044E-01  0.00000000000E+00 0.  1.
     999901    1    3    3    0    0  0.35402101873E-01  0.11029310252E+00 -0.16125040120E-01  0.88773751425E+00  0.88000000000E+00 0. -1.
        -11    1    4    4    0    0 -0.37223710253E-01 -0.89919565889E-01  0.25051842801E-01  0.10049372559E+00  0.51100000000E-03 0.  1.
         11    1    4    4    0    0 -0.19489427238E-01 -0.25369447358E-01  0.16756582364E-03  0.31995872118E-01  0.51100000000E-03 0. -1.
</event>
<event>
 8    1  0.1111182E+005  0.1043930E+01  0.7957747E-01            NaN
         13   -1    0    0    0    0  0.00000000000E+00  0.00000000000E+00  0.74505805969E-08  0.10566000000E+00  0.10566000000E+00 0.  1.
     999900   -1    0    0    0    0 -0.00000000000E+00 -0.00000000000E+00 -0.74505805969E-08  0.93827000000E+00  0.93827000000E+00 0.  1.
     999902    2    1    2    0    0  0.19955491398E-01  0.59478106905E-02 -0.86242535752E-02  0.10213916807E+01  0.10211429819E+01 0.  0.
     999903    2    3    3    0    0 -0.11723667617E+00 -0.49670207791E-01  0.22829620429E-02  0.12896015826E+00  0.20345582349E-01 0.  0.
         14    1    1    2    0    0 -0.19955491398E-01 -0.59478106905E-02  0.86242535752E-02  0.22538319340E-01  0.00000000000E+00 0.  1.
     999901    1    3    3    0    0  0.13719216757E+00  0.55618018481E-01 -0.10907215618E-01  0.89243152240E+00  0.88000000000E+00 0.  1.
        -11    1    4    4    0    0 -0.69093018629E-01 -0.35667207452E-01 -0.66028915725E-02  0.78037517957E-01  0.51100000000E-03 0.  1.
         11    1    4    4    0    0 -0.48143657541E-01 -0.14003000339E-01  0.88858536154E-02  0.50922640302E-01  0.51100000000E-03 0. -1.
</event>
<event>
 8    1  0.1111182E+005  0.1043930E+01  0.7957747E-01            NaN
         13   -1    0    0    0    0  0.00000000000E+00  0.00000000000E+00  0.74505805969E-08  0.10566000000E+00  0.10566000000E+00 0.  1.
     999900   -1    0    0    0    0 -0.00000000000E+00 -0.00000000000E+00 -0.74505805969E-08  0.93827000000E+00  0.93827000000E+00 0. -1.
     999902    2    1    2    0    0  0.20773787783E-01  0.31410179893E-03 -0.92422132067E-02  0.10211908834E+01  0.10209376832E+01 0.  0.
     999903    2    3    3    0    0 -0.12014055580E-03 -0.41122943987E-01  0.12194326495E+00  0.13025698311E+00  0.20139782200E-01 0.  0.
         14    1    1    2    0    0 -0.20773787783E-01 -0.31410179893E-03  0.92422132067E-02  0.22739116600E-01  0.00000000000E+00 0. -1.
     999901    1    3    3    0    0  0.20893928339E-01  0.41437045785E-01 -0.13118547816E+00  0.89093390029E+00  0.88000000000E+00 0. -1.
        -11    1    4    4    0    0 -0.66325385001E-02 -0.36006385270E-02  0.24234735439E-01  0.25387766494E-01  0.51100000000E-03 0. -1.
         11    1    4    4    0    0  0.65123979443E-02 -0.37522305460E-01  0.97708529510E-01  0.10486921662E+00  0.51100000000E-03 0.  1.
</event>
<event>
 8    1  0.1111182E+005  0.1043930E+01  0.7957747E-01            NaN
         13   -1    0    0    0    0  0.00000000000E+00  0.00000000000E+00  0.74505805969E-08  0.10566000000E+00  0.10566000000E+00 0. -1.
     999900   -1    0    0    0    0 -0.00000000000E+00 -0.00000000000E+00 -0.74505805969E-08  0.93827000000E+00  0.93827000000E+00 0. -1.
     999902    2    1    2    0    0  0.20384830236E-01  0.41972630807E-02 -0.12037122574E-01  0.10198873163E+01  0.10196038874E+01 0.  0.
     999903    2    3    3    0    0 -0.38069086293E-01  0.85462184994E-01 -0.89331030041E-01  0.13084558720E+00  0.19684876607E-01 0.  0.
         14    1    1    2    0    0 -0.20384830236E-01 -0.41972630807E-02  0.12037122574E-01  0.24042683731E-01  0.00000000000E+00 0. -1.
     999901    1    3    3    0    0  0.58453916529E-01 -0.81264921913E-01  0.77293907466E-01  0.88904172907E+00  0.88000000000E+00 0. -1.
        -11    1    4    4    0    0 -0.15718302755E-01  0.24640513522E-01 -0.17347362676E-01  0.33991352738E-01  0.51100000000E-03 0. -1.
         11    1    4    4    0    0 -0.22350783538E-01  0.60821671472E-01 -0.71983667365E-01  0.96854234464E-01  0.51100000000E-03 0.  1.
</event>
<event>
 8    1  0.1111182E+005  0.1043930E+01  0.7957747E-01            NaN
         13   -1    0    0    0    0  0.00000000000E+00  0.00000000000E+00  0.74505805969E-08  0.10566000000E+00  0.10566000000E+00 0.  1.
     999900   -1    0    0    0    0 -0.00000000000E+00 -0.00000000000E+00 -0.74505805969E-08  0.93827000000E+00  0.93827000000E+00 0.  1.
     999902    2    1    2    0    0  0.19220718608E-01  0.16173856319E-01  0.11832194507E-01  0.10161625644E+01  0.10157831101E+01 0.  0.
     999903    2    3    3    0    0 -0.12133253175E+00 -0.51558076611E-02 -0.17478281778E-01  0.12427172201E+00  0.19743478506E-01 0.  0.
         14    1    1    2    0    0 -0.19220718608E-01 -0.16173856319E-01 -0.11832194507E-01  0.27767435584E-01  0.00000000000E+00 0. -1.
     999901    1    3    3    0    0  0.14055325036E+00  0.21329663981E-01  0.29310476285E-01  0.89189084241E+00  0.88000000000E+00 0.  1.
        -11    1    4    4    0    0 -0.75875734065E-01  0.41312357317E-02 -0.46479982386E-02  0.76131853631E-01  0.51100000000E-03 0. -1.
         11    1    4    4    0    0 -0.45456797684E-01 -0.92870433928E-02 -0.12830283539E-01  0.48139868377E-01  0.51100000000E-03 0.  1.
</event>
<event>
 8    1  0.1111182E+005  0.1043930E+01  0.7957747E-01            NaN
         13   -1    0    0    0    0  0.00000000000E+00  0.00000000000E+00  0.74505805969E-08  0.10566000000E+00  0.10566000000E+00 0. -1.
     999900   -1    0    0    0    0 -0.00000000000E+00 -0.00000000000E+00 -0.74505805969E-08  0.93827000000E+00  0.93827000000E+00 0. -1.
     999902    2    1    2    0    0  0.31931798605E-03 -0.17366190314E-01  0.16475022439E-01  0.10199902236E+01  0.10197092445E+01 0.  0.
     999903    2    3    3    0    0 -0.51802846216E-01  0.10505232632E+00  0.51388744274E-01  0.12930398187E+00  0.18952323057E-01 0.  0.
         14    1    1    2    0    0 -0.31931798605E-03  0.17366190314E-01 -0.16475022439E-01  0.23939776406E-01  0.00000000000E+00 0.  1.
     999901    1    3    3    0    0  0.52122164202E-01 -0.12241851663E+00 -0.34913721835E-01  0.89068624172E+00  0.88000000000E+00 0. -1.
        -11    1    4    4    0    0 -0.50259107730E-01  0.91789124402E-01  0.49645826558E-01  0.11582828016E+00  0.51100000000E-03 0.  1.
         11    1    4    4    0    0 -0.15437384859E-02  0.13263201918E-01  0.17429177150E-02  0.13475701718E-01  0.51100000000E-03 0. -1.
</event>
<event>
 8    1  0.1111182E+005  0.1043930E+01  0.7957747E-01            NaN
         13   -1    0    0    0    0  0.00000000000E+00  0.00000000000E+00  0.74505805969E-08  0.10566000000E+00  0.10566000000E+00 0.  1.
     999900   -1    0    0    0    0 -0.00000000000E+00 -0.00000000000E+00 -0.74505805969E-08  0.93827000000E+00  0.93827000000E+00 0.  1.
     999902    2    1    2    0    0  0.13723390902E-01  0.17433465156E-01 -0.89288311967E-02  0.10200138717E+01  0.10197334541E+01 0.  0.
     999903    2    3    3    0    0  0.81742172435E-01 -0.71540237219E-01 -0.70410355687E-01  0.13078788683E+00  0.18656496397E-01 0.  0.
         14    1    1    2    0    0 -0.13723390902E-01 -0.17433465156E-01  0.89288311967E-02  0.23916128276E-01  0.00000000000E+00 0.  1.
     999901    1    3    3    0    0 -0.68018781533E-01  0.88973702375E-01  0.61481524490E-01  0.88922598489E+00  0.88000000000E+00 0. -1.
        -11    1    4    4    0    0  0.48262076970E-01 -0.44394050558E-01 -0.31635934709E-01  0.72809019251E-01  0.51100000000E-03 0. -1.
         11    1    4    4    0    0  0.33480095465E-01 -0.27146186661E-01 -0.38774420978E-01  0.57978867579E-01  0.51100000000E-03 0.  1.
</event>
<event>
 8    1  0.1111182E+005  0.1043930E+01  0.7957747E-01            NaN
         13   -1    0    0    0    0  0.00000000000E+00  0.00000000000E+00  0.74505805969E-08  0.10566000000E+00  0.10566000000E+00 0. -1.
     999900   -1    0    0    0    0 -0.00000000000E+00 -0.00000000000E+00 -0.74505805969E-08  0.93827000000E+00  0.93827000000E+00 0.  1.
     999902    2    1    2    0    0 -0.73368571080E-02  0.16656919756E-01 -0.15013724960E-01  0.10203356281E+01  0.10200627920E+01 0.  0.
     999903    2    3    3    0    0  0.10601046508E+00  0.26977347430E-01 -0.69475337369E-01  0.13133608148E+00  0.21362298940E-01 0.  0.
         14    1    1    2    0    0  0.73368571080E-02 -0.16656919756E-01  0.15013724960E-01  0.23594371896E-01  0.00000000000E+00 0. -1.
     999901    1    3    3    0    0 -0.11334732218E+00 -0.10320427674E-01  0.54461612409E-01  0.88899954663E+00  0.88000000000E+00 0. -1.
        -11    1    4    4    0    0  0.53131647214E-01  0.24237454685E-01 -0.39243375273E-01  0.70361422449E-01  0.51100000000E-03 0.  1.
         11    1    4    4    0    0  0.52878817861E-01  0.27398927451E-02 -0.30231962096E-01  0.60974659030E-01  0.51100000000E-03 0. -1.
</event>
<event>
 8    1  0.1111182E+005  0.1043930E+01  0.7957747E-01            NaN
         13   -1    0    0    0    0  0.00000000000E+00  0.00000000000E+00  0.74505805969E-08  0.10566000000E+00  0.10566000000E+00 0.  1.
     999900   -1    0    0    0    0 -0.00000000000E+00 -0.00000000000E+00 -0.74505805969E-08  0.93827000000E+00  0.93827000000E+00 0.  1.
     999902    2    1    2    0    0 -0.13062482764E-01  0.19052623746E-01 -0.66226622208E-02  0.10198989663E+01  0.10196158153E+01 0.  0.
     999903    2    3    3    0    0  0.66282076782E-01  0.11143217948E+00 -0.65238104206E-02  0.13151304156E+00  0.21039859078E-01 0.  0.
         14    1    1    2    0    0  0.13062482764E-01 -0.19052623746E-01  0.66226622208E-02  0.24031033736E-01  0.00000000000E+00 0. -1.
     999901    1    3    3    0    0 -0.79344559546E-01 -0.92379555737E-01 -0.98851800265E-04  0.88838592471E+00  0.88000000000E+00 0.  1.
        -11    1    4    4    0    0  0.45306556518E-01  0.78843059019E-01  0.50133379642E-02  0.91073084375E-01  0.51100000000E-03 0. -1.
         11    1    4    4    0    0  0.20975520265E-01  0.32589120463E-01 -0.11537148385E-01  0.40439957181E-01  0.51100000000E-03 0.  1.
</event>
<event>
 8    1  0.1111182E+005  0.1043930E+01  0.7957747E-01            NaN
         13   -1    0    0    0    0  0.00000000000E+00  0.00000000000E+00  0.74505805969E-08  0.10566000000E+00  0.10566000000E+00 0.  1.
     999900   -1    0    0    0    0 -0.00000000000E+00 -0.00000000000E+00 -0.74505805969E-08  0.93827000000E+00  0.93827000000E+00 0. -1.
     999902    2    1    2    0    0 -0.22679480858E-01  0.12660412846E-02  0.53422300797E-02  0.10205954519E+01  0.10203286604E+01 0.  0.
     999903    2    3    3    0    0  0.10981060883E+00  0.46119544266E-01 -0.43149219953E-01  0.12822956208E+00  0.19889274371E-01 0.  0.
         14    1    1    2    0    0  0.22679480858E-01 -0.12660412846E-02 -0.53422300797E-02  0.23334548094E-01  0.00000000000E+00 0.  1.
     999901    1    3    3    0    0 -0.13249008969E+00 -0.44853502981E-01  0.48491450032E-01  0.89236588982E+00  0.88000000000E+00 0. -1.
        -11    1    4    4    0    0  0.47160244109E-01  0.27503191576E-01 -0.12346418355E-01  0.55975077834E-01  0.51100000000E-03 0.  1.
         11    1    4    4    0    0  0.62650364718E-01  0.18616352690E-01 -0.30802801598E-01  0.72254484249E-01  0.51100000000E-03 0. -1.
</event>
<event>
 7    1  0.1111182E+005  0.1043930E+01  0.7957747E-01            NaN
         13   -1    0    0    0    0  0.00000000000E+00  0.00000000000E+00  0.74505805969E-08  0.10566000000E+00  0.10566000000E+00 0.  1.
     999900   -1    0    0    0    0 -0.00000000000E+00 -0.00000000000E+00 -0.74505805969E-08  0.93827000000E+00  0.93827000000E+00 0. -1.
     999903    2    1    2    0    0 -0.45488363583E-01  0.72242667270E-01  0.72652957761E-01  0.11375212280E+00  0.19310592259E-01 0.  0.
         14    1    1    2    0    0  0.91979229477E-02 -0.25717810386E-01  0.31935380474E-01  0.42022328393E-01  0.00000000000E+00 0. -1.
     999901    1    1    2    0    0  0.36290440635E-01 -0.46524856884E-01 -0.10458833823E+00  0.88815554881E+00  0.88000000000E+00 0. -1.
        -11    1    3    3    0    0 -0.33153301773E-01  0.65487146910E-01  0.62373738047E-01  0.96324722412E-01  0.51100000000E-03 0.  1.
         11    1    3    3    0    0 -0.12335061811E-01  0.67555203603E-02  0.10279219714E-01  0.17427400384E-01  0.51100000000E-03 0. -1.
</event>
<event>
 8    1  0.1111182E+005  0.1043930E+01  0.7957747E-01            NaN
         13   -1    0    0    0    0  0.00000000000E+00  0.00000000000E+00  0.74505805969E-08  0.10566000000E+00  0.10566000000E+00 0. -1.
     999900   -1    0    0    0    0 -0.00000000000E+00 -0.00000000000E+00 -0.74505805969E-08  0.93827000000E+00  0.93827000000E+00 0.  1.
     999902    2    1    2    0    0  0.24043048050E-01  0.14087840148E-01  0.35770837951E-02  0.10158349661E+01  0.10154463784E+01 0.  0.
     999903    2    3    3    0    0 -0.58357804402E-02 -0.12044961516E+00 -0.25265556208E-01  0.12464196282E+00  0.18844214969E-01 0.  0.
         14    1    1    2    0    0 -0.24043048050E-01 -0.14087840148E-01 -0.35770837951E-02  0.28095033869E-01  0.00000000000E+00 0.  1.
     999901    1    3    3    0    0  0.29878828491E-01  0.13453745531E+00  0.28842640003E-01  0.89119300331E+00  0.88000000000E+00 0. -1.
        -11    1    4    4    0    0  0.55195040322E-02 -0.67665061789E-01 -0.17317469985E-01  0.70065550731E-01  0.51100000000E-03 0.  1.
         11    1    4    4    0    0 -0.11355284472E-01 -0.52784553376E-01 -0.79480862234E-02  0.54576412086E-01  0.51100000000E-03 0. -1.
</event>
<event>
 8    1  0.1111182E+005  0.1043930E+01  0.7957747E-01            NaN
         13   -1    0    0    0    0  0.00000000000E+00  0.00000000000E+00  0.74505805969E-08  0.10566000000E+00  0.10566000000E+00 0.  1.
     999900   -1    0    0    0    0 -0.00000000000E+00 -0.00000000000E+00 -0.74505805969E-08  0.93827000000E+00  0.93827000000E+00 0. -1.
     999902    2    1    2    0    0 -0.18479041189E-02  0.14762198681E-01 -0.18555497963E-01  0.10201467335E+01  0.10198694594E+01 0.  0.
     999903    2    3    3    0    0 -0.36806950623E-01 -0.88900755191E-01 -0.85710951521E-01  0.13083351655E+00  0.22648310216E-01 0.  0.
         14    1    1    2    0    0  0.18479041189E-02 -0.14762198681E-01  0.18555497963E-01  0.23783266474E-01  0.00000000000E+00 0. -1.
     999901    1    3    3    0    0  0.34959046504E-01  0.10366295387E+00  0.67155453558E-01  0.88931321697E+00  0.88000000000E+00 0.  1.
        -11    1    4    4    0    0 -0.30829943411E-01 -0.63269432472E-01 -0.49419697085E-01  0.86000430679E-01  0.51100000000E-03 0.  1.
         11    1    4    4    0    0 -0.59770072121E-02 -0.25631322719E-01 -0.36291254436E-01  0.44833085875E-01  0.51100000000E-03 0. -1.
</event>
<event>
 8    1  0.1111182E+005  0.1043930E+01  0.7957747E-01            NaN
         13   -1    0    0    0    0  0.00000000000E+00  0.00000000000E+00  0.74505805969E-08  0.10566000000E+00  0.10566000000E+00 0.  1.
     999900   -1    0    0    0    0 -0.00000000000E+00 -0.00000000000E+00 -0.74505805969E-08  0.93827000000E+00  0.93827000000E+00 0.  1.
     999902    2    1    2    0    0 -0.17825747427E-01 -0.13606501223E-01 -0.84823645397E-02  0.10199540818E+01  0.10196722435E+01 0.  0.
     999903    2    3    3    0    0  0.10485503313E+00 -0.65631082998E-01 -0.33272411179E-01  0.12957681485E+00  0.19521285165E-01 0.  0.
         14    1    1    2    0    0  0.17825747427E-01  0.13606501223E-01  0.84823645397E-02  0.23975918232E-01  0.00000000000E+00 0.  1.
     999901    1    3    3    0    0 -0.12268078055E+00  0.52024581775E-01  0.24790046640E-01  0.89037726691E+00  0.88000000000E+00 0.  1.
        -11    1    4    4    0    0  0.76161919674E-01 -0.53955536666E-01 -0.18092197142E-01  0.95075899490E-01  0.51100000000E-03 0. -1.
         11    1    4    4    0    0  0.28693113452E-01 -0.11675546332E-01 -0.15180214037E-01  0.34500915364E-01  0.51100000000E-03 0.  1.
</event>
<event>
 8    1  0.1111182E+005  0.1043930E+01  0.7957747E-01            NaN
         13   -1    0    0    0    0  0.00000000000E+00  0.00000000000E+00  0.74505805969E-08  0.10566000000E+00  0.10566000000E+00 0. -1.
     999900   -1    0    0    0    0 -0.00000000000E+00 -0.00000000000E+00 -0.74505805969E-08  0.93827000000E+00  0.93827000000E+00 0. -1.
     999902    2    1    2    0    0 -0.59018834322E-02 -0.22476768445E-01  0.10663564654E-02  0.10206668432E+01  0.10204017005E+01 0.  0.
     999903    2    3    3    0    0  0.96003888644E-01  0.12254023678E-01 -0.84420836728E-01  0.12999346059E+00  0.20112543137E-01 0.  0.
         14    1    1    2    0    0  0.59018834322E-02  0.22476768445E-01 -0.10663564654E-02  0.23263156791E-01  0.00000000000E+00 0.  1.
     999901    1    3    3    0    0 -0.10190577208E+00 -0.34730792123E-01  0.85487193194E-01  0.89067338262E+00  0.88000000000E+00 0.  1.
        -11    1    4    4    0    0  0.28862522458E-01  0.99501270326E-02 -0.17623438495E-01  0.35254743454E-01  0.51100000000E-03 0. -1.
         11    1    4    4    0    0  0.67141366186E-01  0.23038966452E-02 -0.66797398233E-01  0.94738717137E-01  0.51100000000E-03 0.  1.
</event>
<event>
 8    1  0.1111182E+005  0.1043930E+01  0.7957747E-01            NaN
         13   -1    0    0    0    0  0.00000000000E+00  0.00000000000E+00  0.74505805969E-08  0.10566000000E+00  0.10566000000E+00 0. -1.
     999900   -1    0    0    0    0 -0.00000000000E+00 -0.00000000000E+00 -0.74505805969E-08  0.93827000000E+00  0.93827000000E+00 0. -1.
     999902    2    1    2    0    0 -0.22791881962E-01  0.30432801113E-03  0.63000671849E-02  0.10202814621E+01  0.10200073571E+01 0.  0.
     999903    2    3    3    0    0 -0.10528019644E+00 -0.73444158391E-01  0.28528610452E-01  0.13307389370E+00  0.20416057527E-01 0.  0.
         14    1    1    2    0    0  0.22791881962E-01 -0.30432801113E-03 -0.63000671849E-02  0.23648537914E-01  0.00000000000E+00 0.  1.
     999901    1    3    3    0    0  0.82488314478E-01  0.73748486402E-01 -0.22228543267E-01  0.88720756839E+00  0.88000000000E+00 0. -1.
        -11    1    4    4    0    0 -0.66509465401E-01 -0.34453647156E-01  0.14051770609E-01  0.76212047397E-01  0.51100000000E-03 0.  1.
         11    1    4    4    0    0 -0.38770731040E-01 -0.38990511235E-01  0.14476839843E-01  0.56861846299E-01  0.51100000000E-03 0. -1.
</event>
<event>
 8    1  0.1291909E+005  0.1043930E+01  0.7957747E-01            NaN
         13   -1    0    0    0    0  0.00000000000E+00  0.00000000000E+00  0.74505805969E-08  0.10566000000E+00  0.10566000000E+00 0. -1.
     999900   -1    0    0    0    0 -0.00000000000E+00 -0.00000000000E+00 -0.74505805969E-08  0.93827000000E+00  0.93827000000E+00 0. -1.
     999902    2    1    2    0    0  0.49260312940E-02  0.50041154814E-02  0.21173944262E-01  0.10216220895E+01  0.10213785052E+01 0.  0.
     999903    2    3    3    0    0  0.75843073280E-01 -0.10438087900E+00  0.19692648403E-01  0.13201740306E+00  0.19830649157E-01 0.  0.
         14    1    1    2    0    0 -0.49260312940E-02 -0.50041154814E-02 -0.21173944262E-01  0.22307910518E-01  0.00000000000E+00 0.  1.
     999901    1    3    3    0    0 -0.70917041986E-01  0.10938499448E+00  0.14812958587E-02  0.88960468642E+00  0.88000000000E+00 0. -1.
        -11    1    4    4    0    0  0.60213259483E-01 -0.67729545494E-01  0.11746464179E-01  0.91384727893E-01  0.51100000000E-03 0.  1.
         11    1    4    4    0    0  0.15629813798E-01 -0.36651333501E-01  0.79461842246E-02  0.40632675170E-01  0.51100000000E-03 0. -1.
</event>
<event>
 8    1  0.1111182E+005  0.1043930E+01  0.7957747E-01            NaN
         13   -1    0    0    0    0  0.00000000000E+00  0.00000000000E+00  0.74505805969E-08  0.10566000000E+00  0.10566000000E+00 0. -1.
     999900   -1    0    0    0    0 -0.00000000000E+00 -0.00000000000E+00 -0.74505805969E-08  0.93827000000E+00  0.93827000000E+00 0.  1.
     999902    2    1    2    0    0 -0.19912489367E-01  0.10271580181E-01 -0.67021270952E-02  0.10205434419E+01  0.10202754460E+01 0.  0.
     999903    2    3    3    0    0  0.61093179416E-01  0.10797107868E+00  0.35435915264E-01  0.13044079333E+00  0.19208489548E-01 0.  0.
         14    1    1    2    0    0  0.19912489367E-01 -0.10271580181E-01  0.67021270952E-02  0.23386558101E-01  0.00000000000E+00 0.  1.
     999901    1    3    3    0    0 -0.81005668783E-01 -0.97699498498E-01 -0.42138042359E-01  0.89010264857E+00  0.88000000000E+00 0.  1.
        -11    1    4    4    0    0  0.48629713169E-01  0.96558178063E-01  0.34590261801E-01  0.11351245785E+00  0.51100000000E-03 0. -1.
         11    1    4    4    0    0  0.12463466247E-01  0.11412900617E-01  0.84565346297E-03  0.16928335481E-01  0.51100000000E-03 0.  1.
</event>
<event>
 8    1  0.1111182E+005  0.1043930E+01  0.7957747E-01            NaN
         13   -1    0    0    0    0  0.00000000000E+00  0.00000000000E+00  0.74505805969E-08  0.10566000000E+00  0.10566000000E+00 0.  1.
     999900   -1    0    0    0    0 -0.00000000000E+00 -0.00000000000E+00 -0.74505805969E-08  0.93827000000E+00  0.93827000000E+00 0.  1.
     999902    2    1    2    0    0 -0.26202011492E-02 -0.24814938937E-01 -0.37478235397E-02  0.10186972271E+01  0.10183846757E+01 0.  0.
     999903    2    3    3    0    0  0.42965618208E-01  0.68730085673E-01  0.95644054555E-01  0.12700923007E+00  0.20339378740E-01 0.  0.
         14    1    1    2    0    0  0.26202011492E-02  0.24814938937E-01  0.37478235397E-02  0.25232772931E-01  0.00000000000E+00 0. -1.
     999901    1    3    3    0    0 -0.45585819357E-01 -0.93545024610E-01 -0.99391878094E-01  0.89168799700E+00  0.88000000000E+00 0.  1.
        -11    1    4    4    0    0  0.25327674452E-01  0.41126762849E-01  0.71607996065E-01  0.86376315834E-01  0.51100000000E-03 0.  1.
         11    1    4    4    0    0  0.17637943756E-01  0.27603322824E-01  0.24036058489E-01  0.40632914239E-01  0.51100000000E-03 0. -1.
</event>
<event>
 8    1  0.1111182E+005  0.1043930E+01  0.7957747E-01            NaN
         13   -1    0    0    0    0  0.00000000000E+00  0.00000000000E+00  0.74505805969E-08  0.10566000000E+00  0.10566000000E+00 0.  1.
     999900   -1    0    0    0    0 -0.00000000000E+00 -0.00000000000E+00 -0.74505805969E-08  0.93827000000E+00  0.93827000000E+00 0.  1.
     999902    2    1    2    0    0  0.16604782334E-01 -0.14521260157E-01  0.37022798180E-02  0.10215627769E+01  0.10213178812E+01 0.  0.
     999903    2    3    3    0    0 -0.76826774039E-01 -0.83492279407E-01  0.64156302332E-01  0.13187679520E+00  0.20053529673E-01 0.  0.
         14    1    1    2    0    0 -0.16604782334E-01  0.14521260157E-01 -0.37022798180E-02  0.22367223090E-01  0.00000000000E+00 0.  1.
     999901    1    3    3    0    0  0.93431556373E-01  0.68971019250E-01 -0.60454022514E-01  0.88968598172E+00  0.88000000000E+00 0.  1.
        -11    1    4    4    0    0 -0.31799626531E-01 -0.33132604810E-01  0.14944390302E-01  0.48296808088E-01  0.51100000000E-03 0. -1.
         11    1    4    4    0    0 -0.45027147508E-01 -0.50359674597E-01  0.49211912030E-01  0.83579987107E-01  0.51100000000E-03 0.  1.
</event>
<event>
 8    1  0.1111182E+005  0.1043930E+01  0.7957747E-01            NaN
         13   -1    0    0    0    0  0.00000000000E+00  0.00000000000E+00  0.74505805969E-08  0.10566000000E+00  0.10566000000E+00 0.  1.
     999900   -1    0    0    0    0 -0.00000000000E+00 -0.00000000000E+00 -0.74505805969E-08  0.93827000000E+00  0.93827000000E+00 0. -1.
     999902    2    1    2    0    0 -0.81432568766E-02  0.21132611262E-01  0.41681742552E-02  0.10209023304E+01  0.10206425891E+01 0.  0.
     999903    2    3    3    0    0  0.12694277766E+00  0.15002650979E-01  0.17147494444E-01  0.13047868071E+00  0.19776279199E-01 0.  0.
         14    1    1    2    0    0  0.81432568766E-02 -0.21132611262E-01 -0.41681742552E-02  0.23027669616E-01  0.00000000000E+00 0.  1.
     999901    1    3    3    0    0 -0.13508603454E+00  0.61299602829E-02 -0.12979320189E-01  0.89042364967E+00  0.88000000000E+00 0. -1.
        -11    1    4    4    0    0  0.10854156502E+00  0.16312383167E-01  0.84770445009E-02  0.11008853976E+00  0.51100000000E-03 0. -1.
         11    1    4    4    0    0  0.18401212638E-01 -0.13097321874E-02  0.86704499430E-02  0.20390140955E-01  0.51100000000E-03 0.  1.
</event>
<event>
 8    1  0.1111182E+005  0.1043930E+01  0.7957747E-01            NaN
         13   -1    0    0    0    0  0.00000000000E+00  0.00000000000E+00  0.74505805969E-08  0.10566000000E+00  0.10566000000E+00 0. -1.
     999900   -1    0    0    0    0 -0.00000000000E+00 -0.00000000000E+00 -0.74505805969E-08  0.93827000000E+00  0.93827000000E+00 0.  1.
     999902    2    1    2    0    0 -0.72055275893E-02  0.22084263516E-01  0.74344079853E-02  0.10195393308E+01  0.10192475373E+01 0.  0.
     999903    2    3    3    0    0 -0.12918496772E+00  0.72049544286E-02  0.44049549265E-02  0.13099582862E+00  0.19995905398E-01 0.  0.
         14    1    1    2    0    0  0.72055275893E-02 -0.22084263516E-01 -0.74344079853E-02  0.24390669220E-01  0.00000000000E+00 0.  1.
     999901    1    3    3    0    0  0.12197944013E+00  0.14879309087E-01  0.30294530587E-02  0.88854350217E+00  0.88000000000E+00 0.  1.
        -11    1    4    4    0    0 -0.88305425608E-01  0.10664862942E-03  0.10968461098E-01  0.88985548408E-01  0.51100000000E-03 0.  1.
         11    1    4    4    0    0 -0.40879542116E-01  0.70983057991E-02 -0.65635061710E-02  0.42010280207E-01  0.51100000000E-03 0. -1.
</event>
<event>
 8    1  0.1111182E+005  0.1043930E+01  0.7957747E-01            NaN
         13   -1    0    0    0    0  0.00000000000E+00  0.00000000000E+00  0.74505805969E-08  0.10566000000E+00  0.10566000000E+00 0. -1.
     999900   -1    0    0    0    0 -0.00000000000E+00 -0.00000000000E+00 -0.74505805969E-08  0.93827000000E+00  0.93827000000E+00 0.  1.
     999902    2    1    2    0    0  0.39751787395E-02 -0.22750205565E-01  0.42270596525E-02  0.10204514580E+01  0.10201813252E+01 0.  0.
     999903    2    3    3    0    0  0.12757876449E+00  0.20654669306E-01  0.57359458153E-03  0.13074635106E+00  0.19781880432E-01 0.  0.
         14    1    1    2    0    0 -0.39751787395E-02  0.22750205565E-01 -0.42270596525E-02  0.23478541960E-01  0.00000000000E+00 0. -1.
     999901    1    3    3    0    0 -0.12360358575E+00 -0.43404874872E-01  0.36534650710E-02  0.88970510698E+00  0.88000000000E+00 0.  1.
        -11    1    4    4    0    0  0.10037981699E+00  0.14235899965E-01 -0.74724798080E-02  0.10166055076E+00  0.51100000000E-03 0. -1.
         11    1    4    4    0    0  0.27198947500E-01  0.64187693414E-02  0.80460743895E-02  0.29085800299E-01  0.51100000000E-03 0.  1.
</event>
<event>
 7    1  0.1656665E+005  0.1043930E+01  0.7957747E-01            NaN
         13   -1    0    0    0    0  0.00000000000E+00  0.00000000000E+00  0.74505805969E-08  0.10566000000E+00  0.10566000000E+00 0.  1.
     999900   -1    0    0    0    0 -0.00000000000E+00 -0.00000000000E+00 -0.74505805969E-08  0.93827000000E+00  0.93827000000E+00 0.  1.
     999903    2    1    2    0    0 -0.90001125904E-01 -0.39502750029E-01  0.18688375843E-01  0.10220887515E+00  0.20898058368E-01 0.  0.
         14    1    1    2    0    0  0.43723100561E-01 -0.22083563037E-01 -0.31544903089E-01  0.58262116250E-01  0.00000000000E+00 0. -1.
     999901    1    1    2    0    0  0.46278025342E-01  0.61586313067E-01  0.12856527246E-01  0.88345900860E+00  0.88000000000E+00 0.  1.
        -11    1    3    3    0    0 -0.39060704263E-01 -0.28027134911E-01  0.12082043239E-01  0.49573135857E-01  0.51100000000E-03 0. -1.
         11    1    3    3    0    0 -0.50940421640E-01 -0.11475615118E-01  0.66063326037E-02  0.52635739291E-01  0.51100000000E-03 0.  1.
</event>
<event>
 8    1  0.1111182E+005  0.1043930E+01  0.7957747E-01            NaN
         13   -1    0    0    0    0  0.00000000000E+00  0.00000000000E+00  0.74505805969E-08  0.10566000000E+00  0.10566000000E+00 0. -1.
     999900   -1    0    0    0    0 -0.00000000000E+00 -0.00000000000E+00 -0.74505805969E-08  0.93827000000E+00  0.93827000000E+00 0. -1.
     999902    2    1    2    0    0  0.54513235554E-02 -0.49644182931E-02  0.22616550159E-01  0.10201419627E+01  0.10198645760E+01 0.  0.
     999903    2    3    3    0    0 -0.12532351655E+00 -0.23478763355E-01 -0.13760829615E-01  0.12954207861E+00  0.18290805652E-01 0.  0.
         14    1    1    2    0    0 -0.54513235554E-02  0.49644182931E-02 -0.22616550159E-01  0.23788037300E-01  0.00000000000E+00 0.  1.
     999901    1    3    3    0    0  0.13077484010E+00  0.18514345062E-01  0.36377379774E-01  0.89059988409E+00  0.88000000000E+00 0.  1.
        -11    1    4    4    0    0 -0.41512481690E-01 -0.89514290748E-02  0.39586442141E-02  0.42653794715E-01  0.51100000000E-03 0. -1.
         11    1    4    4    0    0 -0.83811034857E-01 -0.14527334280E-01 -0.17719473829E-01  0.86888283898E-01  0.51100000000E-03 0.  1.
</event>
<event>
 8    1  0.1111182E+005  0.1043930E+01  0.7957747E-01            NaN
         13   -1    0    0    0    0  0.00000000000E+00  0.00000000000E+00  0.74505805969E-08  0.10566000000E+00  0.10566000000E+00 0.  1.
     999900   -1    0    0    0    0 -0.00000000000E+00 -0.00000000000E+00 -0.74505805969E-08  0.93827000000E+00  0.93827000000E+00 0.  1.
     999902    2    1    2    0    0 -0.15065930204E-01 -0.16661503260E-01  0.80340899677E-02  0.10200734591E+01  0.10197944535E+01 0.  0.
     999903    2    3    3    0    0 -0.82988750921E-01 -0.29733147310E-01  0.97321179139E-01  0.13285501824E+00  0.20195324538E-01 0.  0.
         14    1    1    2    0    0  0.15065930204E-01  0.16661503260E-01 -0.80340899677E-02  0.23856540936E-01  0.00000000000E+00 0. -1.
     999901    1    3    3    0    0  0.67922820717E-01  0.13071644050E-01 -0.89287089171E-01  0.88721844083E+00  0.88000000000E+00 0.  1.
        -11    1    4    4    0    0 -0.12107053984E-01 -0.83752215091E-02  0.26956511535E-01  0.30718719482E-01  0.51100000000E-03 0. -1.
         11    1    4    4    0    0 -0.70881696937E-01 -0.21357925801E-01  0.70364667605E-01  0.10213629875E+00  0.51100000000E-03 0.  1.
</event>
<event>
 8    1  0.1111182E+005  0.1043930E+01  0.7957747E-01            NaN
         13   -1    0    0    0    0  0.00000000000E+00  0.00000000000E+00  0.74505805969E-08  0.10566000000E+00  0.10566000000E+00 0. -1.
     999900   -1    0    0    0    0 -0.00000000000E+00 -0.00000000000E+00 -0.74505805969E-08  0.93827000000E+00  0.93827000000E+00 0.  1.
     999902    2    1    2    0    0 -0.32901172654E-02  0.16029124925E-02 -0.22119496629E-01  0.10215097785E+01  0.10212637080E+01 0.  0.
     999903    2    3    3    0    0  0.82720162596E-02  0.30266521873E-01  0.12345963136E+00  0.12901408221E+00  0.20441727760E-01 0.  0.
         14    1    1    2    0    0  0.32901172654E-02 -0.16029124925E-02  0.22119496629E-01  0.22420221479E-01  0.00000000000E+00 0. -1.
     999901    1    3    3    0    0 -0.11562133525E-01 -0.28663609380E-01 -0.14557912798E+00  0.89249569631E+00  0.88000000000E+00 0.  1.
        -11    1    4    4    0    0 -0.32940471240E-02  0.14869423988E-01  0.80547156643E-01  0.81975948183E-01  0.51100000000E-03 0. -1.
         11    1    4    4    0    0  0.11566063384E-01  0.15397097885E-01  0.42912474713E-01  0.47038134024E-01  0.51100000000E-03 0.  1.
</event>
<event>
 8    1  0.1111182E+005  0.1043930E+01  0.7957747E-01            NaN
         13   -1    0    0    0    0  0.00000000000E+00  0.00000000000E+00  0.74505805969E-08  0.10566000000E+00  0.10566000000E+00 0. -1.
     999900   -1    0    0    0    0 -0.00000000000E+00 -0.00000000000E+00 -0.74505805969E-08  0.93827000000E+00  0.93827000000E+00 0.  1.
     999902    2    1    2    0    0  0.15936814984E-01  0.12346564728E-01 -0.12892917423E-01  0.10199999550E+01  0.10197192070E+01 0.  0.
     999903    2    3    3    0    0 -0.67955085035E-01 -0.82677191275E-02  0.10623879755E+00  0.12778071903E+00  0.18840947122E-01 0.  0.
         14    1    1    2    0    0 -0.15936814984E-01 -0.12346564728E-01  0.12892917423E-01  0.23930044966E-01  0.00000000000E+00 0. -1.
     999901    1    3    3    0    0  0.83891900019E-01  0.20614283855E-01 -0.11913171497E+00  0.89221923601E+00  0.88000000000E+00 0.  1.
        -11    1    4    4    0    0 -0.20922279040E-01 -0.98128484844E-02  0.44559630478E-01  0.50198162764E-01  0.51100000000E-03 0.  1.
         11    1    4    4    0    0 -0.47032805995E-01  0.15451293569E-02  0.61679167073E-01  0.77582556263E-01  0.51100000000E-03 0. -1.
</event>
<event>
 8    1  0.1111182E+005  0.1043930E+01  0.7957747E-01            NaN
         13   -1    0    0    0    0  0.00000000000E+00  0.00000000000E+00  0.74505805969E-08  0.10566000000E+00  0.10566000000E+00 0. -1.
     999900   -1    0    0    0    0 -0.00000000000E+00 -0.00000000000E+00 -0.74505805969E-08  0.93827000000E+00  0.93827000000E+00 0.  1.
     999902    2    1    2    0    0 -0.59108926359E-02 -0.81325103281E-02  0.21764892113E-01  0.10199552861E+01  0.10196734766E+01 0.  0.
     999903    2    3    3    0    0  0.12128822746E+00 -0.38481098529E-01  0.19351968581E-01  0.13028878955E+00  0.20224760288E-01 0.  0.
         14    1    1    2    0    0  0.59108926359E-02  0.81325103281E-02 -0.21764892113E-01  0.23974713860E-01  0.00000000000E+00 0.  1.
     999901    1    3    3    0    0 -0.12719912010E+00  0.30348588201E-01  0.24129235312E-02  0.88966649659E+00  0.88000000000E+00 0. -1.
        -11    1    4    4    0    0  0.11583163178E+00 -0.32204128590E-01  0.20205951873E-01  0.12191232272E+00  0.51100000000E-03 0. -1.
         11    1    4    4    0    0  0.54565956866E-02 -0.62769699387E-02 -0.85398329117E-03  0.83764668304E-02  0.51100000000E-03 0.  1.
</event>
<event>
 8    1  0.1111182E+005  0.1043930E+01  0.7957747E-01            NaN
         13   -1    0    0    0    0  0.00000000000E+00  0.00000000000E+00  0.74505805969E-08  0.10566000000E+00  0.10566000000E+00 0.  1.
     999900   -1    0    0    0    0 -0.00000000000E+00 -0.00000000000E+00 -0.74505805969E-08  0.93827000000E+00  0.93827000000E+00 0.  1.
     999902    2    1    2    0    0  0.66599566922E-02 -0.18049141345E-01  0.13413155725E-01  0.10204770839E+01  0.10202075473E+01 0.  0.
     999903    2    3    3    0    0  0.21146399976E-01  0.40860368258E-01 -0.11840308125E+00  0.12859384733E+00  0.20008698003E-01 0.  0.
         14    1    1    2    0    0 -0.66599566922E-02  0.18049141345E-01 -0.13413155725E-01  0.23452916086E-01  0.00000000000E+00 0.  1.
     999901    1    3    3    0    0 -0.14486443284E-01 -0.58909509603E-01  0.13181623698E+00  0.89188323658E+00  0.88000000000E+00 0. -1.
        -11    1    4    4    0    0  0.77178947423E-02  0.85939286985E-03 -0.22815900388E-01  0.24106656484E-01  0.51100000000E-03 0.  1.
         11    1    4    4    0    0  0.13428505234E-01  0.40000975388E-01 -0.95587180866E-01  0.10448719085E+00  0.51100000000E-03 0. -1.
</event>
<event>
 8    1  0.1111182E+005  0.1043930E+01  0.7957747E-01            NaN
         13   -1    0    0    0    0  0.00000000000E+00  0.00000000000E+00  0.74505805969E-08  0.10566000000E+00  0.10566000000E+00 0.  1.
     999900   -1    0    0    0    0 -0.00000000000E+00 -0.00000000000E+00 -0.74505805969E-08  0.93827000000E+00  0.93827000000E+00 0. -1.
     999902    2    1    2    0    0 -0.14469273593E-02  0.24288760496E-01 -0.70086872184E-02  0.10186088787E+01  0.10182941072E+01 0.  0.
     999903    2    3    3    0    0 -0.73458858687E-01  0.83773632826E-02 -0.10528186650E+00  0.13007271821E+00  0.19190009717E-01 0.  0.
         14    1    1    2    0    0  0.14469273593E-02 -0.24288760496E-01  0.70086872184E-02  0.25321121258E-01  0.00000000000E+00 0.  1.
     999901    1    3    3    0    0  0.72011931328E-01  0.15911397214E-01  0.98273179280E-01  0.88853616054E+00  0.88000000000E+00 0.  1.
        -11    1    4    4    0    0 -0.12508819160E-01  0.66990426790E-02 -0.30033370275E-01  0.33220658944E-01  0.51100000000E-03 0. -1.
         11    1    4    4    0    0 -0.60950039527E-01  0.16783206037E-02 -0.75248496223E-01  0.96852059262E-01  0.51100000000E-03 0.  1.
</event>
<event>
 8    1  0.1111182E+005  0.1043930E+01  0.7957747E-01            NaN
         13   -1    0    0    0    0  0.00000000000E+00  0.00000000000E+00  0.74505805969E-08  0.10566000000E+00  0.10566000000E+00 0.  1.
     999900   -1    0    0    0    0 -0.00000000000E+00 -0.00000000000E+00 -0.74505805969E-08  0.93827000000E+00  0.93827000000E+00 0. -1.
     999902    2    1    2    0    0  0.12163962181E-01 -0.19831012846E-01  0.23249826435E-02  0.10205497393E+01  0.10202818894E+01 0.  0.
     999903    2    3    3    0    0  0.10755501215E+00  0.44024488445E-01 -0.57331449962E-01  0.13109155174E+00  0.19795543929E-01 0.  0.
         14    1    1    2    0    0 -0.12163962181E-01  0.19831012846E-01 -0.23249826435E-02  0.23380260707E-01  0.00000000000E+00 0.  1.
     999901    1    3    3    0    0 -0.95391049974E-01 -0.63855501291E-01  0.59656432606E-01  0.88945818756E+00  0.88000000000E+00 0.  1.
        -11    1    4    4    0    0  0.42529649748E-01  0.26174569454E-01 -0.18372732066E-01  0.53213697469E-01  0.51100000000E-03 0.  1.
         11    1    4    4    0    0  0.65025362407E-01  0.17849918991E-01 -0.38958717897E-01  0.77877854267E-01  0.51100000000E-03 0. -1.
</event>
<event>
 8    1  0.1111182E+005  0.1043930E+01  0.7957747E-01            NaN
         13   -1    0    0    0    0  0.00000000000E+00  0.00000000000E+00  0.74505805969E-08  0.10566000000E+00  0.10566000000E+00 0. -1.
     999900   -1    0    0    0    0 -0.00000000000E+00 -0.00000000000E+00 -0.74505805969E-08  0.93827000000E+00  0.93827000000E+00 0.  1.
     999902    2    1    2    0    0  0.20202990741E-01  0.10923576044E-01 -0.57324820857E-02  0.10202583566E+01  0.10199837095E+01 0.  0.
     999903    2    3    3    0    0  0.31202657461E-01  0.12587447767E+00  0.17302891017E-01  0.13241527880E+00  0.20406520036E-01 0.  0.
         14    1    1    2    0    0 -0.20202990741E-01 -0.10923576044E-01  0.57324820857E-02  0.23671643360E-01  0.00000000000E+00 0.  1.
     999901    1    3    3    0    0 -0.10999666720E-01 -0.11495090163E+00 -0.23035373102E-01  0.88784307784E+00  0.88000000000E+00 0. -1.
        -11    1    4    4    0    0  0.27587150909E-01  0.69449578643E-01  0.10532038637E-01  0.75468402844E-01  0.51100000000E-03 0.  1.
         11    1    4    4    0    0  0.36155065524E-02  0.56424899031E-01  0.67708523802E-02  0.56946875957E-01  0.51100000000E-03 0. -1.
</event>
<event>
 8    1  0.1111182E+005  0.1043930E+01  0.7957747E-01            NaN
         13   -1    0    0    0    0  0.00000000000E+00  0.00000000000E+00  0.74505805969E-08  0.10566000000E+00  0.10566000000E+00 0.  1.
     999900   -1    0    0    0    0 -0.00000000000E+00 -0.00000000000E+00 -0.74505805969E-08  0.93827000000E+00  0.93827000000E+00 0.  1.
     999902    2    1    2    0    0  0.11278504380E-01  0.19963825680E-01  0.90398509119E-02  0.10192829332E+01  0.10189848969E+01 0.  0.
     999903    2    3    3    0    0  0.59181531490E-01 -0.16355857618E-01 -0.11209478467E+00  0.12895298351E+00  0.17136611601E-01 0.  0.
         14    1    1    2    0    0 -0.11278504380E-01 -0.19963825680E-01 -0.90398509119E-02  0.24647066790E-01  0.00000000000E+00 0. -1.
     999901    1    3    3    0    0 -0.47903027110E-01  0.36319683298E-01  0.12113463558E+00  0.89032994970E+00  0.88000000000E+00 0.  1.
        -11    1    4    4    0    0  0.33460437446E-01 -0.10611405071E-01 -0.46532864630E-01  0.58290405757E-01  0.51100000000E-03 0.  1.
         11    1    4    4    0    0  0.25721094044E-01 -0.57444525477E-02 -0.65561920040E-01  0.70662577750E-01  0.51100000000E-03 0. -1.
</event>
<event>
 8    1  0.1111182E+005  0.1043930E+01  0.7957747E-01            NaN
         13   -1    0    0    0    0  0.00000000000E+00  0.00000000000E+00  0.74505805969E-08  0.10566000000E+00  0.10566000000E+00 0.  1.
     999900   -1    0    0    0    0 -0.00000000000E+00 -0.00000000000E+00 -0.74505805969E-08  0.93827000000E+00  0.93827000000E+00 0.  1.
     999902    2    1    2    0    0 -0.35292154537E-02  0.13815531548E-01  0.18701297278E-01  0.10204127129E+01  0.10201416773E+01 0.  0.
     999903    2    3    3    0    0 -0.95677357481E-01  0.57948759635E-01 -0.64735734267E-01  0.13058084104E+00  0.18666153290E-01 0.  0.
         14    1    1    2    0    0  0.35292154537E-02 -0.13815531548E-01 -0.18701297278E-01  0.23517287121E-01  0.00000000000E+00 0. -1.
     999901    1    3    3    0    0  0.92148142028E-01 -0.44133228088E-01  0.83437031545E-01  0.88983187184E+00  0.88000000000E+00 0. -1.
        -11    1    4    4    0    0 -0.70831474711E-01  0.38805449193E-01 -0.37542127844E-01  0.89065330970E-01  0.51100000000E-03 0.  1.
         11    1    4    4    0    0 -0.24845882770E-01  0.19143310443E-01 -0.27193606423E-01  0.41515510073E-01  0.51100000000E-03 0. -1.
</event>
<event>
 8    1  0.1111182E+005  0.1043930E+01  0.7957747E-01            NaN
         13   -1    0    0    0    0  0.00000000000E+00  0.00000000000E+00  0.74505805969E-08  0.10566000000E+00  0.10566000000E+00 0.  1.
     999900   -1    0    0    0    0 -0.00000000000E+00 -0.00000000000E+00 -0.74505805969E-08  0.93827000000E+00  0.93827000000E+00 0.  1.
     999902    2    1    2    0    0 -0.14666567449E-01 -0.10578146867E-01  0.15006162882E-01  0.10204312699E+01  0.10201606669E+01 0.  0.
     999903    2    3    3    0    0  0.33662306539E-01  0.11810912414E+00  0.36363877855E-01  0.12950352549E+00  0.19128915667E-01 0.  0.
         14    1    1    2    0    0  0.14666567449E-01  0.10578146867E-01 -0.15006162882E-01  0.23498730100E-01  0.00000000000E+00 0. -1.
     999901    1    3    3    0    0 -0.48328873988E-01 -0.12868727100E+00 -0.21357714973E-01  0.89092774441E+00  0.88000000000E+00 0.  1.
        -11    1    4    4    0    0  0.13526470985E-01  0.73036171291E-01  0.15355017226E-01  0.75850414694E-01  0.51100000000E-03 0.  1.
         11    1    4    4    0    0  0.20135835555E-01  0.45072952845E-01  0.21008860629E-01  0.53653110791E-01  0.51100000000E-03 0. -1.
</event>
<event>
 8    1  0.1111182E+005  0.1043930E+01  0.7957747E-01            NaN
         13   -1    0    0    0    0  0.00000000000E+00  0.00000000000E+00  0.74505805969E-08  0.10566000000E+00  0.10566000000E+00 0. -1.
     999900   -1    0    0    0    0 -0.00000000000E+00 -0.00000000000E+00 -0.74505805969E-08  0.93827000000E+00  0.93827000000E+00 0.  1.
     999902    2    1    2    0    0 -0.22725494894E-01 -0.37708559998E-02  0.59040589911E-02  0.10201492223E+01  0.10198720069E+01 0.  0.
     999903    2    3    3    0    0  0.55973087875E-01  0.76397939301E-01  0.85894485109E-01  0.12940853565E+00  0.19976857387E-01 0.  0.
         14    1    1    2    0    0  0.22725494894E-01  0.37708559998E-02 -0.59040589911E-02  0.23780777652E-01  0.00000000000E+00 0. -1.
     999901    1    3    3    0    0 -0.78698582769E-01 -0.80168795301E-01 -0.79990426118E-01  0.89074068670E+00  0.88000000000E+00 0.  1.
        -11    1    4    4    0    0  0.34606868463E-01  0.31904119289E-01  0.36365973627E-01  0.59483218905E-01  0.51100000000E-03 0. -1.
         11    1    4    4    0    0  0.21366219412E-01  0.44493820012E-01  0.49528511483E-01  0.69925316745E-01  0.51100000000E-03 0.  1.
</event>
<event>
 8    1  0.1111182E+005  0.1043930E+01  0.7957747E-01            NaN
         13   -1    0    0    0    0  0.00000000000E+00  0.00000000000E+00  0.74505805969E-08  0.10566000000E+00  0.10566000000E+00 0.  1.
     999900   -1    0    0    0    0 -0.00000000000E+00 -0.00000000000E+00 -0.74505805969E-08  0.93827000000E+00  0.93827000000E+00 0. -1.
     999902    2    1    2    0    0  0.13325001759E-01 -0.94638193083E-02  0.16573748240E-01  0.10206532159E+01  0.10203877589E+01 0.  0.
     999903    2    3    3    0    0  0.34100832514E-01  0.57356664469E-01 -0.10863197317E+00  0.12904058427E+00  0.19947758171E-01 0.  0.
         14    1    1    2    0    0 -0.13325001759E-01  0.94638193083E-02 -0.16573748240E-01  0.23276784110E-01  0.00000000000E+00 0. -1.
     999901    1    3    3    0    0 -0.20775830755E-01 -0.66820483777E-01  0.12520572141E+00  0.89161263162E+00  0.88000000000E+00 0.  1.
        -11    1    4    4    0    0  0.23380764372E-01  0.50030695897E-01 -0.96903853847E-01  0.11153631106E+00  0.51100000000E-03 0. -1.
         11    1    4    4    0    0  0.10720068142E-01  0.73259685711E-02 -0.11728119324E-01  0.17504273202E-01  0.51100000000E-03 0.  1.
</event>
<event>
 8    1  0.1111182E+005  0.1043930E+01  0.7957747E-01            NaN
         13   -1    0    0    0    0  0.00000000000E+00  0.00000000000E+00  0.74505805969E-08  0.10566000000E+00  0.10566000000E+00 0.  1.
     999900   -1    0    0    0    0 -0.00000000000E+00 -0.00000000000E+00 -0.74505805969E-08  0.93827000000E+00  0.93827000000E+00 0.  1.
     999902    2    1    2    0    0 -0.13866434453E-01 -0.17409078445E-01 -0.75066103030E-02  0.10204416366E+01  0.10201712751E+01 0.  0.
     999903    2    3    3    0    0  0.34052786087E-02 -0.87175019191E-01 -0.98375089529E-01  0.13284787870E+00  0.18968941485E-01 0.  0.
         14    1    1    2    0    0  0.13866434453E-01  0.17409078445E-01  0.75066103030E-02  0.23488363395E-01  0.00000000000E+00 0.  1.
     999901    1    3    3    0    0 -0.17271713061E-01  0.69765940746E-01  0.90868479226E-01  0.88759375791E+00  0.88000000000E+00 0. -1.
        -11    1    4    4    0    0  0.10953627006E-01 -0.40164761737E-01 -0.44175569907E-01  0.60703641798E-01  0.51100000000E-03 0.  1.
         11    1    4    4    0    0 -0.75483483972E-02 -0.47010257455E-01 -0.54199519622E-01  0.72144236899E-01  0.51100000000E-03 0. -1.
</event>
<event>
 8    1  0.1111182E+005  0.1043930E+01  0.7957747E-01            NaN
         13   -1    0    0    0    0  0.00000000000E+00  0.00000000000E+00  0.74505805969E-08  0.10566000000E+00  0.10566000000E+00 0.  1.
     999900   -1    0    0    0    0 -0.00000000000E+00 -0.00000000000E+00 -0.74505805969E-08  0.93827000000E+00  0.93827000000E+00 0.  1.
     999902    2    1    2    0    0 -0.52662228348E-02  0.89085848478E-02 -0.20161729076E-01  0.10212674470E+01  0.10210159681E+01 0.  0.
     999903    2    3    3    0    0 -0.27450405582E-01 -0.74225276889E-02  0.12420502270E+00  0.12907878863E+00  0.20635583950E-01 0.  0.
         14    1    1    2    0    0  0.52662228348E-02 -0.89085848478E-02  0.20161729076E-01  0.22662552951E-01  0.00000000000E+00 0.  1.
     999901    1    3    3    0    0  0.22184182747E-01  0.16331112537E-01 -0.14436675178E+00  0.89218865842E+00  0.88000000000E+00 0.  1.
        -11    1    4    4    0    0 -0.15993021935E-01 -0.14220741119E-01  0.85610137341E-01  0.88246036540E-01  0.51100000000E-03 0. -1.
         11    1    4    4    0    0 -0.11457383647E-01  0.67982134299E-02  0.38594885360E-01  0.40832752085E-01  0.51100000000E-03 0.  1.
</event>
<event>
 8    1  0.1111182E+005  0.1043930E+01  0.7957747E-01            NaN
         13   -1    0    0    0    0  0.00000000000E+00  0.00000000000E+00  0.74505805969E-08  0.10566000000E+00  0.10566000000E+00 0.  1.
     999900   -1    0    0    0    0 -0.00000000000E+00 -0.00000000000E+00 -0.74505805969E-08  0.93827000000E+00  0.93827000000E+00 0. -1.
     999902    2    1    2    0    0  0.21891710967E-01  0.48272972806E-02 -0.88917598183E-02  0.10198133418E+01  0.10195281453E+01 0.  0.
     999903    2    3    3    0    0 -0.10371672321E+00 -0.47561605935E-01  0.52602691563E-01  0.12723077229E+00  0.20034001725E-01 0.  0.
         14    1    1    2    0    0 -0.21891710967E-01 -0.48272972806E-02  0.88917598183E-02  0.24116658160E-01  0.00000000000E+00 0.  1.
     999901    1    3    3    0    0  0.12560843418E+00  0.52388903216E-01 -0.61494451381E-01  0.89258256955E+00  0.88000000000E+00 0. -1.
        -11    1    4    4    0    0 -0.50893132172E-01 -0.12409952176E-01  0.23044436131E-01  0.57231328597E-01  0.51100000000E-03 0. -1.
         11    1    4    4    0    0 -0.52823591037E-01 -0.35151653759E-01  0.29558255431E-01  0.69999443692E-01  0.51100000000E-03 0.  1.
</event>
<event>
 8    1  0.1111182E+005  0.1043930E+01  0.7957747E-01            NaN
         13   -1    0    0    0    0  0.00000000000E+00  0.00000000000E+00  0.74505805969E-08  0.10566000000E+00  0.10566000000E+00 0.  1.
     999900   -1    0    0    0    0 -0.00000000000E+00 -0.00000000000E+00 -0.74505805969E-08  0.93827000000E+00  0.93827000000E+00 0.  1.
     999902    2    1    2    0    0 -0.19182581993E-01 -0.64744340826E-02 -0.12056972054E-01  0.10203660376E+01  0.10200939125E+01 0.  0.
     999903    2    3    3    0    0  0.75383432341E-02 -0.42464175302E-01  0.12054234203E+00  0.12930383584E+00  0.18138162518E-01 0.  0.
         14    1    1    2    0    0  0.19182581993E-01  0.64744340826E-02  0.12056972054E-01  0.23563962394E-01  0.00000000000E+00 0.  1.
     999901    1    3    3    0    0 -0.26720925227E-01  0.35989741220E-01 -0.13259931408E+00  0.89106220176E+00  0.88000000000E+00 0.  1.
        -11    1    4    4    0    0  0.55907206607E-02 -0.17470605762E-01  0.28416302358E-01  0.33826403650E-01  0.51100000000E-03 0. -1.
         11    1    4    4    0    0  0.19476225733E-02 -0.24993569541E-01  0.92126039668E-01  0.95477432192E-01  0.51100000000E-03 0.  1.
</event>
<event>
 8    1  0.1111182E+005  0.1043930E+01  0.7957747E-01            NaN
         13   -1    0    0    0    0  0.00000000000E+00  0.00000000000E+00  0.74505805969E-08  0.10566000000E+00  0.10566000000E+00 0. -1.
     999900   -1    0    0    0    0 -0.00000000000E+00 -0.00000000000E+00 -0.74505805969E-08  0.93827000000E+00  0.93827000000E+00 0. -1.
     999902    2    1    2    0    0  0.49715262870E-02 -0.24589353788E-01  0.41796543423E-02  0.10184973064E+01  0.10181797195E+01 0.  0.
     999903    2    3    3    0    0  0.21717093869E-01 -0.12145166406E+00  0.42937827892E-01  0.13217630518E+00  0.20119138137E-01 0.  0.
         14    1    1    2    0    0 -0.49715262870E-02  0.24589353788E-01 -0.41796543423E-02  0.25432693600E-01  0.00000000000E+00 0. -1.
     999901    1    3    3    0    0 -0.16745567582E-01  0.96862310268E-01 -0.38758173550E-01  0.88632100122E+00  0.88000000000E+00 0. -1.
        -11    1    4    4    0    0  0.94766975643E-02 -0.18177851375E-01  0.27772509913E-02  0.20693388350E-01  0.51100000000E-03 0.  1.
         11    1    4    4    0    0  0.12240396305E-01 -0.10327381268E+00  0.40160576901E-01  0.11148291683E+00  0.51100000000E-03 0. -1.
</event>
<event>
 8    1  0.1111182E+005  0.1043930E+01  0.7957747E-01            NaN
         13   -1    0    0    0    0  0.00000000000E+00  0.00000000000E+00  0.74505805969E-08  0.10566000000E+00  0.10566000000E+00 0. -1.
     999900   -1    0    0    0    0 -0.00000000000E+00 -0.00000000000E+00 -0.74505805969E-08  0.93827000000E+00  0.93827000000E+00 0.  1.
     999902    2    1    2    0    0  0.22639753800E-02  0.11019817604E-01 -0.20501546768E-01  0.10205446331E+01  0.10202766648E+01 0.  0.
     999903    2    3    3    0    0 -0.16426528440E-01  0.99387112247E-01  0.79101016491E-01  0.13033185838E+00  0.24120397606E-01 0.  0.
         14    1    1    2    0    0 -0.22639753800E-02 -0.11019817604E-01  0.20501546768E-01  0.23385366886E-01  0.00000000000E+00 0. -1.
     999901    1    3    3    0    0  0.18690503820E-01 -0.88367294644E-01 -0.99602563259E-01  0.89021277474E+00  0.88000000000E+00 0.  1.
        -11    1    4    4    0    0  0.29602534939E-02  0.44349768516E-01  0.26385664224E-01  0.51692644212E-01  0.51100000000E-03 0.  1.
         11    1    4    4    0    0 -0.19386781934E-01  0.55037343732E-01  0.52715352267E-01  0.78639214165E-01  0.51100000000E-03 0. -1.
</event>
<event>
 8    1  0.1111182E+005  0.1043930E+01  0.7957747E-01            NaN
         13   -1    0    0    0    0  0.00000000000E+00  0.00000000000E+00  0.74505805969E-08  0.10566000000E+00  0.10566000000E+00 0.  1.
     999900   -1    0    0    0    0 -0.00000000000E+00 -0.00000000000E+00 -0.74505805969E-08  0.93827000000E+00  0.93827000000E+00 0.  1.
     999902    2    1    2    0    0  0.18852817517E-01 -0.12420557761E-01  0.71285295695E-02  0.10202548038E+01  0.10199800732E+01 0.  0.
     999903    2    3    3    0    0 -0.33784510831E-02 -0.60986531261E-01  0.11527482700E+00  0.13202707128E+00  0.20300021794E-01 0.  0.
         14    1    1    2    0    0 -0.18852817517E-01  0.12420557761E-01 -0.71285295695E-02  0.23675196245E-01  0.00000000000E+00 0.  1.
     999901    1    3    3    0    0  0.22231268600E-01  0.48565973500E-01 -0.10814629743E+00  0.88822773247E+00  0.88000000000E+00 0.  1.
        -11    1    4    4    0    0  0.41577654690E-02 -0.53538511431E-01  0.94168244235E-01  0.10840469807E+00  0.51100000000E-03 0. -1.
         11    1    4    4    0    0 -0.75362165521E-02 -0.74480198298E-02  0.21106582764E-01  0.23622373214E-01  0.51100000000E-03 0.  1.
</event>
<event>
 8    1  0.1111182E+005  0.1043930E+01  0.7957747E-01            NaN
         13   -1    0    0    0    0  0.00000000000E+00  0.00000000000E+00  0.74505805969E-08  0.10566000000E+00  0.10566000000E+00 0.  1.
     999900   -1    0    0    0    0 -0.00000000000E+00 -0.00000000000E+00 -0.74505805969E-08  0.93827000000E+00  0.93827000000E+00 0.  1.
     999902    2    1    2    0    0 -0.90206866446E-02 -0.96452805867E-02 -0.19550914427E-01  0.10203367281E+01  0.10200639177E+01 0.  0.
     999903    2    3    3    0    0 -0.10576665094E+00 -0.75590294813E-02  0.72838107251E-01  0.13022445124E+00  0.20231027033E-01 0.  0.
         14    1    1    2    0    0  0.90206866446E-02  0.96452805867E-02  0.19550914427E-01  0.23593271923E-01  0.00000000000E+00 0.  1.
     999901    1    3    3    0    0  0.96745964295E-01 -0.20862511054E-02 -0.92389021678E-01  0.89011227684E+00  0.88000000000E+00 0.  1.
        -11    1    4    4    0    0 -0.17322955138E-01  0.23611550824E-02  0.46280957167E-02  0.18092545952E-01  0.51100000000E-03 0.  1.
         11    1    4    4    0    0 -0.88443695801E-01 -0.99201845638E-02  0.68210011534E-01  0.11213190529E+00  0.51100000000E-03 0. -1.
</event>
<event>
 8    1  0.1111182E+005  0.1043930E+01  0.7957747E-01            NaN
         13   -1    0    0    0    0  0.00000000000E+00  0.00000000000E+00  0.74505805969E-08  0.10566000000E+00  0.10566000000E+00 0.  1.
     999900   -1    0    0    0    0 -0.00000000000E+00 -0.00000000000E+00 -0.74505805969E-08  0.93827000000E+00  0.93827000000E+00 0. -1.
     999902    2    1    2    0    0  0.10487030626E-01 -0.17563893100E-01  0.11229765176E-01  0.10205938525E+01  0.10203270241E+01 0.  0.
     999903    2    3    3    0    0 -0.11911633272E+00  0.88996215539E-02  0.46955091742E-01  0.12999088356E+00  0.20614198627E-01 0.  0.
         14    1    1    2    0    0 -0.10487030626E-01  0.17563893100E-01 -0.11229765176E-01  0.23336147456E-01  0.00000000000E+00 0.  1.
     999901    1    3    3    0    0  0.12960336334E+00 -0.26463514654E-01 -0.35725326567E-01  0.89060296898E+00  0.88000000000E+00 0. -1.
        -11    1    4    4    0    0 -0.62535752511E-01  0.14973422446E-01  0.24687464456E-01  0.68881461541E-01  0.51100000000E-03 0. -1.
         11    1    4    4    0    0 -0.56580580208E-01 -0.60738008920E-02  0.22267627287E-01  0.61109422022E-01  0.51100000000E-03 0.  1.
</event>
<event>
 8    1  0.1111182E+005  0.1043930E+01  0.7957747E-01            NaN
         13   -1    0    0    0    0  0.00000000000E+00  0.00000000000E+00  0.74505805969E-08  0.10566000000E+00  0.10566000000E+00 0.  1.
     999900   -1    0    0    0    0 -0.00000000000E+00 -0.00000000000E+00 -0.74505805969E-08  0.93827000000E+00  0.93827000000E+00 0. -1.
     999902    2    1    2    0    0  0.24415818298E-02 -0.16357108478E-01 -0.16020443013E-01  0.10209045594E+01  0.10206448690E+01 0.  0.
     999903    2    3    3    0    0 -0.20152674067E-01 -0.11052859907E+00 -0.70211012881E-01  0.13393478096E+00  0.19652931994E-01 0.  0.
         14    1    1    2    0    0 -0.24415818298E-02  0.16357108478E-01  0.16020443013E-01  0.23025440580E-01  0.00000000000E+00 0.  1.
     999901    1    3    3    0    0  0.22594255897E-01  0.94171490594E-01  0.54190569868E-01  0.88696977846E+00  0.88000000000E+00 0.  1.
        -11    1    4    4    0    0 -0.87648062607E-02 -0.38548045415E-01 -0.14157019080E-01  0.41993522647E-01  0.51100000000E-03 0.  1.
         11    1    4    4    0    0 -0.11387867807E-01 -0.71980553657E-01 -0.56053993801E-01  0.91941258312E-01  0.51100000000E-03 0. -1.
</event>
<event>
 8    1  0.1111182E+005  0.1043930E+01  0.7957747E-01            NaN
         13   -1    0    0    0    0  0.00000000000E+00  0.00000000000E+00  0.74505805969E-08  0.10566000000E+00  0.10566000000E+00 0.  1.
     999900   -1    0    0    0    0 -0.00000000000E+00 -0.00000000000E+00 -0.74505805969E-08  0.93827000000E+00  0.93827000000E+00 0. -1.
     999902    2    1    2    0    0 -0.75938146224E-03 -0.76210192754E-02  0.22472390927E-01  0.10201883710E+01  0.10199120782E+01 0.  0.
     999903    2    3    3    0    0  0.73230954947E-01  0.10031735383E+00  0.35193818583E-01  0.13042036919E+00  0.18561346717E-01 0.  0.
         14    1    1    2    0    0  0.75938146224E-03  0.76210192754E-02 -0.22472390927E-01  0.23741629029E-01  0.00000000000E+00 0. -1.
     999901    1    3    3    0    0 -0.73990336410E-01 -0.10793837310E+00 -0.12721427656E-01  0.88976800178E+00  0.88000000000E+00 0.  1.
        -11    1    4    4    0    0  0.38466900208E-01  0.59996793289E-01  0.11693651845E-01  0.72224097302E-01  0.51100000000E-03 0. -1.
         11    1    4    4    0    0  0.34764054739E-01  0.40320560538E-01  0.23500166738E-01  0.58196271889E-01  0.51100000000E-03 0.  1.
</event>
<event>
 8    1  0.1111182E+005  0.1043930E+01  0.7957747E-01            NaN
         13   -1    0    0    0    0  0.00000000000E+00  0.00000000000E+00  0.74505805969E-08  0.10566000000E+00  0.10566000000E+00 0. -1.
     999900   -1    0    0    0    0 -0.00000000000E+00 -0.00000000000E+00 -0.74505805969E-08  0.93827000000E+00  0.93827000000E+00 0. -1.
     999902    2    1    2    0    0 -0.85361402527E-02  0.81708071760E-02  0.21046819311E-01  0.10197929666E+01  0.10195072821E+01 0.  0.
     999903    2    3    3    0    0 -0.27219932538E-01  0.64859849263E-01  0.11139271605E+00  0.13315599877E+00  0.19350918454E-01 0.  0.
         14    1    1    2    0    0  0.85361402527E-02 -0.81708071760E-02 -0.21046819311E-01  0.24137033443E-01  0.00000000000E+00 0. -1.
     999901    1    3    3    0    0  0.18683792285E-01 -0.56689042087E-01 -0.90345896743E-01  0.88663696779E+00  0.88000000000E+00 0. -1.
        -11    1    4    4    0    0 -0.49298104286E-02  0.32515307751E-01  0.41208201138E-01  0.52724996264E-01  0.51100000000E-03 0. -1.
         11    1    4    4    0    0 -0.22290122110E-01  0.32344541512E-01  0.70184514916E-01  0.80431002507E-01  0.51100000000E-03 0.  1.
</event>
<event>
 8    1  0.1111182E+005  0.1043930E+01  0.7957747E-01            NaN
         13   -1    0    0    0    0  0.00000000000E+00  0.00000000000E+00  0.74505805969E-08  0.10566000000E+00  0.10566000000E+00 0. -1.
     999900   -1    0    0    0    0 -0.00000000000E+00 -0.00000000000E+00 -0.74505805969E-08  0.93827000000E+00  0.93827000000E+00 0.  1.
     999902    2    1    2    0    0 -0.13727186297E-01  0.28491994492E-03 -0.20013073552E-01  0.10196598550E+01  0.10193709727E+01 0.  0.
     999903    2    3    3    0    0  0.11262904436E+00  0.56706923388E-01 -0.15035566256E-01  0.12883208546E+00  0.21694727374E-01 0.  0.
         14    1    1    2    0    0  0.13727186297E-01 -0.28491994492E-03  0.20013073552E-01  0.24270144952E-01  0.00000000000E+00 0. -1.
     999901    1    3    3    0    0 -0.12635623066E+00 -0.56422003443E-01 -0.49775072959E-02  0.89082776959E+00  0.88000000000E+00 0.  1.
        -11    1    4    4    0    0  0.97446562684E-01  0.43639377890E-01 -0.62597070658E-02  0.10695640670E+00  0.51100000000E-03 0.  1.
         11    1    4    4    0    0  0.15182481678E-01  0.13067545498E-01 -0.87758591902E-02  0.21875678750E-01  0.51100000000E-03 0. -1.
</event>
<event>
 8    1  0.1111182E+005  0.1043930E+01  0.7957747E-01            NaN
         13   -1    0    0    0    0  0.00000000000E+00  0.00000000000E+00  0.74505805969E-08  0.10566000000E+00  0.10566000000E+00 0. -1.
     999900   -1    0    0    0    0 -0.00000000000E+00 -0.00000000000E+00 -0.74505805969E-08  0.93827000000E+00  0.93827000000E+00 0. -1.
     999902    2    1    2    0    0 -0.38080089451E-02  0.22697147824E-01 -0.33294387078E-02  0.10206760409E+01  0.10204111102E+01 0.  0.
     999903    2    3    3    0    0 -0.10360811157E+00  0.81242187579E-01  0.46795523246E-03  0.13309393069E+00  0.19463853158E-01 0.  0.
         14    1    1    2    0    0  0.38080089451E-02 -0.22697147824E-01  0.33294387078E-02  0.23253959095E-01  0.00000000000E+00 0. -1.
     999901    1    3    3    0    0  0.99800102626E-01 -0.58545039755E-01 -0.37973939403E-02  0.88758211021E+00  0.88000000000E+00 0. -1.
        -11    1    4    4    0    0 -0.45137140239E-01  0.24014252272E-01  0.32020782549E-02  0.51230461322E-01  0.51100000000E-03 0.  1.
         11    1    4    4    0    0 -0.58470971332E-01  0.57227935307E-01 -0.27341230224E-02  0.81863469373E-01  0.51100000000E-03 0. -1.
</event>
<event>
 8    1  0.1111182E+005  0.1043930E+01  0.7957747E-01            NaN
         13   -1    0    0    0    0  0.00000000000E+00  0.00000000000E+00  0.74505805969E-08  0.10566000000E+00  0.10566000000E+00 0. -1.
     999900   -1    0    0    0    0 -0.00000000000E+00 -0.00000000000E+00 -0.74505805969E-08  0.93827000000E+00  0.93827000000E+00 0. -1.
     999902    2    1    2    0    0  0.45839829718E-02  0.21220136836E-01  0.97498002202E-02  0.10201315607E+01  0.10198539285E+01 0.  0.
     999903    2    3    3    0    0  0.11684750159E+00 -0.44987014215E-01  0.29869868805E-01  0.13030500369E+00  0.20248823372E-01 0.  0.
         14    1    1    2    0    0 -0.45839829718E-02 -0.21220136836E-01 -0.97498002202E-02  0.23798439268E-01  0.00000000000E+00 0.  1.
     999901    1    3    3    0    0 -0.11226351862E+00  0.66207151051E-01 -0.20120068585E-01  0.88982655704E+00  0.88000000000E+00 0. -1.
        -11    1    4    4    0    0  0.94987692754E-01 -0.41492226776E-01  0.18087292076E-01  0.10522204101E+00  0.51100000000E-03 0.  1.
         11    1    4    4    0    0  0.21859808835E-01 -0.34947874387E-02  0.11782576730E-01  0.25082962682E-01  0.51100000000E-03 0. -1.
</event>
<event>
 8    1  0.1111182E+005  0.1043930E+01  0.7957747E-01            NaN
         13   -1    0    0    0    0  0.00000000000E+00  0.00000000000E+00  0.74505805969E-08  0.10566000000E+00  0.10566000000E+00 0. -1.
     999900   -1    0    0    0    0 -0.00000000000E+00 -0.00000000000E+00 -0.74505805969E-08  0.93827000000E+00  0.93827000000E+00 0. -1.
     999902    2    1    2    0    0  0.14571395137E-01 -0.15224416659E-01  0.10382901662E-01  0.10204371699E+01  0.10201667043E+01 0.  0.
     999903    2    3    3    0    0 -0.12045289037E+00 -0.43084379322E-01 -0.30449990901E-03  0.12963867656E+00  0.20998361850E-01 0.  0.
         14    1    1    2    0    0 -0.14571395137E-01  0.15224416659E-01 -0.10382901662E-01  0.23492830093E-01  0.00000000000E+00 0. -1.
     999901    1    3    3    0    0  0.13502428551E+00  0.27859962663E-01  0.10687401571E-01  0.89079849335E+00  0.88000000000E+00 0. -1.
        -11    1    4    4    0    0 -0.80298656884E-01 -0.18027450580E-01 -0.77796802277E-03  0.82302670838E-01  0.51100000000E-03 0.  1.
         11    1    4    4    0    0 -0.40154233485E-01 -0.25056928742E-01  0.47346811376E-03  0.47336005723E-01  0.51100000000E-03 0. -1.
</event>
<event>
 8    1  0.1111182E+005  0.1043930E+01  0.7957747E-01            NaN
         13   -1    0    0    0    0  0.00000000000E+00  0.00000000000E+00  0.74505805969E-08  0.10566000000E+00  0.10566000000E+00 0. -1.
     999900   -1    0    0    0    0 -0.00000000000E+00 -0.00000000000E+00 -0.74505805969E-08  0.93827000000E+00  0.93827000000E+00 0. -1.
     999902    2    1    2    0    0 -0.17419576894E-01  0.21404119940E-02  0.16825564817E-01  0.10196169859E+01  0.10193270698E+01 0.  0.
     999903    2    3    3    0    0  0.12596305935E+00  0.82584039349E-02  0.25060986456E-03  0.12783745075E+00  0.20185575323E-01 0.  0.
         14    1    1    2    0    0  0.17419576894E-01 -0.21404119940E-02 -0.16825564817E-01  0.24313014089E-01  0.00000000000E+00 0.  1.
     999901    1    3    3    0    0 -0.14338263625E+00 -0.61179919409E-02  0.16574954953E-01  0.89177953516E+00  0.88000000000E+00 0. -1.
        -11    1    4    4    0    0  0.79865388159E-01 -0.45168655651E-02  0.68542186886E-03  0.79997582616E-01  0.51100000000E-03 0. -1.
         11    1    4    4    0    0  0.46097671196E-01  0.12775269500E-01 -0.43481200430E-03  0.47839868133E-01  0.51100000000E-03 0.  1.
</event>
<event>
 8    1  0.1111182E+005  0.1043930E+01  0.7957747E-01            NaN
         13   -1    0    0    0    0  0.00000000000E+00  0.00000000000E+00  0.74505805969E-08  0.10566000000E+00  0.10566000000E+00 0. -1.
     999900   -1    0    0    0    0 -0.00000000000E+00 -0.00000000000E+00 -0.74505805969E-08  0.93827000000E+00  0.93827000000E+00 0. -1.
     999902    2    1    2    0    0 -0.21333994776E-01 -0.37235278905E-02 -0.81967158575E-02  0.10207742201E+01  0.10205115473E+01 0.  0.
     999903    2    3    3    0    0 -0.11864341007E+00  0.56012549046E-01  0.11441444301E-01  0.13318018082E+00  0.19808824098E-01 0.  0.
         14    1    1    2    0    0  0.21333994776E-01  0.37235278905E-02  0.81967158575E-02  0.23155779924E-01  0.00000000000E+00 0. -1.
     999901    1    3    3    0    0  0.97309415290E-01 -0.59736076937E-01 -0.19638160159E-01  0.88759403926E+00  0.88000000000E+00 0.  1.
        -11    1    4    4    0    0 -0.57729168639E-01  0.37735229875E-01  0.87635245800E-02  0.69524563786E-01  0.51100000000E-03 0.  1.
         11    1    4    4    0    0 -0.60914241427E-01  0.18277319171E-01  0.26779197214E-02  0.63655617032E-01  0.51100000000E-03 0. -1.
</event>
<event>
 8    1  0.1111182E+005  0.1043930E+01  0.7957747E-01            NaN
         13   -1    0    0    0    0  0.00000000000E+00  0.00000000000E+00  0.74505805969E-08  0.10566000000E+00  0.10566000000E+00 0. -1.
     999900   -1    0    0    0    0 -0.00000000000E+00 -0.00000000000E+00 -0.74505805969E-08  0.93827000000E+00  0.93827000000E+00 0. -1.
     999902    2    1    2    0    0 -0.16534177447E-01 -0.14726275434E-01 -0.77914409022E-02  0.10204577022E+01  0.10201877147E+01 0.  0.
     999903    2    3    3    0    0  0.57844738213E-01  0.79470300768E-01 -0.81461542664E-01  0.12926047266E+00  0.20266830472E-01 0.  0.
         14    1    1    2    0    0  0.16534177447E-01  0.14726275434E-01  0.77914409022E-02  0.23472297786E-01  0.00000000000E+00 0.  1.
     999901    1    3    3    0    0 -0.74378915660E-01 -0.94196576202E-01  0.73670101762E-01  0.89119722955E+00  0.88000000000E+00 0.  1.
        -11    1    4    4    0    0  0.28180465302E-01  0.29060551647E-01 -0.22997221108E-01  0.46559505864E-01  0.51100000000E-03 0. -1.
         11    1    4    4    0    0  0.29664272911E-01  0.50409749121E-01 -0.58464321556E-01  0.82700966801E-01  0.51100000000E-03 0.  1.
</event>
<event>
 8    1  0.1111182E+005  0.1043930E+01  0.7957747E-01            NaN
         13   -1    0    0    0    0  0.00000000000E+00  0.00000000000E+00  0.74505805969E-08  0.10566000000E+00  0.10566000000E+00 0.  1.
     999900   -1    0    0    0    0 -0.00000000000E+00 -0.00000000000E+00 -0.74505805969E-08  0.93827000000E+00  0.93827000000E+00 0. -1.
     999902    2    1    2    0    0  0.36364936787E-02  0.38428501791E-02  0.22212567024E-01  0.10210960403E+01  0.10208406995E+01 0.  0.
     999903    2    3    3    0    0  0.20527029873E-01  0.55444557362E-02  0.13100562859E+00  0.13423409163E+00  0.20105140870E-01 0.  0.
         14    1    1    2    0    0 -0.36364936787E-02 -0.38428501791E-02 -0.22212567024E-01  0.22833959744E-01  0.00000000000E+00 0. -1.
     999901    1    3    3    0    0 -0.16890536194E-01 -0.17016055571E-02 -0.10879306156E+00  0.88686194862E+00  0.88000000000E+00 0. -1.
        -11    1    4    4    0    0  0.33247227147E-02  0.60293003769E-02  0.82037520890E-01  0.82327530018E-01  0.51100000000E-03 0.  1.
         11    1    4    4    0    0  0.17202307158E-01 -0.48484464072E-03  0.48968107699E-01  0.51906561613E-01  0.51100000000E-03 0. -1.
</event>
<event>
 8    1  0.1111182E+005  0.1043930E+01  0.7957747E-01            NaN
         13   -1    0    0    0    0  0.00000000000E+00  0.00000000000E+00  0.74505805969E-08  0.10566000000E+00  0.10566000000E+00 0. -1.
     999900   -1    0    0    0    0 -0.00000000000E+00 -0.00000000000E+00 -0.74505805969E-08  0.93827000000E+00  0.93827000000E+00 0. -1.
     999902    2    1    2    0    0  0.18825001912E-01 -0.76749916531E-02  0.49735844306E-02  0.10230010073E+01  0.10227868977E+01 0.  0.
     999903    2    3    3    0    0 -0.90173286777E-01 -0.93004627265E-01  0.16073042947E-01  0.13211101878E+00  0.20344439818E-01 0.  0.
         14    1    1    2    0    0 -0.18825001912E-01  0.76749916531E-02 -0.49735844306E-02  0.20928992713E-01  0.00000000000E+00 0. -1.
     999901    1    3    3    0    0  0.10899828869E+00  0.85329635612E-01 -0.11099458516E-01  0.89088998851E+00  0.88000000000E+00 0. -1.
        -11    1    4    4    0    0 -0.43104388933E-01 -0.56017288275E-01  0.14886867186E-01  0.72234374550E-01  0.51100000000E-03 0.  1.
         11    1    4    4    0    0 -0.47068897845E-01 -0.36987338989E-01  0.11861757607E-02  0.59876644226E-01  0.51100000000E-03 0. -1.
</event>
<event>
 8    1  0.1111182E+005  0.1043930E+01  0.7957747E-01            NaN
         13   -1    0    0    0    0  0.00000000000E+00  0.00000000000E+00  0.74505805969E-08  0.10566000000E+00  0.10566000000E+00 0. -1.
     999900   -1    0    0    0    0 -0.00000000000E+00 -0.00000000000E+00 -0.74505805969E-08  0.93827000000E+00  0.93827000000E+00 0.  1.
     999902    2    1    2    0    0  0.15673842855E-01 -0.12690587787E-01  0.14132903098E-01  0.10193036053E+01  0.10190060747E+01 0.  0.
     999903    2    3    3    0    0 -0.94606309131E-02 -0.11194822604E+00 -0.62443922716E-01  0.13006357536E+00  0.19884197254E-01 0.  0.
         14    1    1    2    0    0 -0.15673842855E-01  0.12690587787E-01 -0.14132903098E-01  0.24626394746E-01  0.00000000000E+00 0.  1.
     999901    1    3    3    0    0  0.25134473768E-01  0.99257638249E-01  0.76576825814E-01  0.88924002990E+00  0.88000000000E+00 0. -1.
        -11    1    4    4    0    0 -0.10735356031E-01 -0.60318085298E-01 -0.43110435171E-01  0.74915218913E-01  0.51100000000E-03 0.  1.
         11    1    4    4    0    0  0.12747251184E-02 -0.51630140738E-01 -0.19333487545E-01  0.55148356443E-01  0.51100000000E-03 0. -1.
</event>
<event>
 8    1  0.1111182E+005  0.1043930E+01  0.7957747E-01            NaN
         13   -1    0    0    0    0  0.00000000000E+00  0.00000000000E+00  0.74505805969E-08  0.10566000000E+00  0.10566000000E+00 0.  1.
     999900   -1    0    0    0    0 -0.00000000000E+00 -0.00000000000E+00 -0.74505805969E-08  0.93827000000E+00  0.93827000000E+00 0. -1.
     999902    2    1    2    0    0  0.16732156663E-01  0.21093098914E-02 -0.16569124295E-01  0.10202878737E+01  0.10200139191E+01 0.  0.
     999903    2    3    3    0    0  0.52005559858E-01  0.74622781670E-01  0.90909117565E-01  0.13008902570E+00  0.19635405513E-01 0.  0.
         14    1    1    2    0    0 -0.16732156663E-01 -0.21093098914E-02  0.16569124295E-01  0.23642126273E-01  0.00000000000E+00 0.  1.
     999901    1    3    3    0    0 -0.35273403196E-01 -0.72513471779E-01 -0.10747824186E+00  0.89019884803E+00  0.88000000000E+00 0. -1.
        -11    1    4    4    0    0  0.12910514235E-01  0.31270568141E-01  0.41976343936E-01  0.53914788147E-01  0.51100000000E-03 0. -1.
         11    1    4    4    0    0  0.39095045623E-01  0.43352213529E-01  0.48932773630E-01  0.76174237550E-01  0.51100000000E-03 0.  1.
</event>
<event>
 8    1  0.1111182E+005  0.1043930E+01  0.7957747E-01            NaN
         13   -1    0    0    0    0  0.00000000000E+00  0.00000000000E+00  0.74505805969E-08  0.10566000000E+00  0.10566000000E+00 0. -1.
     999900   -1    0    0    0    0 -0.00000000000E+00 -0.00000000000E+00 -0.74505805969E-08  0.93827000000E+00  0.93827000000E+00 0. -1.
     999902    2    1    2    0    0 -0.22411949273E-02  0.22934070636E-01 -0.11918517237E-01  0.10179868775E+01  0.10176562471E+01 0.  0.
     999903    2    3    3    0    0  0.63202451101E-01  0.35026533669E-01 -0.10625421996E+00  0.13044627379E+00  0.22469161112E-01 0.  0.
         14    1    1    2    0    0  0.22411949273E-02 -0.22934070636E-01  0.11918517237E-01  0.25943122476E-01  0.00000000000E+00 0. -1.
     999901    1    3    3    0    0 -0.65443646029E-01 -0.12092463033E-01  0.94335702721E-01  0.88754060373E+00  0.88000000000E+00 0.  1.
        -11    1    4    4    0    0  0.24226759353E-01  0.17853700763E-02 -0.38040753127E-01  0.45138491717E-01  0.51100000000E-03 0.  1.
         11    1    4    4    0    0  0.38975691748E-01  0.33241163593E-01 -0.68213466831E-01  0.85307782074E-01  0.51100000000E-03 0. -1.
</event>
<event>
 8    1  0.1111182E+005  0.1043930E+01  0.7957747E-01            NaN
         13   -1    0    0    0    0  0.00000000000E+00  0.00000000000E+00  0.74505805969E-08  0.10566000000E+00  0.10566000000E+00 0.  1.
     999900   -1    0    0    0    0 -0.00000000000E+00 -0.00000000000E+00 -0.74505805969E-08  0.93827000000E+00  0.93827000000E+00 0.  1.
     999902    2    1    2    0    0 -0.11810191866E-01  0.15137740906E-01  0.14346687523E-01  0.10199621199E+01  0.10196804729E+01 0.  0.
     999903    2    3    3    0    0 -0.20658801748E-01 -0.41454511022E-01  0.12147477571E+00  0.13161679961E+00  0.20532857364E-01 0.  0.
         14    1    1    2    0    0  0.11810191866E-01 -0.15137740906E-01 -0.14346687523E-01  0.23967880059E-01  0.00000000000E+00 0. -1.
     999901    1    3    3    0    0  0.88486098815E-02  0.56592251928E-01 -0.10712808819E+00  0.88834532033E+00  0.88000000000E+00 0.  1.
        -11    1    4    4    0    0  0.37596778930E-02 -0.69481094346E-02  0.13343923239E-01  0.15515566731E-01  0.51100000000E-03 0.  1.
         11    1    4    4    0    0 -0.24418479641E-01 -0.34506401588E-01  0.10813085247E+00  0.11610123288E+00  0.51100000000E-03 0. -1.
</event>
<event>
 8    1  0.1111182E+005  0.1043930E+01  0.7957747E-01            NaN
         13   -1    0    0    0    0  0.00000000000E+00  0.00000000000E+00  0.74505805969E-08  0.10566000000E+00  0.10566000000E+00 0. -1.
     999900   -1    0    0    0    0 -0.00000000000E+00 -0.00000000000E+00 -0.74505805969E-08  0.93827000000E+00  0.93827000000E+00 0. -1.
     999902    2    1    2    0    0 -0.59440639989E-02 -0.51792214005E-02  0.22363423006E-01  0.10202175788E+01  0.10199419734E+01 0.  0.
     999903    2    3    3    0    0 -0.11622577005E+00 -0.33953525143E-02 -0.49900229314E-01  0.13039328584E+00  0.31502667576E-01 0.  0.
         14    1    1    2    0    0  0.59440639989E-02  0.51792214005E-02 -0.22363423006E-01  0.23712421211E-01  0.00000000000E+00 0.  1.
     999901    1    3    3    0    0  0.11028170605E+00 -0.17838688862E-02  0.72263652320E-01  0.88982429295E+00  0.88000000000E+00 0.  1.
        -11    1    4    4    0    0 -0.98682280666E-01 -0.54512882309E-02 -0.28952130928E-01  0.10298735877E+00  0.51100000000E-03 0. -1.
         11    1    4    4    0    0 -0.17543489381E-01  0.20559357166E-02 -0.20948098385E-01  0.27405927065E-01  0.51100000000E-03 0.  1.
</event>
<event>
 8    1  0.1111182E+005  0.1043930E+01  0.7957747E-01            NaN
         13   -1    0    0    0    0  0.00000000000E+00  0.00000000000E+00  0.74505805969E-08  0.10566000000E+00  0.10566000000E+00 0. -1.
     999900   -1    0    0    0    0 -0.00000000000E+00 -0.00000000000E+00 -0.74505805969E-08  0.93827000000E+00  0.93827000000E+00 0. -1.
     999902    2    1    2    0    0  0.80977066703E-02  0.14925350750E-01  0.18721863187E-01  0.10186545750E+01  0.10183409527E+01 0.  0.
     999903    2    3    3    0    0  0.12393736600E+00  0.35682871651E-01 -0.22133364480E-02  0.13057350666E+00  0.20268294529E-01 0.  0.
         14    1    1    2    0    0 -0.80977066703E-02 -0.14925350750E-01 -0.18721863187E-01  0.25275425012E-01  0.00000000000E+00 0.  1.
     999901    1    3    3    0    0 -0.11583965933E+00 -0.20757520901E-01  0.20935199635E-01  0.88808106833E+00  0.88000000000E+00 0.  1.
        -11    1    4    4    0    0  0.60190963062E-01  0.19898291636E-01  0.87278674384E-02  0.63994771938E-01  0.51100000000E-03 0.  1.
         11    1    4    4    0    0  0.63746402934E-01  0.15784580015E-01 -0.10941203886E-01  0.66578734718E-01  0.51100000000E-03 0. -1.
</event>
<event>
 8    1  0.1111182E+005  0.1043930E+01  0.7957747E-01            NaN
         13   -1    0    0    0    0  0.00000000000E+00  0.00000000000E+00  0.74505805969E-08  0.10566000000E+00  0.10566000000E+00 0.  1.
     999900   -1    0    0    0    0 -0.00000000000E+00 -0.00000000000E+00 -0.74505805969E-08  0.93827000000E+00  0.93827000000E+00 0. -1.
     999902    2    1    2    0    0 -0.16344953104E-01  0.55932714059E-03 -0.16248539052E-01  0.10208760337E+01  0.10206156921E+01 0.  0.
     999903    2    3    3    0    0  0.86726302058E-01  0.66762686636E-01 -0.69021985007E-01  0.13082457172E+00  0.19295760064E-01 0.  0.
         14    1    1    2    0    0  0.16344953104E-01 -0.55932714059E-03  0.16248539052E-01  0.23053966256E-01  0.00000000000E+00 0.  1.
     999901    1    3    3    0    0 -0.10307125516E+00 -0.66203359495E-01  0.52773445955E-01  0.89005146202E+00  0.88000000000E+00 0.  1.
        -11    1    4    4    0    0  0.38187344109E-01  0.20349752486E-01 -0.34305545313E-01  0.55222434178E-01  0.51100000000E-03 0. -1.
         11    1    4    4    0    0  0.48538957949E-01  0.46412934150E-01 -0.34716439694E-01  0.75602137544E-01  0.51100000000E-03 0.  1.
</event>
<event>
 8    1  0.1111182E+005  0.1043930E+01  0.7957747E-01            NaN
         13   -1    0    0    0    0  0.00000000000E+00  0.00000000000E+00  0.74505805969E-08  0.10566000000E+00  0.10566000000E+00 0.  1.
     999900   -1    0    0    0    0 -0.00000000000E+00 -0.00000000000E+00 -0.74505805969E-08  0.93827000000E+00  0.93827000000E+00 0.  1.
     999902    2    1    2    0    0  0.15133292632E-01  0.19242465978E-02  0.17944064272E-01  0.10203777450E+01  0.10201058935E+01 0.  0.
     999903    2    3    3    0    0 -0.31252644080E-01 -0.11863213727E+00 -0.35462350153E-01  0.12934590391E+00  0.20554143743E-01 0.  0.
         14    1    1    2    0    0 -0.15133292632E-01 -0.19242465978E-02 -0.17944064272E-01  0.23552254955E-01  0.00000000000E+00 0. -1.
     999901    1    3    3    0    0  0.46385936711E-01  0.12055638387E+00  0.53406414425E-01  0.89103184114E+00  0.88000000000E+00 0.  1.
        -11    1    4    4    0    0 -0.28914104631E-01 -0.11700799274E+00 -0.36986801344E-01  0.12607608975E+00  0.51100000000E-03 0.  1.
         11    1    4    4    0    0 -0.23385394485E-02 -0.16241445244E-02  0.15244511912E-02  0.32698141572E-02  0.51100000000E-03 0. -1.
</event>
<event>
 8    1  0.1111182E+005  0.1043930E+01  0.7957747E-01            NaN
         13   -1    0    0    0    0  0.00000000000E+00  0.00000000000E+00  0.74505805969E-08  0.10566000000E+00  0.10566000000E+00 0. -1.
     999900   -1    0    0    0    0 -0.00000000000E+00 -0.00000000000E+00 -0.74505805969E-08  0.93827000000E+00  0.93827000000E+00 0. -1.
     999902    2    1    2    0    0 -0.21141153723E-01 -0.40693881404E-02 -0.85935937265E-02  0.10207490131E+01  0.10204857616E+01 0.  0.
     999903    2    3    3    0    0 -0.63164818864E-01 -0.20820098727E-01 -0.11394784730E+00  0.13331107528E+00  0.19090836409E-01 0.  0.
         14    1    1    2    0    0  0.21141153723E-01  0.40693881404E-02  0.85935937265E-02  0.23180986902E-01  0.00000000000E+00 0. -1.
     999901    1    3    3    0    0  0.42023665141E-01  0.16750710587E-01  0.10535425357E+00  0.88743793782E+00  0.88000000000E+00 0.  1.
        -11    1    4    4    0    0 -0.60709643206E-02 -0.11043792229E-02 -0.25252996532E-01  0.26000984906E-01  0.51100000000E-03 0. -1.
         11    1    4    4    0    0 -0.57093854544E-01 -0.19715719504E-01 -0.88694850766E-01  0.10731009037E+00  0.51100000000E-03 0.  1.
</event>
<event>
 8    1  0.1111182E+005  0.1043930E+01  0.7957747E-01            NaN
         13   -1    0    0    0    0  0.00000000000E+00  0.00000000000E+00  0.74505805969E-08  0.10566000000E+00  0.10566000000E+00 0.  1.
     999900   -1    0    0    0    0 -0.00000000000E+00 -0.00000000000E+00 -0.74505805969E-08  0.93827000000E+00  0.93827000000E+00 0.  1.
     999902    2    1    2    0    0 -0.93199041911E-02 -0.11588837570E-01  0.18599438348E-01  0.10201161201E+01  0.10198381232E+01 0.  0.
     999903    2    3    3    0    0  0.57735716104E-01 -0.11292194495E+00 -0.24483644023E-01  0.13072250257E+00  0.20103365118E-01 0.  0.
         14    1    1    2    0    0  0.93199041911E-02  0.11588837570E-01 -0.18599438348E-01  0.23813879928E-01  0.00000000000E+00 0. -1.
     999901    1    3    3    0    0 -0.67055620295E-01  0.10133310738E+00  0.43083082372E-01  0.88939361750E+00  0.88000000000E+00 0.  1.
        -11    1    4    4    0    0  0.40308451473E-01 -0.71237551256E-01 -0.65641350168E-02  0.82115217582E-01  0.51100000000E-03 0. -1.
         11    1    4    4    0    0  0.17427264631E-01 -0.41684393692E-01 -0.17919509007E-01  0.48607284989E-01  0.51100000000E-03 0.  1.
</event>
<event>
 8    1  0.1111182E+005  0.1043930E+01  0.7957747E-01            NaN
         13   -1    0    0    0    0  0.00000000000E+00  0.00000000000E+00  0.74505805969E-08  0.10566000000E+00  0.10566000000E+00 0.  1.
     999900   -1    0    0    0    0 -0.00000000000E+00 -0.00000000000E+00 -0.74505805969E-08  0.93827000000E+00  0.93827000000E+00 0.  1.
     999902    2    1    2    0    0 -0.15760979945E-01  0.16554294535E-01 -0.29982454602E-02  0.10208769605E+01  0.10206166400E+01 0.  0.
     999903    2    3    3    0    0  0.68563004563E-01  0.73977407416E-01 -0.81927888214E-01  0.13147388155E+00  0.19991504713E-01 0.  0.
         14    1    1    2    0    0  0.15760979945E-01 -0.16554294535E-01  0.29982454602E-02  0.23053039544E-01  0.00000000000E+00 0.  1.
     999901    1    3    3    0    0 -0.84323984508E-01 -0.57423112881E-01  0.78929642754E-01  0.88940307890E+00  0.88000000000E+00 0. -1.
        -11    1    4    4    0    0  0.35477336189E-01  0.50745864120E-01 -0.55662869679E-01  0.83261037047E-01  0.51100000000E-03 0. -1.
         11    1    4    4    0    0  0.33085668373E-01  0.23231543296E-01 -0.26265018536E-01  0.48212844506E-01  0.51100000000E-03 0.  1.
</event>
<event>
 8    1  0.1111182E+005  0.1043930E+01  0.7957747E-01            NaN
         13   -1    0    0    0    0  0.00000000000E+00  0.00000000000E+00  0.74505805969E-08  0.10566000000E+00  0.10566000000E+00 0.  1.
     999900   -1    0    0    0    0 -0.00000000000E+00 -0.00000000000E+00 -0.74505805969E-08  0.93827000000E+00  0.93827000000E+00 0. -1.
     999902    2    1    2    0    0 -0.11031110331E-01 -0.13634451748E-01  0.16628787770E-01  0.10197618339E+01  0.10194754032E+01 0.  0.
     999903    2    3    3    0    0  0.42323673151E-01  0.82061734151E-01  0.88878532410E-01  0.13002899843E+00  0.21971012489E-01 0.  0.
         14    1    1    2    0    0  0.11031110331E-01  0.13634451748E-01 -0.16628787770E-01  0.24168166093E-01  0.00000000000E+00 0. -1.
     999901    1    3    3    0    0 -0.53354783482E-01 -0.95696185899E-01 -0.72249744640E-01  0.88973283547E+00  0.88000000000E+00 0. -1.
        -11    1    4    4    0    0  0.11921213888E-01  0.23074557578E-01  0.39643505234E-01  0.47396404677E-01  0.51100000000E-03 0.  1.
         11    1    4    4    0    0  0.30402459263E-01  0.58987176573E-01  0.49235027176E-01  0.82632593758E-01  0.51100000000E-03 0. -1.
</event>
<event>
 8    1  0.1111182E+005  0.1043930E+01  0.7957747E-01            NaN
         13   -1    0    0    0    0  0.00000000000E+00  0.00000000000E+00  0.74505805969E-08  0.10566000000E+00  0.10566000000E+00 0.  1.
     999900   -1    0    0    0    0 -0.00000000000E+00 -0.00000000000E+00 -0.74505805969E-08  0.93827000000E+00  0.93827000000E+00 0.  1.
     999902    2    1    2    0    0 -0.16218392629E-01 -0.43450889362E-03 -0.16072542694E-01  0.10210924939E+01  0.10208370729E+01 0.  0.
     999903    2    3    3    0    0 -0.27691010543E-01  0.28052991798E-02  0.12515530393E+00  0.12975225469E+00  0.19928264559E-01 0.  0.
         14    1    1    2    0    0  0.16218392629E-01  0.43450889362E-03  0.16072542694E-01  0.22837506127E-01  0.00000000000E+00 0.  1.
     999901    1    3    3    0    0  0.11472617914E-01 -0.32398080734E-02 -0.14122784662E+00  0.89134023918E+00  0.88000000000E+00 0.  1.
        -11    1    4    4    0    0 -0.39653515511E-02 -0.56366939472E-02  0.12187247880E-01  0.14010227103E-01  0.51100000000E-03 0. -1.
         11    1    4    4    0    0 -0.23725658992E-01  0.84419931270E-02  0.11296805605E+00  0.11574202759E+00  0.51100000000E-03 0.  1.
</event>
<event>
 8    1  0.1111182E+005  0.1043930E+01  0.7957747E-01            NaN
         13   -1    0    0    0    0  0.00000000000E+00  0.00000000000E+00  0.74505805969E-08  0.10566000000E+00  0.10566000000E+00 0. -1.
     999900   -1    0    0    0    0 -0.00000000000E+00 -0.00000000000E+00 -0.74505805969E-08  0.93827000000E+00  0.93827000000E+00 0. -1.
     999902    2    1    2    0    0  0.48475478152E-02  0.16358697340E-01  0.16472254196E-01  0.10202141644E+01  0.10199384788E+01 0.  0.
     999903    2    3    3    0    0  0.74115706367E-01 -0.54307101399E-01 -0.88289544717E-01  0.12849292581E+00  0.16522381286E-01 0.  0.
         14    1    1    2    0    0 -0.48475478152E-02 -0.16358697340E-01 -0.16472254196E-01  0.23715835570E-01  0.00000000000E+00 0.  1.
     999901    1    3    3    0    0 -0.69268158552E-01  0.70665798739E-01  0.10476179891E+00  0.89172123862E+00  0.88000000000E+00 0. -1.
        -11    1    4    4    0    0  0.14965915226E-01 -0.44976610154E-02 -0.10687072669E-01  0.18938907477E-01  0.51100000000E-03 0.  1.
         11    1    4    4    0    0  0.59149791141E-01 -0.49809440384E-01 -0.77602472048E-01  0.10955401833E+00  0.51100000000E-03 0. -1.
</event>
<event>
 8    1  0.1111182E+005  0.1043930E+01  0.7957747E-01            NaN
         13   -1    0    0    0    0  0.00000000000E+00  0.00000000000E+00  0.74505805969E-08  0.10566000000E+00  0.10566000000E+00 0.  1.
     999900   -1    0    0    0    0 -0.00000000000E+00 -0.00000000000E+00 -0.74505805969E-08  0.93827000000E+00  0.93827000000E+00 0.  1.
     999902    2    1    2    0    0  0.11999958391E-01 -0.39329240423E-02 -0.20103337394E-01  0.10201895057E+01  0.10199132397E+01 0.  0.
     999903    2    3    3    0    0 -0.10184949677E-01  0.43107353642E-01 -0.12348122770E+00  0.13261306055E+00  0.19407037268E-01 0.  0.
         14    1    1    2    0    0 -0.11999958391E-01  0.39329240423E-02  0.20103337394E-01  0.23740494251E-01  0.00000000000E+00 0.  1.
     999901    1    3    3    0    0  0.22184908069E-01 -0.47040277684E-01  0.10337789031E+00  0.88757644520E+00  0.88000000000E+00 0. -1.
        -11    1    4    4    0    0 -0.14391754909E-01  0.38600001443E-01 -0.96408899895E-01  0.10484283390E+00  0.51100000000E-03 0. -1.
         11    1    4    4    0    0  0.42068052322E-02  0.45073521981E-02 -0.27072327806E-01  0.27770226646E-01  0.51100000000E-03 0.  1.
</event>
<event>
 8    1  0.1111182E+005  0.1043930E+01  0.7957747E-01            NaN
         13   -1    0    0    0    0  0.00000000000E+00  0.00000000000E+00  0.74505805969E-08  0.10566000000E+00  0.10566000000E+00 0.  1.
     999900   -1    0    0    0    0 -0.00000000000E+00 -0.00000000000E+00 -0.74505805969E-08  0.93827000000E+00  0.93827000000E+00 0. -1.
     999902    2    1    2    0    0 -0.96435897905E-02  0.20862781232E-01 -0.77995393707E-02  0.10196588797E+01  0.10193699739E+01 0.  0.
     999903    2    3    3    0    0 -0.10162156071E+00 -0.51809344794E-01  0.58201372078E-01  0.12943570246E+00  0.18842811616E-01 0.  0.
         14    1    1    2    0    0  0.96435897905E-02 -0.20862781232E-01  0.77995393707E-02  0.24271120271E-01  0.00000000000E+00 0. -1.
     999901    1    3    3    0    0  0.91977970924E-01  0.72672126026E-01 -0.66000911448E-01  0.89022317727E+00  0.88000000000E+00 0. -1.
        -11    1    4    4    0    0 -0.75955913244E-01 -0.32474536760E-01  0.48823944847E-01  0.95957985628E-01  0.51100000000E-03 0. -1.
         11    1    4    4    0    0 -0.25665647471E-01 -0.19334808033E-01  0.93774272310E-02  0.33477716831E-01  0.51100000000E-03 0.  1.
</event>
<event>
 8    1  0.1111182E+005  0.1043930E+01  0.7957747E-01            NaN
         13   -1    0    0    0    0  0.00000000000E+00  0.00000000000E+00  0.74505805969E-08  0.10566000000E+00  0.10566000000E+00 0. -1.
     999900   -1    0    0    0    0 -0.00000000000E+00 -0.00000000000E+00 -0.74505805969E-08  0.93827000000E+00  0.93827000000E+00 0.  1.
     999902    2    1    2    0    0  0.11331464993E-01  0.15968934965E-01  0.16834671402E-01  0.10181072359E+01  0.10177797054E+01 0.  0.
     999903    2    3    3    0    0 -0.10779698365E+00 -0.39376335373E-01  0.52171911622E-01  0.12765599821E+00  0.20086314862E-01 0.  0.
         14    1    1    2    0    0 -0.11331464993E-01 -0.15968934965E-01 -0.16834671402E-01  0.25822764066E-01  0.00000000000E+00 0.  1.
     999901    1    3    3    0    0  0.11912844864E+00  0.55345270338E-01 -0.35337240220E-01  0.89045123773E+00  0.88000000000E+00 0. -1.
        -11    1    4    4    0    0 -0.44703943736E-01 -0.15119610169E-01  0.10837485523E-01  0.48422695203E-01  0.51100000000E-03 0.  1.
         11    1    4    4    0    0 -0.63093039912E-01 -0.24256725205E-01  0.41334426099E-01  0.79233303004E-01  0.51100000000E-03 0. -1.
</event>
<event>
 8    1  0.1111182E+005  0.1043930E+01  0.7957747E-01            NaN
         13   -1    0    0    0    0  0.00000000000E+00  0.00000000000E+00  0.74505805969E-08  0.10566000000E+00  0.10566000000E+00 0. -1.
     999900   -1    0    0    0    0 -0.00000000000E+00 -0.00000000000E+00 -0.74505805969E-08  0.93827000000E+00  0.93827000000E+00 0.  1.
     999902    2    1    2    0    0 -0.21849415216E-01  0.10108140362E-01  0.81941437431E-03  0.10198417687E+01  0.10195572521E+01 0.  0.
     999903    2    3    3    0    0 -0.72844432409E-01  0.34547908350E-01  0.10282103116E+00  0.13214693158E+00  0.19768099879E-01 0.  0.
         14    1    1    2    0    0  0.21849415216E-01 -0.10108140362E-01 -0.81941437431E-03  0.24088231292E-01  0.00000000000E+00 0. -1.
     999901    1    3    3    0    0  0.50995017193E-01 -0.24439767988E-01 -0.10200161678E+00  0.88769483713E+00  0.88000000000E+00 0.  1.
        -11    1    4    4    0    0 -0.52515129146E-01  0.15199375397E-01  0.72853045803E-01  0.91086152654E-01  0.51100000000E-03 0.  1.
         11    1    4    4    0    0 -0.20329303263E-01  0.19348532952E-01  0.29967985356E-01  0.41060778925E-01  0.51100000000E-03 0. -1.
</event>
<event>
 8    1  0.1111182E+005  0.1043930E+01  0.7957747E-01            NaN
         13   -1    0    0    0    0  0.00000000000E+00  0.00000000000E+00  0.74505805969E-08  0.10566000000E+00  0.10566000000E+00 0.  1.
     999900   -1    0    0    0    0 -0.00000000000E+00 -0.00000000000E+00 -0.74505805969E-08  0.93827000000E+00  0.93827000000E+00 0. -1.
     999902    2    1    2    0    0  0.23204197608E-01  0.34472168339E-02  0.24118383718E-02  0.10203474841E+01  0.10200749253E+01 0.  0.
     999903    2    3    3    0    0 -0.60629853851E-01 -0.10914576569E+00  0.24927983314E-01  0.12893719437E+00  0.20362180509E-01 0.  0.
         14    1    1    2    0    0 -0.23204197608E-01 -0.34472168339E-02 -0.24118383718E-02  0.23582515873E-01  0.00000000000E+00 0.  1.
     999901    1    3    3    0    0  0.83834051459E-01  0.11259298252E+00 -0.22516144942E-01  0.89141028975E+00  0.88000000000E+00 0.  1.
        -11    1    4    4    0    0 -0.46477543842E-01 -0.84504865637E-01  0.27802625261E-01  0.10037171659E+00  0.51100000000E-03 0.  1.
         11    1    4    4    0    0 -0.14152310009E-01 -0.24640900051E-01 -0.28746419469E-02  0.28565477788E-01  0.51100000000E-03 0. -1.
</event>
<event>
 8    1  0.1111182E+005  0.1043930E+01  0.7957747E-01            NaN
         13   -1    0    0    0    0  0.00000000000E+00  0.00000000000E+00  0.74505805969E-08  0.10566000000E+00  0.10566000000E+00 0.  1.
     999900   -1    0    0    0    0 -0.00000000000E+00 -0.00000000000E+00 -0.74505805969E-08  0.93827000000E+00  0.93827000000E+00 0.  1.
     999902    2    1    2    0    0  0.14802412321E-01  0.17692025071E-01  0.45131022751E-02  0.10204249526E+01  0.10201542024E+01 0.  0.
     999903    2    3    3    0    0  0.13021459850E+00  0.17808426010E-01  0.14439940637E-02  0.13288373907E+00  0.19570929779E-01 0.  0.
         14    1    1    2    0    0 -0.14802412321E-01 -0.17692025071E-01 -0.45131022751E-02  0.23505047411E-01  0.00000000000E+00 0. -1.
     999901    1    3    3    0    0 -0.11541218618E+00 -0.11640093854E-03  0.30691082113E-02  0.88754121352E+00  0.88000000000E+00 0.  1.
        -11    1    4    4    0    0  0.21522096399E-01  0.10372739538E-01  0.13693924550E-02  0.23935971165E-01  0.51100000000E-03 0.  1.
         11    1    4    4    0    0  0.10869250210E+00  0.74356864718E-02  0.74601608745E-04  0.10894776791E+00  0.51100000000E-03 0. -1.
</event>
<event>
 8    1  0.1111182E+005  0.1043930E+01  0.7957747E-01            NaN
         13   -1    0    0    0    0  0.00000000000E+00  0.00000000000E+00  0.74505805969E-08  0.10566000000E+00  0.10566000000E+00 0. -1.
     999900   -1    0    0    0    0 -0.00000000000E+00 -0.00000000000E+00 -0.74505805969E-08  0.93827000000E+00  0.93827000000E+00 0.  1.
     999902    2    1    2    0    0  0.18555518238E-01  0.11461849023E-01 -0.89210648260E-02  0.10203659036E+01  0.10200937754E+01 0.  0.
     999903    2    3    3    0    0  0.11684380303E+00  0.51202993353E-01  0.32153404348E-01  0.13305138358E+00  0.19864753319E-01 0.  0.
         14    1    1    2    0    0 -0.18555518238E-01 -0.11461849023E-01  0.89210648260E-02  0.23564096370E-01  0.00000000000E+00 0.  1.
     999901    1    3    3    0    0 -0.98288284797E-01 -0.39741144330E-01 -0.41074469174E-01  0.88731452005E+00  0.88000000000E+00 0.  1.
        -11    1    4    4    0    0  0.42197397695E-01  0.24695262058E-01  0.20354053941E-01  0.52962486471E-01  0.51100000000E-03 0. -1.
         11    1    4    4    0    0  0.74646405339E-01  0.26507731295E-01  0.11799350408E-01  0.80088897105E-01  0.51100000000E-03 0.  1.
</event>
<event>
 8    1  0.1111182E+005  0.1043930E+01  0.7957747E-01            NaN
         13   -1    0    0    0    0  0.00000000000E+00  0.00000000000E+00  0.74505805969E-08  0.10566000000E+00  0.10566000000E+00 0.  1.
     999900   -1    0    0    0    0 -0.00000000000E+00 -0.00000000000E+00 -0.74505805969E-08  0.93827000000E+00  0.93827000000E+00 0.  1.
     999902    2    1    2    0    0 -0.35372041385E-02 -0.11469487058E-01 -0.20000669327E-01  0.10206043120E+01  0.10203377255E+01 0.  0.
     999903    2    3    3    0    0 -0.23642411377E-01 -0.12664362163E+00 -0.26010345092E-01  0.13285129634E+00  0.19374167630E-01 0.  0.
         14    1    1    2    0    0  0.35372041385E-02  0.11469487058E-01  0.20000669327E-01  0.23325687986E-01  0.00000000000E+00 0.  1.
     999901    1    3    3    0    0  0.20105207238E-01  0.11517413458E+00  0.60096757650E-02  0.88775301567E+00  0.88000000000E+00 0. -1.
        -11    1    4    4    0    0 -0.12184828852E-01 -0.83643220901E-01 -0.25694256449E-01  0.88346558463E-01  0.51100000000E-03 0. -1.
         11    1    4    4    0    0 -0.11457582525E-01 -0.43000400734E-01 -0.31608864278E-03  0.44504737878E-01  0.51100000000E-03 0.  1.
</event>
<event>
 8    1  0.1111182E+005  0.1043930E+01  0.7957747E-01            NaN
         13   -1    0    0    0    0  0.00000000000E+00  0.00000000000E+00  0.74505805969E-08  0.10566000000E+00  0.10566000000E+00 0. -1.
     999900   -1    0    0    0    0 -0.00000000000E+00 -0.00000000000E+00 -0.74505805969E-08  0.93827000000E+00  0.93827000000E+00 0. -1.
     999902    2    1    2    0    0 -0.23266771510E-01 -0.38241840621E-02  0.40172236613E-02  0.10200112808E+01  0.10197308017E+01 0.  0.
     999903    2    3    3    0    0  0.61511361024E-01  0.70817771530E-01  0.86086053644E-01  0.12900395980E+00  0.20794439483E-01 0.  0.
         14    1    1    2    0    0  0.23266771510E-01  0.38241840621E-02 -0.40172236613E-02  0.23918719159E-01  0.00000000000E+00 0.  1.
     999901    1    3    3    0    0 -0.84778132534E-01 -0.74641955592E-01 -0.82068829982E-01  0.89100732104E+00  0.88000000000E+00 0. -1.
        -11    1    4    4    0    0  0.50769788890E-01  0.44072834045E-01  0.59024492107E-01  0.89465847977E-01  0.51100000000E-03 0. -1.
         11    1    4    4    0    0  0.10741572133E-01  0.26744937485E-01  0.27061561536E-01  0.39538111826E-01  0.51100000000E-03 0.  1.
</event>
<event>
 8    1  0.1111182E+005  0.1043930E+01  0.7957747E-01            NaN
         13   -1    0    0    0    0  0.00000000000E+00  0.00000000000E+00  0.74505805969E-08  0.10566000000E+00  0.10566000000E+00 0.  1.
     999900   -1    0    0    0    0 -0.00000000000E+00 -0.00000000000E+00 -0.74505805969E-08  0.93827000000E+00  0.93827000000E+00 0.  1.
     999902    2    1    2    0    0 -0.12778856515E-01  0.17668465747E-01 -0.95832277908E-02  0.10201116854E+01  0.10198335838E+01 0.  0.
     999903    2    3    3    0    0  0.67695246689E-01  0.59849411064E-01 -0.93288976332E-01  0.13148242312E+00  0.20498684233E-01 0.  0.
         14    1    1    2    0    0  0.12778856515E-01 -0.17668465747E-01  0.95832277908E-02  0.23818314604E-01  0.00000000000E+00 0.  1.
     999901    1    3    3    0    0 -0.80474103205E-01 -0.42180945317E-01  0.83705748541E-01  0.88862926228E+00  0.88000000000E+00 0. -1.
        -11    1    4    4    0    0  0.27750362253E-01  0.19548270728E-01 -0.48449728806E-01  0.59159570959E-01  0.51100000000E-03 0. -1.
         11    1    4    4    0    0  0.39944884436E-01  0.40301140336E-01 -0.44839247526E-01  0.72322852161E-01  0.51100000000E-03 0.  1.
</event>
<event>
 8    1  0.1111182E+005  0.1043930E+01  0.7957747E-01            NaN
         13   -1    0    0    0    0  0.00000000000E+00  0.00000000000E+00  0.74505805969E-08  0.10566000000E+00  0.10566000000E+00 0. -1.
     999900   -1    0    0    0    0 -0.00000000000E+00 -0.00000000000E+00 -0.74505805969E-08  0.93827000000E+00  0.93827000000E+00 0. -1.
     999902    2    1    2    0    0 -0.13491290044E-01  0.93641437323E-02 -0.15365015658E-01  0.10214403179E+01  0.10211927033E+01 0.  0.
     999903    2    3    3    0    0  0.11098897068E+00  0.39150141993E-01 -0.54892288897E-01  0.13130271823E+00  0.19389564300E-01 0.  0.
         14    1    1    2    0    0  0.13491290044E-01 -0.93641437323E-02  0.15365015658E-01  0.22489682102E-01  0.00000000000E+00 0. -1.
     999901    1    3    3    0    0 -0.12448026073E+00 -0.29785998261E-01  0.39527273239E-01  0.89013759966E+00  0.88000000000E+00 0.  1.
        -11    1    4    4    0    0  0.41763399675E-01  0.24729415984E-01 -0.23691434057E-01  0.54011764793E-01  0.51100000000E-03 0. -1.
         11    1    4    4    0    0  0.69225571010E-01  0.14420726008E-01 -0.31200854840E-01  0.77290953442E-01  0.51100000000E-03 0.  1.
</event>
<event>
 8    1  0.1111182E+005  0.1043930E+01  0.7957747E-01            NaN
         13   -1    0    0    0    0  0.00000000000E+00  0.00000000000E+00  0.74505805969E-08  0.10566000000E+00  0.10566000000E+00 0.  1.
     999900   -1    0    0    0    0 -0.00000000000E+00 -0.00000000000E+00 -0.74505805969E-08  0.93827000000E+00  0.93827000000E+00 0. -1.
     999902    2    1    2    0    0 -0.17868834432E-01 -0.11425362083E-01  0.59179541086E-02  0.10219105467E+01  0.10216732888E+01 0.  0.
     999903    2    3    3    0    0  0.35683495341E-01 -0.87016553086E-01 -0.89802880428E-01  0.13188562663E+00  0.22001564226E-01 0.  0.
         14    1    1    2    0    0  0.17868834432E-01  0.11425362083E-01 -0.59179541086E-02  0.22019453298E-01  0.00000000000E+00 0. -1.
     999901    1    3    3    0    0 -0.53552329773E-01  0.75591191002E-01  0.95720834537E-01  0.89002492007E+00  0.88000000000E+00 0.  1.
        -11    1    4    4    0    0  0.27557500575E-01 -0.75952841126E-01 -0.65684158819E-01  0.10412934146E+00  0.51100000000E-03 0. -1.
         11    1    4    4    0    0  0.81259947660E-02 -0.11063711959E-01 -0.24118721609E-01  0.27756285168E-01  0.51100000000E-03 0.  1.
</event>
<event>
 8    1  0.1459010E+005  0.1043930E+01  0.7957747E-01            NaN
         13   -1    0    0    0    0  0.00000000000E+00  0.00000000000E+00  0.74505805969E-08  0.10566000000E+00  0.10566000000E+00 0.  1.
     999900   -1    0    0    0    0 -0.00000000000E+00 -0.00000000000E+00 -0.74505805969E-08  0.93827000000E+00  0.93827000000E+00 0.  1.
     999902    2    1    2    0    0 -0.91914274521E-02  0.74519699589E-02  0.21608136815E-01  0.10192941365E+01  0.10189963743E+01 0.  0.
     999903    2    3    3    0    0  0.49160373093E-01  0.24904036141E-01  0.11822549744E+00  0.13191348444E+00  0.19670938760E-01 0.  0.
         14    1    1    2    0    0  0.91914274521E-02 -0.74519699589E-02 -0.21608136815E-01  0.24635863523E-01  0.00000000000E+00 0. -1.
     999901    1    3    3    0    0 -0.58351800546E-01 -0.17452066182E-01 -0.96617360628E-01  0.88738065204E+00  0.88000000000E+00 0. -1.
        -11    1    4    4    0    0  0.33994483334E-01  0.22862471053E-01  0.67828348135E-01  0.79241803434E-01  0.51100000000E-03 0.  1.
         11    1    4    4    0    0  0.15165889759E-01  0.20415650879E-02  0.50397149309E-01  0.52671681003E-01  0.51100000000E-03 0. -1.
</event>
<event>
 8    1  0.1111182E+005  0.1043930E+01  0.7957747E-01            NaN
         13   -1    0    0    0    0  0.00000000000E+00  0.00000000000E+00  0.74505805969E-08  0.10566000000E+00  0.10566000000E+00 0.  1.
     999900   -1    0    0    0    0 -0.00000000000E+00 -0.00000000000E+00 -0.74505805969E-08  0.93827000000E+00  0.93827000000E+00 0. -1.
     999902    2    1    2    0    0  0.70552913027E-02  0.28188767808E-02  0.22376976351E-01  0.10202984052E+01  0.10200246974E+01 0.  0.
     999903    2    3    3    0    0 -0.98040697326E-01 -0.23453282835E-01  0.82174099550E-01  0.13164150340E+00  0.20368308033E-01 0.  0.
         14    1    1    2    0    0 -0.70552913027E-02 -0.28188767808E-02 -0.22376976351E-01  0.23631594789E-01  0.00000000000E+00 0. -1.
     999901    1    3    3    0    0  0.10509598863E+00  0.26272159616E-01 -0.59797123199E-01  0.88865690181E+00  0.88000000000E+00 0. -1.
        -11    1    4    4    0    0 -0.73129030218E-01 -0.24649327008E-01  0.68527288195E-01  0.10320704787E+00  0.51100000000E-03 0.  1.
         11    1    4    4    0    0 -0.24911667108E-01  0.11960441730E-02  0.13646811355E-01  0.28434455524E-01  0.51100000000E-03 0. -1.
</event>
<event>
 8    1  0.1111182E+005  0.1043930E+01  0.7957747E-01            NaN
         13   -1    0    0    0    0  0.00000000000E+00  0.00000000000E+00  0.74505805969E-08  0.10566000000E+00  0.10566000000E+00 0. -1.
     999900   -1    0    0    0    0 -0.00000000000E+00 -0.00000000000E+00 -0.74505805969E-08  0.93827000000E+00  0.93827000000E+00 0. -1.
     999902    2    1    2    0    0 -0.75005815351E-02  0.96212283283E-02 -0.19673661411E-01  0.10207809242E+01  0.10205184053E+01 0.  0.
     999903    2    3    3    0    0  0.45538785430E-01 -0.10890288908E+00  0.46374117600E-01  0.12880365431E+00  0.22498941137E-01 0.  0.
         14    1    1    2    0    0  0.75005815351E-02 -0.96212283283E-02  0.19673661411E-01  0.23149075818E-01  0.00000000000E+00 0. -1.
     999901    1    3    3    0    0 -0.53039366965E-01  0.11852411741E+00 -0.66047779010E-01  0.89197726987E+00  0.88000000000E+00 0. -1.
        -11    1    4    4    0    0  0.18729252767E-01 -0.72322395284E-01  0.31395236519E-01  0.81038483240E-01  0.51100000000E-03 0. -1.
         11    1    4    4    0    0  0.26809532663E-01 -0.36580493796E-01  0.14978881081E-01  0.47765171070E-01  0.51100000000E-03 0.  1.
</event>
<event>
 7    1  0.1111182E+005  0.1043930E+01  0.7957747E-01            NaN
         13   -1    0    0    0    0  0.00000000000E+00  0.00000000000E+00  0.74505805969E-08  0.10566000000E+00  0.10566000000E+00 0. -1.
     999900   -1    0    0    0    0 -0.00000000000E+00 -0.00000000000E+00 -0.74505805969E-08  0.93827000000E+00  0.93827000000E+00 0.  1.
     999903    2    1    2    0    0  0.85416394518E-01 -0.17284051670E-01  0.14501579681E-01  0.90677980984E-01  0.20432854121E-01 0.  0.
         14    1    1    2    0    0  0.55532136459E-01 -0.23122825791E-01  0.89269382705E-02  0.60812609541E-01  0.00000000000E+00 0. -1.
     999901    1    1    2    0    0 -0.14094853098E+00  0.40406877461E-01 -0.23428517951E-01  0.89243940948E+00  0.88000000000E+00 0.  1.
        -11    1    3    3    0    0  0.61672078902E-01 -0.10502716816E-01  0.10876933669E-02  0.62571531662E-01  0.51100000000E-03 0.  1.
         11    1    3    3    0    0  0.23744315616E-01 -0.67813348544E-02  0.13413886314E-01  0.28106449322E-01  0.51100000000E-03 0. -1.
</event>
<event>
 8    1  0.1111182E+005  0.1043930E+01  0.7957747E-01            NaN
         13   -1    0    0    0    0  0.00000000000E+00  0.00000000000E+00  0.74505805969E-08  0.10566000000E+00  0.10566000000E+00 0. -1.
     999900   -1    0    0    0    0 -0.00000000000E+00 -0.00000000000E+00 -0.74505805969E-08  0.93827000000E+00  0.93827000000E+00 0. -1.
     999902    2    1    2    0    0  0.71659930111E-02  0.12431173315E-01 -0.17370214340E-01  0.10213998009E+01  0.10211512833E+01 0.  0.
     999903    2    3    3    0    0 -0.12372303339E+00  0.32699669377E-01  0.21462949425E-01  0.13064126808E+00  0.15159992000E-01 0.  0.
         14    1    1    2    0    0 -0.71659930111E-02 -0.12431173315E-01  0.17370214340E-01  0.22530199112E-01  0.00000000000E+00 0. -1.
     999901    1    3    3    0    0  0.13088902640E+00 -0.20268496062E-01 -0.38833163765E-01  0.89075853281E+00  0.88000000000E+00 0.  1.
        -11    1    4    4    0    0 -0.51628344219E-01  0.21280944564E-01  0.10612214094E-01  0.56844038714E-01  0.51100000000E-03 0.  1.
         11    1    4    4    0    0 -0.72094689175E-01  0.11418724813E-01  0.10850735332E-01  0.73797229364E-01  0.51100000000E-03 0. -1.
</event>
<event>
 8    1  0.1111182E+005  0.1043930E+01  0.7957747E-01            NaN
         13   -1    0    0    0    0  0.00000000000E+00  0.00000000000E+00  0.74505805969E-08  0.10566000000E+00  0.10566000000E+00 0. -1.
     999900   -1    0    0    0    0 -0.00000000000E+00 -0.00000000000E+00 -0.74505805969E-08  0.93827000000E+00  0.93827000000E+00 0. -1.
     999902    2    1    2    0    0  0.21358492196E-01  0.88670527820E-02  0.36636350389E-03  0.10208011428E+01  0.10205390875E+01 0.  0.
     999903    2    3    3    0    0  0.45143616195E-01 -0.11894310162E+00  0.23357279901E-01  0.13095298162E+00  0.20438037161E-01 0.  0.
         14    1    1    2    0    0 -0.21358492196E-01 -0.88670527820E-02 -0.36636350389E-03  0.23128857217E-01  0.00000000000E+00 0. -1.
     999901    1    3    3    0    0 -0.23785123999E-01  0.12781015441E+00 -0.22990916397E-01  0.88984816117E+00  0.88000000000E+00 0. -1.
        -11    1    4    4    0    0  0.34968221237E-01 -0.99265466653E-01  0.11641382266E-01  0.10588763983E+00  0.51100000000E-03 0.  1.
         11    1    4    4    0    0  0.10175394958E-01 -0.19677634971E-01  0.11715897635E-01  0.25065341789E-01  0.51100000000E-03 0. -1.
</event>
<event>
 8    1  0.1111182E+005  0.1043930E+01  0.7957747E-01            NaN
         13   -1    0    0    0    0  0.00000000000E+00  0.00000000000E+00  0.74505805969E-08  0.10566000000E+00  0.10566000000E+00 0.  1.
     999900   -1    0    0    0    0 -0.00000000000E+00 -0.00000000000E+00 -0.74505805969E-08  0.93827000000E+00  0.93827000000E+00 0.  1.
     999902    2    1    2    0    0  0.14072167002E-01 -0.12189734024E-02  0.18026138633E-01  0.10210290512E+01  0.10207721930E+01 0.  0.
     999903    2    3    3    0    0 -0.18386985613E-01 -0.88086745710E-01  0.95480580581E-01  0.13277300874E+00  0.20366015116E-01 0.  0.
         14    1    1    2    0    0 -0.14072167002E-01  0.12189734024E-02 -0.18026138633E-01  0.22900948764E-01  0.00000000000E+00 0.  1.
     999901    1    3    3    0    0  0.32459152615E-01  0.86867772308E-01 -0.77454441948E-01  0.88825604250E+00  0.88000000000E+00 0.  1.
        -11    1    4    4    0    0 -0.11315125061E-01 -0.49553982098E-01  0.68076431052E-01  0.84960524849E-01  0.51100000000E-03 0. -1.
         11    1    4    4    0    0 -0.70718605523E-02 -0.38532763612E-01  0.27404149529E-01  0.47812483890E-01  0.51100000000E-03 0.  1.
</event>
<event>
 8    1  0.1111182E+005  0.1043930E+01  0.7957747E-01            NaN
         13   -1    0    0    0    0  0.00000000000E+00  0.00000000000E+00  0.74505805969E-08  0.10566000000E+00  0.10566000000E+00 0. -1.
     999900   -1    0    0    0    0 -0.00000000000E+00 -0.00000000000E+00 -0.74505805969E-08  0.93827000000E+00  0.93827000000E+00 0.  1.
     999902    2    1    2    0    0 -0.15982224409E-01  0.29116167396E-02 -0.17511194180E-01  0.10200437920E+01  0.10197640839E+01 0.  0.
     999903    2    3    3    0    0 -0.22548995045E-01 -0.71695075093E-01  0.10248896681E+00  0.12874736571E+00  0.20573159481E-01 0.  0.
         14    1    1    2    0    0  0.15982224409E-01 -0.29116167396E-02  0.17511194180E-01  0.23886207960E-01  0.00000000000E+00 0. -1.
     999901    1    3    3    0    0  0.65667706358E-02  0.74606691833E-01 -0.12000016099E+00  0.89129642633E+00  0.88000000000E+00 0.  1.
        -11    1    4    4    0    0 -0.23763577141E-01 -0.46935962180E-01  0.62502174342E-01  0.81697460565E-01  0.51100000000E-03 0. -1.
         11    1    4    4    0    0  0.12145820954E-02 -0.24759112913E-01  0.39986792466E-01  0.47049905150E-01  0.51100000000E-03 0.  1.
</event>
<event>
 8    1  0.1111182E+005  0.1043930E+01  0.7957747E-01            NaN
         13   -1    0    0    0    0  0.00000000000E+00  0.00000000000E+00  0.74505805969E-08  0.10566000000E+00  0.10566000000E+00 0.  1.
     999900   -1    0    0    0    0 -0.00000000000E+00 -0.00000000000E+00 -0.74505805969E-08  0.93827000000E+00  0.93827000000E+00 0.  1.
     999902    2    1    2    0    0 -0.14605229537E-01  0.18746743555E-01 -0.21791776384E-02  0.10200657602E+01  0.10197865724E+01 0.  0.
     999903    2    3    3    0    0  0.42169188372E-01  0.10661077044E+00 -0.61809578054E-01  0.13186577916E+00  0.20592788849E-01 0.  0.
         14    1    1    2    0    0  0.14605229537E-01 -0.18746743555E-01  0.21791776384E-02  0.23864239752E-01  0.00000000000E+00 0.  1.
     999901    1    3    3    0    0 -0.56774417909E-01 -0.87864026886E-01  0.59630400416E-01  0.88819998109E+00  0.88000000000E+00 0.  1.
        -11    1    4    4    0    0  0.33642192079E-01  0.79561568407E-01 -0.36243450726E-01  0.93678648030E-01  0.51100000000E-03 0.  1.
         11    1    4    4    0    0  0.85269962937E-02  0.27049202034E-01 -0.25566127328E-01  0.38187131131E-01  0.51100000000E-03 0. -1.
</event>
<event>
 8    1  0.1111182E+005  0.1043930E+01  0.7957747E-01            NaN
         13   -1    0    0    0    0  0.00000000000E+00  0.00000000000E+00  0.74505805969E-08  0.10566000000E+00  0.10566000000E+00 0. -1.
     999900   -1    0    0    0    0 -0.00000000000E+00 -0.00000000000E+00 -0.74505805969E-08  0.93827000000E+00  0.93827000000E+00 0.  1.
     999902    2    1    2    0    0 -0.15841256714E-01  0.15144802397E-01 -0.95192887793E-02  0.10200359147E+01  0.10197560198E+01 0.  0.
     999903    2    3    3    0    0 -0.83149545698E-01  0.65576831493E-01 -0.78557327107E-01  0.13333413503E+00  0.19813382905E-01 0.  0.
         14    1    1    2    0    0  0.15841256714E-01 -0.15144802397E-01  0.95192887793E-02  0.23894085310E-01  0.00000000000E+00 0. -1.
     999901    1    3    3    0    0  0.67308288984E-01 -0.50432029096E-01  0.69038038328E-01  0.88670177966E+00  0.88000000000E+00 0. -1.
        -11    1    4    4    0    0 -0.60161751646E-01  0.36136019228E-01 -0.55060302822E-01  0.89202838042E-01  0.51100000000E-03 0.  1.
         11    1    4    4    0    0 -0.22987794052E-01  0.29440812265E-01 -0.23497024285E-01  0.44131296983E-01  0.51100000000E-03 0. -1.
</event>
<event>
 8    1  0.1128193E+005  0.1043930E+01  0.7957747E-01            NaN
         13   -1    0    0    0    0  0.00000000000E+00  0.00000000000E+00  0.74505805969E-08  0.10566000000E+00  0.10566000000E+00 0.  1.
     999900   -1    0    0    0    0 -0.00000000000E+00 -0.00000000000E+00 -0.74505805969E-08  0.93827000000E+00  0.93827000000E+00 0.  1.
     999902    2    1    2    0    0  0.21025744184E-01 -0.23430661952E-02 -0.10832462586E-01  0.10201620778E+01  0.10198851656E+01 0.  0.
     999903    2    3    3    0    0 -0.55679652497E-01  0.10899621436E+00  0.34407183858E-01  0.12868758080E+00  0.19905795758E-01 0.  0.
         14    1    1    2    0    0 -0.21025744184E-01  0.23430661952E-02  0.10832462586E-01  0.23767922151E-01  0.00000000000E+00 0.  1.
     999901    1    3    3    0    0  0.76705396681E-01 -0.11133928056E+00 -0.45239646443E-01  0.89147449705E+00  0.88000000000E+00 0.  1.
        -11    1    4    4    0    0 -0.39731399334E-01  0.72249596358E-01  0.32347505799E-01  0.88573193006E-01  0.51100000000E-03 0.  1.
         11    1    4    4    0    0 -0.15948253163E-01  0.36746618002E-01  0.20596780584E-02  0.40114387796E-01  0.51100000000E-03 0. -1.
</event>
<event>
 8    1  0.1111182E+005  0.1043930E+01  0.7957747E-01            NaN
         13   -1    0    0    0    0  0.00000000000E+00  0.00000000000E+00  0.74505805969E-08  0.10566000000E+00  0.10566000000E+00 0.  1.
     999900   -1    0    0    0    0 -0.00000000000E+00 -0.00000000000E+00 -0.74505805969E-08  0.93827000000E+00  0.93827000000E+00 0.  1.
     999902    2    1    2    0    0  0.82031861593E-02  0.19406317909E-01 -0.98322390829E-03  0.10228381967E+01  0.10226207080E+01 0.  0.
     999903    2    3    3    0    0 -0.20929945949E-01  0.12955058151E+00  0.20335736682E-01  0.13523750027E+00  0.25577792825E-01 0.  0.
         14    1    1    2    0    0 -0.82031861593E-02 -0.19406317909E-01  0.98322390829E-03  0.21091803318E-01  0.00000000000E+00 0. -1.
     999901    1    3    3    0    0  0.29133132108E-01 -0.11014426360E+00 -0.21318960590E-01  0.88760069641E+00  0.88000000000E+00 0.  1.
        -11    1    4    4    0    0 -0.88278005859E-02  0.10553475894E-01 -0.71652936323E-03  0.13786966742E-01  0.51100000000E-03 0. -1.
         11    1    4    4    0    0 -0.12102145363E-01  0.11899710562E+00  0.21052266045E-01  0.12145053353E+00  0.51100000000E-03 0.  1.
</event>
<event>
 8    1  0.1111182E+005  0.1043930E+01  0.7957747E-01            NaN
         13   -1    0    0    0    0  0.00000000000E+00  0.00000000000E+00  0.74505805969E-08  0.10566000000E+00  0.10566000000E+00 0.  1.
     999900   -1    0    0    0    0 -0.00000000000E+00 -0.00000000000E+00 -0.74505805969E-08  0.93827000000E+00  0.93827000000E+00 0. -1.
     999902    2    1    2    0    0  0.12322788568E-01 -0.21275211388E-01  0.18742435066E-02  0.10192723739E+01  0.10189740790E+01 0.  0.
     999903    2    3    3    0    0  0.96559589218E-01  0.81787939598E-01 -0.14783323862E-01  0.12910647572E+00  0.20902489681E-01 0.  0.
         14    1    1    2    0    0 -0.12322788568E-01  0.21275211388E-01 -0.18742435066E-02  0.24657626132E-01  0.00000000000E+00 0. -1.
     999901    1    3    3    0    0 -0.84236800650E-01 -0.10306315099E+00  0.16657567369E-01  0.89016589815E+00  0.88000000000E+00 0.  1.
        -11    1    4    4    0    0  0.25302089132E-01  0.10595641131E-01 -0.11542741994E-02  0.27460094598E-01  0.51100000000E-03 0.  1.
         11    1    4    4    0    0  0.71257500087E-01  0.71192298467E-01 -0.13629049663E-01  0.10164638112E+00  0.51100000000E-03 0. -1.
</event>
<event>
 8    1  0.1111182E+005  0.1043930E+01  0.7957747E-01            NaN
         13   -1    0    0    0    0  0.00000000000E+00  0.00000000000E+00  0.74505805969E-08  0.10566000000E+00  0.10566000000E+00 0.  1.
     999900   -1    0    0    0    0 -0.00000000000E+00 -0.00000000000E+00 -0.74505805969E-08  0.93827000000E+00  0.93827000000E+00 0. -1.
     999902    2    1    2    0    0 -0.65791429349E-02  0.15505579475E-01  0.14908214570E-01  0.10214363792E+01  0.10211886768E+01 0.  0.
     999903    2    3    3    0    0 -0.94121788292E-01 -0.52253568862E-01 -0.69041634990E-01  0.13053650029E+00  0.26147352745E-01 0.  0.
         14    1    1    2    0    0  0.65791429349E-02 -0.15505579475E-01 -0.14908214570E-01  0.22493620835E-01  0.00000000000E+00 0. -1.
     999901    1    3    3    0    0  0.87542645357E-01  0.67759148337E-01  0.83949849560E-01  0.89089987888E+00  0.88000000000E+00 0.  1.
        -11    1    4    4    0    0 -0.63787983229E-01 -0.47250566398E-01 -0.43233591810E-01  0.90393182327E-01  0.51100000000E-03 0. -1.
         11    1    4    4    0    0 -0.30333805062E-01 -0.50030024636E-02 -0.25808043180E-01  0.40143317962E-01  0.51100000000E-03 0.  1.
</event>
<event>
 8    1  0.1111182E+005  0.1043930E+01  0.7957747E-01            NaN
         13   -1    0    0    0    0  0.00000000000E+00  0.00000000000E+00  0.74505805969E-08  0.10566000000E+00  0.10566000000E+00 0.  1.
     999900   -1    0    0    0    0 -0.00000000000E+00 -0.00000000000E+00 -0.74505805969E-08  0.93827000000E+00  0.93827000000E+00 0. -1.
     999902    2    1    2    0    0  0.27156550240E-01 -0.76286104448E-02 -0.13634082907E-01  0.10126001080E+01  0.10121153178E+01 0.  0.
     999903    2    3    3    0    0  0.87760987934E-02  0.46900311347E-01 -0.11431944531E+00  0.12499164332E+00  0.16652813886E-01 0.  0.
         14    1    1    2    0    0 -0.27156550240E-01  0.76286104448E-02  0.13634082907E-01  0.31329892036E-01  0.00000000000E+00 0. -1.
     999901    1    3    3    0    0  0.18380451447E-01 -0.54528921792E-01  0.10068536240E+00  0.88760846464E+00  0.88000000000E+00 0.  1.
        -11    1    4    4    0    0  0.34607301160E-02  0.30144722754E-01 -0.51689177593E-01  0.59939245608E-01  0.51100000000E-03 0.  1.
         11    1    4    4    0    0  0.53153686774E-02  0.16755588594E-01 -0.62630267712E-01  0.65052397712E-01  0.51100000000E-03 0. -1.
</event>
<event>
 8    1  0.1151702E+005  0.1043930E+01  0.7957747E-01            NaN
         13   -1    0    0    0    0  0.00000000000E+00  0.00000000000E+00  0.74505805969E-08  0.10566000000E+00  0.10566000000E+00 0.  1.
     999900   -1    0    0    0    0 -0.00000000000E+00 -0.00000000000E+00 -0.74505805969E-08  0.93827000000E+00  0.93827000000E+00 0.  1.
     999902    2    1    2    0    0 -0.18144135111E-01  0.45188788741E-02  0.13892971019E-01  0.10206352678E+01  0.10203693965E+01 0.  0.
     999903    2    3    3    0    0  0.10049085794E+00  0.51937765779E-01  0.60349529934E-01  0.13019659821E+00  0.22652690312E-01 0.  0.
         14    1    1    2    0    0  0.18144135111E-01 -0.45188788741E-02 -0.13892971019E-01  0.23294732214E-01  0.00000000000E+00 0.  1.
     999901    1    3    3    0    0 -0.11863499305E+00 -0.47418886905E-01 -0.46456558915E-01  0.89043866958E+00  0.88000000000E+00 0.  1.
        -11    1    4    4    0    0  0.43105465903E-01  0.11723923527E-01  0.30118722624E-01  0.53878846935E-01  0.51100000000E-03 0. -1.
         11    1    4    4    0    0  0.57385392036E-01  0.40213842252E-01  0.30230807310E-01  0.76317751273E-01  0.51100000000E-03 0.  1.
</event>
<event>
 8    1  0.1111182E+005  0.1043930E+01  0.7957747E-01            NaN
         13   -1    0    0    0    0  0.00000000000E+00  0.00000000000E+00  0.74505805969E-08  0.10566000000E+00  0.10566000000E+00 0. -1.
     999900   -1    0    0    0    0 -0.00000000000E+00 -0.00000000000E+00 -0.74505805969E-08  0.93827000000E+00  0.93827000000E+00 0.  1.
     999902    2    1    2    0    0  0.54991975619E-02 -0.21537754417E-01 -0.93671194819E-02  0.10198082470E+01  0.10195229285E+01 0.  0.
     999903    2    3    3    0    0  0.73625395573E-01 -0.71266999207E-01  0.80653437607E-01  0.13120379208E+00  0.14483577263E-01 0.  0.
         14    1    1    2    0    0 -0.54991975619E-02  0.21537754417E-01  0.93671194819E-02  0.24121752974E-01  0.00000000000E+00 0. -1.
     999901    1    3    3    0    0 -0.68126198011E-01  0.49729244790E-01 -0.90020557089E-01  0.88860445494E+00  0.88000000000E+00 0.  1.
        -11    1    4    4    0    0  0.15874673760E-01 -0.11688721793E-01  0.22270229542E-01  0.29746524654E-01  0.51100000000E-03 0. -1.
         11    1    4    4    0    0  0.57750721813E-01 -0.59578277414E-01  0.58383208065E-01  0.10145726743E+00  0.51100000000E-03 0.  1.
</event>
<event>
 8    1  0.1111182E+005  0.1043930E+01  0.7957747E-01            NaN
         13   -1    0    0    0    0  0.00000000000E+00  0.00000000000E+00  0.74505805969E-08  0.10566000000E+00  0.10566000000E+00 0.  1.
     999900   -1    0    0    0    0 -0.00000000000E+00 -0.00000000000E+00 -0.74505805969E-08  0.93827000000E+00  0.93827000000E+00 0. -1.
     999902    2    1    2    0    0  0.15234137625E-01  0.12484334527E-01 -0.12099801705E-01  0.10208141449E+01  0.10205523875E+01 0.  0.
     999903    2    3    3    0    0 -0.72269667890E-01  0.20021290760E-01 -0.10630240599E+00  0.13143916638E+00  0.18769548680E-01 0.  0.
         14    1    1    2    0    0 -0.15234137625E-01 -0.12484334527E-01  0.12099801705E-01  0.23115855144E-01  0.00000000000E+00 0. -1.
     999901    1    3    3    0    0  0.87503805514E-01 -0.75369562328E-02  0.94202604287E-01  0.88937497848E+00  0.88000000000E+00 0. -1.
        -11    1    4    4    0    0 -0.58645813176E-01  0.84059542529E-02 -0.78094846496E-01  0.98025800890E-01  0.51100000000E-03 0. -1.
         11    1    4    4    0    0 -0.13623854714E-01  0.11615336507E-01 -0.28207559496E-01  0.33413365487E-01  0.51100000000E-03 0.  1.
</event>
<event>
 8    1  0.1111182E+005  0.1043930E+01  0.7957747E-01            NaN
         13   -1    0    0    0    0  0.00000000000E+00  0.00000000000E+00  0.74505805969E-08  0.10566000000E+00  0.10566000000E+00 0. -1.
     999900   -1    0    0    0    0 -0.00000000000E+00 -0.00000000000E+00 -0.74505805969E-08  0.93827000000E+00  0.93827000000E+00 0. -1.
     999902    2    1    2    0    0 -0.16002812640E-02 -0.13318087299E-01 -0.19091670858E-01  0.10205970995E+01  0.10203303461E+01 0.  0.
     999903    2    3    3    0    0  0.70771024438E-01  0.50806342588E-01  0.92152029009E-01  0.12833889183E+00  0.19724410239E-01 0.  0.
         14    1    1    2    0    0  0.16002812640E-02  0.13318087299E-01  0.19091670858E-01  0.23332900496E-01  0.00000000000E+00 0. -1.
     999901    1    3    3    0    0 -0.72371305702E-01 -0.64124429886E-01 -0.11124369987E+00  0.89225820767E+00  0.88000000000E+00 0.  1.
        -11    1    4    4    0    0  0.34890708933E-02  0.99066667504E-02  0.92778477405E-02  0.14023381956E-01  0.51100000000E-03 0. -1.
         11    1    4    4    0    0  0.67281953544E-01  0.40899675837E-01  0.82874181268E-01  0.11431550988E+00  0.51100000000E-03 0.  1.
</event>
<event>
 8    1  0.1111182E+005  0.1043930E+01  0.7957747E-01            NaN
         13   -1    0    0    0    0  0.00000000000E+00  0.00000000000E+00  0.74505805969E-08  0.10566000000E+00  0.10566000000E+00 0.  1.
     999900   -1    0    0    0    0 -0.00000000000E+00 -0.00000000000E+00 -0.74505805969E-08  0.93827000000E+00  0.93827000000E+00 0.  1.
     999902    2    1    2    0    0 -0.23376037792E-01 -0.10886259779E-02  0.11144275350E-01  0.10180105262E+01  0.10176805060E+01 0.  0.
     999903    2    3    3    0    0  0.77282688494E-02 -0.11582633630E+00 -0.51064653993E-01  0.12784078342E+00  0.16130737636E-01 0.  0.
         14    1    1    2    0    0  0.23376037792E-01  0.10886259779E-02 -0.11144275350E-01  0.25919473808E-01  0.00000000000E+00 0. -1.
     999901    1    3    3    0    0 -0.31104306642E-01  0.11473771032E+00  0.62208929343E-01  0.89016974278E+00  0.88000000000E+00 0. -1.
        -11    1    4    4    0    0 -0.11853908520E-02 -0.60824877310E-01 -0.33301921365E-01  0.69356686331E-01  0.51100000000E-03 0.  1.
         11    1    4    4    0    0  0.89136597014E-02 -0.55001458993E-01 -0.17762732629E-01  0.58484097086E-01  0.51100000000E-03 0. -1.
</event>
<event>
 8    1  0.1111182E+005  0.1043930E+01  0.7957747E-01            NaN
         13   -1    0    0    0    0  0.00000000000E+00  0.00000000000E+00  0.74505805969E-08  0.10566000000E+00  0.10566000000E+00 0. -1.
     999900   -1    0    0    0    0 -0.00000000000E+00 -0.00000000000E+00 -0.74505805969E-08  0.93827000000E+00  0.93827000000E+00 0. -1.
     999902    2    1    2    0    0 -0.16306584183E-01 -0.14688485113E-01  0.69721381851E-02  0.10209024731E+01  0.10206427351E+01 0.  0.
     999903    2    3    3    0    0 -0.96399412757E-01  0.23919332976E-01 -0.84189065941E-01  0.13173668997E+00  0.20044335644E-01 0.  0.
         14    1    1    2    0    0  0.16306584183E-01  0.14688485113E-01 -0.69721381851E-02  0.23027526865E-01  0.00000000000E+00 0. -1.
     999901    1    3    3    0    0  0.80092828574E-01 -0.38607818090E-01  0.91161204126E-01  0.88916578316E+00  0.88000000000E+00 0.  1.
        -11    1    4    4    0    0 -0.72886724761E-01  0.15722150287E-01 -0.51413474726E-01  0.90571889461E-01  0.51100000000E-03 0. -1.
         11    1    4    4    0    0 -0.23512687996E-01  0.81971826890E-02 -0.32775591215E-01  0.41164800514E-01  0.51100000000E-03 0.  1.
</event>
<event>
 8    1  0.1111182E+005  0.1043930E+01  0.7957747E-01            NaN
         13   -1    0    0    0    0  0.00000000000E+00  0.00000000000E+00  0.74505805969E-08  0.10566000000E+00  0.10566000000E+00 0. -1.
     999900   -1    0    0    0    0 -0.00000000000E+00 -0.00000000000E+00 -0.74505805969E-08  0.93827000000E+00  0.93827000000E+00 0.  1.
     999902    2    1    2    0    0 -0.12634741966E-01 -0.14881483800E-01 -0.13406874781E-01  0.10202479487E+01  0.10199730571E+01 0.  0.
     999903    2    3    3    0    0  0.54259908036E-01  0.88329057566E-01 -0.75020000102E-01  0.12956086148E+00  0.20294245020E-01 0.  0.
         14    1    1    2    0    0  0.12634741966E-01  0.14881483800E-01  0.13406874781E-01  0.23682051347E-01  0.00000000000E+00 0. -1.
     999901    1    3    3    0    0 -0.66894650002E-01 -0.10321054137E+00  0.61613125321E-01  0.89068708717E+00  0.88000000000E+00 0.  1.
        -11    1    4    4    0    0  0.35258026508E-01  0.72946283529E-01 -0.60543268193E-01  0.10114364616E+00  0.51100000000E-03 0. -1.
         11    1    4    4    0    0  0.19001881528E-01  0.15382774038E-01 -0.14476731909E-01  0.28417215318E-01  0.51100000000E-03 0.  1.
</event>
<event>
 8    1  0.1111182E+005  0.1043930E+01  0.7957747E-01            NaN
         13   -1    0    0    0    0  0.00000000000E+00  0.00000000000E+00  0.74505805969E-08  0.10566000000E+00  0.10566000000E+00 0. -1.
     999900   -1    0    0    0    0 -0.00000000000E+00 -0.00000000000E+00 -0.74505805969E-08  0.93827000000E+00  0.93827000000E+00 0.  1.
     999902    2    1    2    0    0  0.10093593773E-01  0.10425584777E-01 -0.29461712345E-01  0.10110884722E+01  0.10105549627E+01 0.  0.
     999903    2    3    3    0    0 -0.37627487264E-02  0.82682890139E-01  0.85182034956E-01  0.12060753182E+00  0.20966140618E-01 0.  0.
         14    1    1    2    0    0 -0.10093593773E-01 -0.10425584777E-01  0.29461712345E-01  0.32841527789E-01  0.00000000000E+00 0. -1.
     999901    1    3    3    0    0  0.13856342500E-01 -0.72257305362E-01 -0.11464374730E+00  0.89048094039E+00  0.88000000000E+00 0.  1.
        -11    1    4    4    0    0  0.49181754206E-02  0.16531512771E-01  0.94365852222E-02  0.19666967880E-01  0.51100000000E-03 0.  1.
         11    1    4    4    0    0 -0.86809241470E-02  0.66151377369E-01  0.75745449734E-01  0.10094056394E+00  0.51100000000E-03 0. -1.
</event>
<event>
 8    1  0.1111182E+005  0.1043930E+01  0.7957747E-01            NaN
         13   -1    0    0    0    0  0.00000000000E+00  0.00000000000E+00  0.74505805969E-08  0.10566000000E+00  0.10566000000E+00 0.  1.
     999900   -1    0    0    0    0 -0.00000000000E+00 -0.00000000000E+00 -0.74505805969E-08  0.93827000000E+00  0.93827000000E+00 0. -1.
     999902    2    1    2    0    0 -0.18252442020E-01  0.12900456171E-01  0.70887624219E-02  0.10204816746E+01  0.10202122447E+01 0.  0.
     999903    2    3    3    0    0 -0.79124539895E-01  0.97504370818E-01 -0.41296301898E-01  0.13301091506E+00  0.14789314818E-01 0.  0.
         14    1    1    2    0    0  0.18252442020E-01 -0.12900456171E-01 -0.70887624219E-02  0.23448325351E-01  0.00000000000E+00 0.  1.
     999901    1    3    3    0    0  0.60872097875E-01 -0.84603914647E-01  0.48385064320E-01  0.88747075959E+00  0.88000000000E+00 0.  1.
        -11    1    4    4    0    0 -0.15903043051E-01  0.28614154670E-01 -0.13960546755E-01  0.35592620196E-01  0.51100000000E-03 0.  1.
         11    1    4    4    0    0 -0.63221496844E-01  0.68890216148E-01 -0.27335755144E-01  0.97418294865E-01  0.51100000000E-03 0. -1.
</event>
<event>
 8    1  0.1111182E+005  0.1043930E+01  0.7957747E-01            NaN
         13   -1    0    0    0    0  0.00000000000E+00  0.00000000000E+00  0.74505805969E-08  0.10566000000E+00  0.10566000000E+00 0. -1.
     999900   -1    0    0    0    0 -0.00000000000E+00 -0.00000000000E+00 -0.74505805969E-08  0.93827000000E+00  0.93827000000E+00 0. -1.
     999902    2    1    2    0    0 -0.49530626508E-02  0.22251183650E-01 -0.49473771397E-02  0.10206035227E+01  0.10203369179E+01 0.  0.
     999903    2    3    3    0    0 -0.10579184722E-01 -0.55669290442E-01 -0.11547704713E+00  0.13025524168E+00  0.20505865624E-01 0.  0.
         14    1    1    2    0    0  0.49530626508E-02 -0.22251183650E-01  0.49473771397E-02  0.23326477317E-01  0.00000000000E+00 0. -1.
     999901    1    3    3    0    0  0.56261220708E-02  0.77920474092E-01  0.11052966999E+00  0.89034828100E+00  0.88000000000E+00 0. -1.
        -11    1    4    4    0    0  0.13745322790E-02 -0.22765389336E-01 -0.28567043236E-01  0.36558027448E-01  0.51100000000E-03 0.  1.
         11    1    4    4    0    0 -0.11953717001E-01 -0.32903901106E-01 -0.86910003891E-01  0.93697214235E-01  0.51100000000E-03 0. -1.
</event>
<event>
 8    1  0.1111182E+005  0.1043930E+01  0.7957747E-01            NaN
         13   -1    0    0    0    0  0.00000000000E+00  0.00000000000E+00  0.74505805969E-08  0.10566000000E+00  0.10566000000E+00 0.  1.
     999900   -1    0    0    0    0 -0.00000000000E+00 -0.00000000000E+00 -0.74505805969E-08  0.93827000000E+00  0.93827000000E+00 0.  1.
     999902    2    1    2    0    0  0.12238884050E-01 -0.14077757897E-01  0.52153134909E-02  0.10245606158E+01  0.10243775097E+01 0.  0.
     999903    2    3    3    0    0  0.71498867063E-01  0.10595246133E+00 -0.33467751999E-01  0.13359744108E+00  0.19752817169E-01 0.  0.
         14    1    1    2    0    0 -0.12238884050E-01  0.14077757897E-01 -0.52153134909E-02  0.19369384218E-01  0.00000000000E+00 0. -1.
     999901    1    3    3    0    0 -0.59259983013E-01 -0.12003021923E+00  0.38683065490E-01  0.89096317470E+00  0.88000000000E+00 0. -1.
        -11    1    4    4    0    0  0.67832736892E-01  0.92693393140E-01 -0.34095765881E-01  0.11981705930E+00  0.51100000000E-03 0. -1.
         11    1    4    4    0    0  0.36661301709E-02  0.13259068192E-01  0.62801388197E-03  0.13780381787E-01  0.51100000000E-03 0.  1.
</event>
<event>
 8    1  0.1111182E+005  0.1043930E+01  0.7957747E-01            NaN
         13   -1    0    0    0    0  0.00000000000E+00  0.00000000000E+00  0.74505805969E-08  0.10566000000E+00  0.10566000000E+00 0.  1.
     999900   -1    0    0    0    0 -0.00000000000E+00 -0.00000000000E+00 -0.74505805969E-08  0.93827000000E+00  0.93827000000E+00 0. -1.
     999902    2    1    2    0    0  0.12615272129E-01  0.43941286200E-02  0.19198777259E-01  0.10205409747E+01  0.10202729216E+01 0.  0.
     999903    2    3    3    0    0 -0.75336309234E-01 -0.51643086765E-01  0.92220905599E-01  0.13137963870E+00  0.20330915764E-01 0.  0.
         14    1    1    2    0    0 -0.12615272129E-01 -0.43941286200E-02 -0.19198777259E-01  0.23389025321E-01  0.00000000000E+00 0. -1.
     999901    1    3    3    0    0  0.87951581363E-01  0.56037215385E-01 -0.73022128340E-01  0.88916133598E+00  0.88000000000E+00 0. -1.
        -11    1    4    4    0    0 -0.39702975123E-01 -0.15824398303E-01  0.37026385203E-01  0.56550438880E-01  0.51100000000E-03 0. -1.
         11    1    4    4    0    0 -0.35633334111E-01 -0.35818688462E-01  0.55194520396E-01  0.74829199820E-01  0.51100000000E-03 0.  1.
</event>
<event>
 8    1  0.1111182E+005  0.1043930E+01  0.7957747E-01            NaN
         13   -1    0    0    0    0  0.00000000000E+00  0.00000000000E+00  0.74505805969E-08  0.10566000000E+00  0.10566000000E+00 0. -1.
     999900   -1    0    0    0    0 -0.00000000000E+00 -0.00000000000E+00 -0.74505805969E-08  0.93827000000E+00  0.93827000000E+00 0. -1.
     999902    2    1    2    0    0  0.66073345047E-02  0.21980696594E-01 -0.48545404001E-02  0.10204699392E+01  0.10202002364E+01 0.  0.
     999903    2    3    3    0    0 -0.95527485602E-01  0.11486478030E-01  0.84854685455E-01  0.12997041906E+00  0.20845922946E-01 0.  0.
         14    1    1    2    0    0 -0.66073345047E-02 -0.21980696594E-01  0.48545404001E-02  0.23460060838E-01  0.00000000000E+00 0. -1.
     999901    1    3    3    0    0  0.10213482011E+00  0.10494218564E-01 -0.89709225855E-01  0.89049952010E+00  0.88000000000E+00 0. -1.
        -11    1    4    4    0    0 -0.33278574731E-01  0.91792316862E-02  0.41953182491E-01  0.54332793712E-01  0.51100000000E-03 0.  1.
         11    1    4    4    0    0 -0.62248910872E-01  0.23072463434E-02  0.42901502964E-01  0.75637625346E-01  0.51100000000E-03 0. -1.
</event>
<event>
 8    1  0.1111182E+005  0.1043930E+01  0.7957747E-01            NaN
         13   -1    0    0    0    0  0.00000000000E+00  0.00000000000E+00  0.74505805969E-08  0.10566000000E+00  0.10566000000E+00 0. -1.
     999900   -1    0    0    0    0 -0.00000000000E+00 -0.00000000000E+00 -0.74505805969E-08  0.93827000000E+00  0.93827000000E+00 0. -1.
     999902    2    1    2    0    0  0.12996727519E-01  0.29529294755E-03 -0.19636941192E-01  0.10203798071E+01  0.10201080037E+01 0.  0.
     999903    2    3    3    0    0 -0.16156940087E-01 -0.58993421307E-01 -0.11591107117E+00  0.13266713061E+00  0.20589333511E-01 0.  0.
         14    1    1    2    0    0 -0.12996727519E-01 -0.29529294755E-03  0.19636941192E-01  0.23550192855E-01  0.00000000000E+00 0. -1.
     999901    1    3    3    0    0  0.29153667606E-01  0.59288714255E-01  0.96274129980E-01  0.88771267653E+00  0.88000000000E+00 0.  1.
        -11    1    4    4    0    0 -0.10477494018E-02 -0.57049804663E-02 -0.29192637605E-01  0.29767697128E-01  0.51100000000E-03 0. -1.
         11    1    4    4    0    0 -0.15109190685E-01 -0.53288440841E-01 -0.86718433566E-01  0.10289943348E+00  0.51100000000E-03 0.  1.
</event>
<event>
 8    1  0.1237872E+005  0.1043930E+01  0.7957747E-01            NaN
         13   -1    0    0    0    0  0.00000000000E+00  0.00000000000E+00  0.74505805969E-08  0.10566000000E+00  0.10566000000E+00 0.  1.
     999900   -1    0    0    0    0 -0.00000000000E+00 -0.00000000000E+00 -0.74505805969E-08  0.93827000000E+00  0.93827000000E+00 0.  1.
     999902    2    1    2    0    0  0.22663558733E-01 -0.32598461823E-02 -0.66657577497E-02  0.10200826560E+01  0.10198038680E+01 0.  0.
     999903    2    3    3    0    0  0.10086108992E-01  0.24194680157E-01  0.12576146043E+00  0.12966201863E+00  0.17583571977E-01 0.  0.
         14    1    1    2    0    0 -0.22663558733E-01  0.32598461823E-02  0.66657577497E-02  0.23847344044E-01  0.00000000000E+00 0.  1.
     999901    1    3    3    0    0  0.12577449741E-01 -0.27454526340E-01 -0.13242721818E+00  0.89042063732E+00  0.88000000000E+00 0.  1.
        -11    1    4    4    0    0 -0.18087840448E-02  0.17085955723E-01  0.80918232660E-01  0.82723775787E-01  0.51100000000E-03 0.  1.
         11    1    4    4    0    0  0.11894893036E-01  0.71087244347E-02  0.44843227771E-01  0.46938242845E-01  0.51100000000E-03 0. -1.
</event>
<event>
 8    1  0.1111182E+005  0.1043930E+01  0.7957747E-01            NaN
         13   -1    0    0    0    0  0.00000000000E+00  0.00000000000E+00  0.74505805969E-08  0.10566000000E+00  0.10566000000E+00 0. -1.
     999900   -1    0    0    0    0 -0.00000000000E+00 -0.00000000000E+00 -0.74505805969E-08  0.93827000000E+00  0.93827000000E+00 0. -1.
     999902    2    1    2    0    0  0.10171743329E-01  0.19632597363E-01 -0.90729843283E-02  0.10200297430E+01  0.10197497018E+01 0.  0.
     999903    2    3    3    0    0  0.59084924948E-01 -0.65736876051E-01 -0.93926979420E-01  0.13049017285E+00  0.19825299938E-01 0.  0.
         14    1    1    2    0    0 -0.10171743329E-01 -0.19632597363E-01  0.90729843283E-02  0.23900257032E-01  0.00000000000E+00 0. -1.
     999901    1    3    3    0    0 -0.48913181620E-01  0.85369473414E-01  0.84853995092E-01  0.88953957012E+00  0.88000000000E+00 0.  1.
        -11    1    4    4    0    0  0.56241261969E-02 -0.16810203289E-01 -0.23451050103E-01  0.29401132666E-01  0.51100000000E-03 0. -1.
         11    1    4    4    0    0  0.53460798752E-01 -0.48926672762E-01 -0.70475929317E-01  0.10108904018E+00  0.51100000000E-03 0.  1.
</event>
<event>
 8    1  0.1111182E+005  0.1043930E+01  0.7957747E-01            NaN
         13   -1    0    0    0    0  0.00000000000E+00  0.00000000000E+00  0.74505805969E-08  0.10566000000E+00  0.10566000000E+00 0. -1.
     999900   -1    0    0    0    0 -0.00000000000E+00 -0.00000000000E+00 -0.74505805969E-08  0.93827000000E+00  0.93827000000E+00 0.  1.
     999902    2    1    2    0    0  0.15747856843E-01 -0.17512690987E-01  0.59783559032E-02  0.10196312330E+01  0.10193416606E+01 0.  0.
     999903    2    3    3    0    0 -0.67801411214E-01 -0.88953236382E-02 -0.10686755592E+00  0.12845844442E+00  0.20118133319E-01 0.  0.
         14    1    1    2    0    0 -0.15747856843E-01  0.17512690987E-01 -0.59783559032E-02  0.24298767048E-01  0.00000000000E+00 0. -1.
     999901    1    3    3    0    0  0.83549268057E-01 -0.86173673491E-02  0.11284591182E+00  0.89117278854E+00  0.88000000000E+00 0. -1.
        -11    1    4    4    0    0 -0.29275309284E-01  0.53336805051E-02 -0.37925623122E-01  0.48208981441E-01  0.51100000000E-03 0. -1.
         11    1    4    4    0    0 -0.38526101930E-01 -0.14229004143E-01 -0.68941932797E-01  0.80249462974E-01  0.51100000000E-03 0.  1.
</event>
<event>
 8    1  0.1111182E+005  0.1043930E+01  0.7957747E-01            NaN
         13   -1    0    0    0    0  0.00000000000E+00  0.00000000000E+00  0.74505805969E-08  0.10566000000E+00  0.10566000000E+00 0. -1.
     999900   -1    0    0    0    0 -0.00000000000E+00 -0.00000000000E+00 -0.74505805969E-08  0.93827000000E+00  0.93827000000E+00 0.  1.
     999902    2    1    2    0    0  0.12895760222E-01 -0.15782510176E-01  0.19752852797E-01  0.10155475503E+01  0.10151508575E+01 0.  0.
     999903    2    3    3    0    0  0.12175858781E+00 -0.90648372359E-02 -0.30386446249E-01  0.12739768022E+00  0.19987691993E-01 0.  0.
         14    1    1    2    0    0 -0.12895760222E-01  0.15782510176E-01 -0.19752852797E-01  0.28382449732E-01  0.00000000000E+00 0. -1.
     999901    1    3    3    0    0 -0.10886282758E+00 -0.67176729400E-02  0.50139299046E-01  0.88814987005E+00  0.88000000000E+00 0.  1.
        -11    1    4    4    0    0  0.59061308754E-01 -0.72941439928E-02 -0.49697258088E-02  0.59719360545E-01  0.51100000000E-03 0.  1.
         11    1    4    4    0    0  0.62697279051E-01 -0.17706932430E-02 -0.25416720440E-01  0.67678319674E-01  0.51100000000E-03 0. -1.
</event>
<event>
 8    1  0.1327120E+005  0.1043930E+01  0.7957747E-01            NaN
         13   -1    0    0    0    0  0.00000000000E+00  0.00000000000E+00  0.74505805969E-08  0.10566000000E+00  0.10566000000E+00 0. -1.
     999900   -1    0    0    0    0 -0.00000000000E+00 -0.00000000000E+00 -0.74505805969E-08  0.93827000000E+00  0.93827000000E+00 0.  1.
     999902    2    1    2    0    0  0.21332578128E-01 -0.10426064736E-01  0.56292044476E-02  0.10195277530E+01  0.10192356791E+01 0.  0.
     999903    2    3    3    0    0 -0.11020581431E+00  0.41969797646E-01 -0.42815034886E-01  0.12689427873E+00  0.19032743882E-01 0.  0.
         14    1    1    2    0    0 -0.21332578128E-01  0.10426064736E-01 -0.56292044476E-02  0.24402246990E-01  0.00000000000E+00 0. -1.
     999901    1    3    3    0    0  0.13153839244E+00 -0.52395862381E-01  0.48444239334E-01  0.89263347428E+00  0.88000000000E+00 0. -1.
        -11    1    4    4    0    0 -0.23437446564E-01  0.16389706055E-01 -0.14723387776E-01  0.32171037201E-01  0.51100000000E-03 0.  1.
         11    1    4    4    0    0 -0.86768367748E-01  0.25580091591E-01 -0.28091647111E-01  0.94723241529E-01  0.51100000000E-03 0. -1.
</event>
<event>
 8    1  0.1111182E+005  0.1043930E+01  0.7957747E-01            NaN
         13   -1    0    0    0    0  0.00000000000E+00  0.00000000000E+00  0.74505805969E-08  0.10566000000E+00  0.10566000000E+00 0.  1.
     999900   -1    0    0    0    0 -0.00000000000E+00 -0.00000000000E+00 -0.74505805969E-08  0.93827000000E+00  0.93827000000E+00 0.  1.
     999902    2    1    2    0    0 -0.81052324060E-02 -0.11239706405E-02 -0.21813939781E-01  0.10206318011E+01  0.10203658498E+01 0.  0.
     999903    2    3    3    0    0 -0.92583013577E-01  0.76584434963E-01 -0.52766234597E-01  0.13263791805E+00  0.19280863808E-01 0.  0.
         14    1    1    2    0    0  0.81052324060E-02  0.11239706405E-02  0.21813939781E-01  0.23298198882E-01  0.00000000000E+00 0.  1.
     999901    1    3    3    0    0  0.84477781171E-01 -0.77708405604E-01  0.30952294816E-01  0.88799388307E+00  0.88000000000E+00 0. -1.
        -11    1    4    4    0    0 -0.54146929180E-01  0.40531421105E-01 -0.19806079667E-01  0.70478563757E-01  0.51100000000E-03 0.  1.
         11    1    4    4    0    0 -0.38436084397E-01  0.36053013858E-01 -0.32960154930E-01  0.62159354292E-01  0.51100000000E-03 0. -1.
</event>
<event>
 8    1  0.1111182E+005  0.1043930E+01  0.7957747E-01            NaN
         13   -1    0    0    0    0  0.00000000000E+00  0.00000000000E+00  0.74505805969E-08  0.10566000000E+00  0.10566000000E+00 0. -1.
     999900   -1    0    0    0    0 -0.00000000000E+00 -0.00000000000E+00 -0.74505805969E-08  0.93827000000E+00  0.93827000000E+00 0.  1.
     999902    2    1    2    0    0  0.16244444817E-01  0.89708696641E-02  0.14435856052E-01  0.10204193124E+01  0.10201484307E+01 0.  0.
     999903    2    3    3    0    0 -0.10483003827E+00  0.64741998773E-01  0.36928502052E-01  0.13009613042E+00  0.19504500968E-01 0.  0.
         14    1    1    2    0    0 -0.16244444817E-01 -0.89708696641E-02 -0.14435856052E-01  0.23510687568E-01  0.00000000000E+00 0.  1.
     999901    1    3    3    0    0  0.12107448309E+00 -0.55771129109E-01 -0.22492646000E-01  0.89032318201E+00  0.88000000000E+00 0.  1.
        -11    1    4    4    0    0 -0.25968902087E-01  0.26307928442E-01  0.93492095163E-02  0.38133447446E-01  0.51100000000E-03 0. -1.
         11    1    4    4    0    0 -0.78861136186E-01  0.38434070331E-01  0.27579292536E-01  0.91962682978E-01  0.51100000000E-03 0.  1.
</event>
<event>
 8    1  0.1111182E+005  0.1043930E+01  0.7957747E-01            NaN
         13   -1    0    0    0    0  0.00000000000E+00  0.00000000000E+00  0.74505805969E-08  0.10566000000E+00  0.10566000000E+00 0. -1.
     999900   -1    0    0    0    0 -0.00000000000E+00 -0.00000000000E+00 -0.74505805969E-08  0.93827000000E+00  0.93827000000E+00 0.  1.
     999902    2    1    2    0    0  0.11665204683E-01  0.31154845482E-02  0.16952444103E-01  0.10231172970E+01  0.10229055845E+01 0.  0.
     999903    2    3    3    0    0 -0.44962077202E-01  0.84796872306E-02  0.12521942808E+00  0.13465955264E+00  0.18968301689E-01 0.  0.
         14    1    1    2    0    0 -0.11665204683E-01 -0.31154845482E-02 -0.16952444103E-01  0.20812702980E-01  0.00000000000E+00 0.  1.
     999901    1    3    3    0    0  0.56627281884E-01 -0.53642026824E-02 -0.10826698397E+00  0.88845774438E+00  0.88000000000E+00 0.  1.
        -11    1    4    4    0    0 -0.64070909335E-02  0.75102837312E-02  0.15763135468E-01  0.18606255312E-01  0.51100000000E-03 0.  1.
         11    1    4    4    0    0 -0.38554986268E-01  0.96940349932E-03  0.10945629261E+00  0.11605329733E+00  0.51100000000E-03 0. -1.
</event>
<event>
 8    1  0.1111182E+005  0.1043930E+01  0.7957747E-01            NaN
         13   -1    0    0    0    0  0.00000000000E+00  0.00000000000E+00  0.74505805969E-08  0.10566000000E+00  0.10566000000E+00 0.  1.
     999900   -1    0    0    0    0 -0.00000000000E+00 -0.00000000000E+00 -0.74505805969E-08  0.93827000000E+00  0.93827000000E+00 0. -1.
     999902    2    1    2    0    0  0.20625542397E-01  0.10314589749E-01  0.66896276378E-02  0.10199184428E+01  0.10196357561E+01 0.  0.
     999903    2    3    3    0    0  0.18809682092E-01 -0.12490834143E+00 -0.18193958135E-01  0.12924020051E+00  0.20398809161E-01 0.  0.
         14    1    1    2    0    0 -0.20625542397E-01 -0.10314589749E-01 -0.66896276378E-02  0.24011557192E-01  0.00000000000E+00 0.  1.
     999901    1    3    3    0    0  0.18158603054E-02  0.13522293118E+00  0.24883585773E-01  0.89067824230E+00  0.88000000000E+00 0.  1.
        -11    1    4    4    0    0  0.15792107789E-01 -0.87696927020E-01 -0.21777779056E-01  0.91731534701E-01  0.51100000000E-03 0.  1.
         11    1    4    4    0    0  0.30175743028E-02 -0.37211414412E-01  0.35838209201E-02  0.37508665806E-01  0.51100000000E-03 0. -1.
</event>
<event>
 8    1  0.1111182E+005  0.1043930E+01  0.7957747E-01            NaN
         13   -1    0    0    0    0  0.00000000000E+00  0.00000000000E+00  0.74505805969E-08  0.10566000000E+00  0.10566000000E+00 0. -1.
     999900   -1    0    0    0    0 -0.00000000000E+00 -0.00000000000E+00 -0.74505805969E-08  0.93827000000E+00  0.93827000000E+00 0. -1.
     999902    2    1    2    0    0  0.33156510405E-02 -0.12342671257E-01 -0.20404982866E-01  0.10198530733E+01  0.10195688268E+01 0.  0.
     999903    2    3    3    0    0  0.12774820032E+00  0.12207615642E-01  0.78215582132E-02  0.13031222904E+00  0.21247863440E-01 0.  0.
         14    1    1    2    0    0 -0.33156510405E-02  0.12342671257E-01  0.20404982866E-01  0.24076926742E-01  0.00000000000E+00 0. -1.
     999901    1    3    3    0    0 -0.12443254928E+00 -0.24550286899E-01 -0.28226541079E-01  0.88954084422E+00  0.88000000000E+00 0. -1.
        -11    1    4    4    0    0  0.52251688796E-01 -0.24327544870E-02  0.10529192485E-01  0.53359931520E-01  0.51100000000E-03 0.  1.
         11    1    4    4    0    0  0.75496511523E-01  0.14640370129E-01 -0.27076342722E-02  0.76952297523E-01  0.51100000000E-03 0. -1.
</event>
<event>
 8    1  0.1111182E+005  0.1043930E+01  0.7957747E-01            NaN
         13   -1    0    0    0    0  0.00000000000E+00  0.00000000000E+00  0.74505805969E-08  0.10566000000E+00  0.10566000000E+00 0. -1.
     999900   -1    0    0    0    0 -0.00000000000E+00 -0.00000000000E+00 -0.74505805969E-08  0.93827000000E+00  0.93827000000E+00 0. -1.
     999902    2    1    2    0    0  0.91812225264E-02  0.19750186389E-01  0.80088415022E-02  0.10207242625E+01  0.10204604421E+01 0.  0.
     999903    2    3    3    0    0  0.12563881282E+00  0.29673219881E-01  0.23344138381E-01  0.13286390849E+00  0.21029933853E-01 0.  0.
         14    1    1    2    0    0 -0.91812225264E-02 -0.19750186389E-01 -0.80088415022E-02  0.23205737474E-01  0.00000000000E+00 0. -1.
     999901    1    3    3    0    0 -0.11645759030E+00 -0.99230334920E-02 -0.15335296878E-01  0.88786035403E+00  0.88000000000E+00 0. -1.
        -11    1    4    4    0    0  0.68895733551E-01  0.58776783805E-02  0.15149816406E-01  0.70788044632E-01  0.51100000000E-03 0. -1.
         11    1    4    4    0    0  0.56743079272E-01  0.23795541501E-01  0.81943219746E-02  0.62075863862E-01  0.51100000000E-03 0.  1.
</event>
<event>
 8    1  0.1111182E+005  0.1043930E+01  0.7957747E-01            NaN
         13   -1    0    0    0    0  0.00000000000E+00  0.00000000000E+00  0.74505805969E-08  0.10566000000E+00  0.10566000000E+00 0.  1.
     999900   -1    0    0    0    0 -0.00000000000E+00 -0.00000000000E+00 -0.74505805969E-08  0.93827000000E+00  0.93827000000E+00 0. -1.
     999902    2    1    2    0    0  0.23687236377E-01 -0.12589355002E-02 -0.23264475684E-02  0.10200955198E+01  0.10198170361E+01 0.  0.
     999903    2    3    3    0    0 -0.81718237888E-01 -0.54827951952E-01 -0.80497618370E-01  0.12875345001E+00  0.20337394286E-01 0.  0.
         14    1    1    2    0    0 -0.23687236377E-01  0.12589355002E-02  0.23264475684E-02  0.23834480151E-01  0.00000000000E+00 0. -1.
     999901    1    3    3    0    0  0.10540547426E+00  0.53569016452E-01  0.78171170802E-01  0.89134206984E+00  0.88000000000E+00 0.  1.
        -11    1    4    4    0    0 -0.47025931281E-01 -0.43239164113E-01 -0.49910449604E-01  0.81070201842E-01  0.51100000000E-03 0. -1.
         11    1    4    4    0    0 -0.34692306607E-01 -0.11588787839E-01 -0.30587168766E-01  0.47683248164E-01  0.51100000000E-03 0.  1.
</event>
<event>
 8    1  0.1111182E+005  0.1043930E+01  0.7957747E-01            NaN
         13   -1    0    0    0    0  0.00000000000E+00  0.00000000000E+00  0.74505805969E-08  0.10566000000E+00  0.10566000000E+00 0.  1.
     999900   -1    0    0    0    0 -0.00000000000E+00 -0.00000000000E+00 -0.74505805969E-08  0.93827000000E+00  0.93827000000E+00 0. -1.
     999902    2    1    2    0    0  0.90263051696E-02  0.75003255912E-02  0.20808179179E-01  0.10200404753E+01  0.10197606885E+01 0.  0.
     999903    2    3    3    0    0  0.12647535725E+00  0.14671865453E-01 -0.23076684877E-01  0.13112451072E+00  0.21209061742E-01 0.  0.
         14    1    1    2    0    0 -0.90263051696E-02 -0.75003255912E-02 -0.20808179179E-01  0.23889524686E-01  0.00000000000E+00 0. -1.
     999901    1    3    3    0    0 -0.11744905208E+00 -0.71715398616E-02  0.43884864056E-01  0.88891596459E+00  0.88000000000E+00 0.  1.
        -11    1    4    4    0    0  0.75970247853E-01  0.85235794405E-02 -0.32505377390E-02  0.76517691300E-01  0.51100000000E-03 0. -1.
         11    1    4    4    0    0  0.50505109394E-01  0.61482860123E-02 -0.19826147138E-01  0.54606819419E-01  0.51100000000E-03 0.  1.
</event>
<event>
 8    1  0.1111182E+005  0.1043930E+01  0.7957747E-01            NaN
         13   -1    0    0    0    0  0.00000000000E+00  0.00000000000E+00  0.74505805969E-08  0.10566000000E+00  0.10566000000E+00 0. -1.
     999900   -1    0    0    0    0 -0.00000000000E+00 -0.00000000000E+00 -0.74505805969E-08  0.93827000000E+00  0.93827000000E+00 0. -1.
     999902    2    1    2    0    0  0.76297347689E-02 -0.48188573698E-02 -0.22908301548E-01  0.10193083729E+01  0.10190109590E+01 0.  0.
     999903    2    3    3    0    0 -0.11982343759E+00  0.42158127109E-01 -0.22372759692E-03  0.12859756797E+00  0.20057930013E-01 0.  0.
         14    1    1    2    0    0 -0.76297347689E-02  0.48188573698E-02  0.22908301548E-01  0.24621627054E-01  0.00000000000E+00 0. -1.
     999901    1    3    3    0    0  0.12745317235E+00 -0.46976984479E-01 -0.22684573951E-01  0.89071080498E+00  0.88000000000E+00 0.  1.
        -11    1    4    4    0    0 -0.47481602348E-01  0.18098989871E-01 -0.98192996601E-02  0.51756697757E-01  0.51100000000E-03 0. -1.
         11    1    4    4    0    0 -0.72341835238E-01  0.24059137238E-01  0.95955720632E-02  0.76840870208E-01  0.51100000000E-03 0.  1.
</event>
<event>
 8    1  0.1111182E+005  0.1043930E+01  0.7957747E-01            NaN
         13   -1    0    0    0    0  0.00000000000E+00  0.00000000000E+00  0.74505805969E-08  0.10566000000E+00  0.10566000000E+00 0. -1.
     999900   -1    0    0    0    0 -0.00000000000E+00 -0.00000000000E+00 -0.74505805969E-08  0.93827000000E+00  0.93827000000E+00 0. -1.
     999902    2    1    2    0    0 -0.13593778029E-01  0.11460666892E-02  0.18975992609E-01  0.10205592370E+01  0.10202916071E+01 0.  0.
     999903    2    3    3    0    0  0.29361809144E-01 -0.11392049767E+00  0.54819084840E-01  0.13130661595E+00  0.19907277656E-01 0.  0.
         14    1    1    2    0    0  0.13593778029E-01 -0.11460666892E-02 -0.18975992609E-01  0.23370763049E-01  0.00000000000E+00 0. -1.
     999901    1    3    3    0    0 -0.42955587174E-01  0.11506656436E+00 -0.35843092231E-01  0.88925262100E+00  0.88000000000E+00 0.  1.
        -11    1    4    4    0    0  0.23119325944E-01 -0.49995183645E-01  0.25187731915E-01  0.60569832258E-01  0.51100000000E-03 0.  1.
         11    1    4    4    0    0  0.62424832001E-02 -0.63925314023E-01  0.29631352926E-01  0.70736783689E-01  0.51100000000E-03 0. -1.
</event>
<event>
 8    1  0.1111182E+005  0.1043930E+01  0.7957747E-01            NaN
         13   -1    0    0    0    0  0.00000000000E+00  0.00000000000E+00  0.74505805969E-08  0.10566000000E+00  0.10566000000E+00 0. -1.
     999900   -1    0    0    0    0 -0.00000000000E+00 -0.00000000000E+00 -0.74505805969E-08  0.93827000000E+00  0.93827000000E+00 0.  1.
     999902    2    1    2    0    0  0.14195207590E-01 -0.13141220294E-02  0.19122843388E-01  0.10200780824E+01  0.10197991862E+01 0.  0.
     999903    2    3    3    0    0  0.15338588632E-01 -0.88714328750E-01 -0.90396567492E-01  0.12899188855E+00  0.19022709373E-01 0.  0.
         14    1    1    2    0    0 -0.14195207590E-01  0.13141220294E-02 -0.19122843388E-01  0.23851917627E-01  0.00000000000E+00 0.  1.
     999901    1    3    3    0    0 -0.11433810416E-02  0.87400206720E-01  0.10951941088E+00  0.89108619382E+00  0.88000000000E+00 0. -1.
        -11    1    4    4    0    0  0.16564906505E-01 -0.40158304364E-01 -0.42465257054E-01  0.60750676659E-01  0.51100000000E-03 0.  1.
         11    1    4    4    0    0 -0.12263178731E-02 -0.48556024386E-01 -0.47931310438E-01  0.68241211896E-01  0.51100000000E-03 0. -1.
</event>
<event>
 8    1  0.1111182E+005  0.1043930E+01  0.7957747E-01            NaN
         13   -1    0    0    0    0  0.00000000000E+00  0.00000000000E+00  0.74505805969E-08  0.10566000000E+00  0.10566000000E+00 0. -1.
     999900   -1    0    0    0    0 -0.00000000000E+00 -0.00000000000E+00 -0.74505805969E-08  0.93827000000E+00  0.93827000000E+00 0.  1.
     999902    2    1    2    0    0  0.20255106056E-01  0.91405478463E-02  0.86057485039E-02  0.10200998123E+01  0.10198214301E+01 0.  0.
     999903    2    3    3    0    0  0.51635035141E-01  0.11806774594E+00 -0.21795265549E-01  0.13230813854E+00  0.20597097795E-01 0.  0.
         14    1    1    2    0    0 -0.20255106056E-01 -0.91405478463E-02 -0.86057485039E-02  0.23830187653E-01  0.00000000000E+00 0. -1.
     999901    1    3    3    0    0 -0.31379929085E-01 -0.10892719809E+00  0.30401014053E-01  0.88779167381E+00  0.88000000000E+00 0. -1.
        -11    1    4    4    0    0  0.23380137390E-01  0.66712942662E-01 -0.20775308573E-01  0.73682576708E-01  0.51100000000E-03 0. -1.
         11    1    4    4    0    0  0.28254897750E-01  0.51354803276E-01 -0.10199569761E-02  0.58625561828E-01  0.51100000000E-03 0.  1.
</event>
<event>
 8    1  0.1111182E+005  0.1043930E+01  0.7957747E-01            NaN
         13   -1    0    0    0    0  0.00000000000E+00  0.00000000000E+00  0.74505805969E-08  0.10566000000E+00  0.10566000000E+00 0. -1.
     999900   -1    0    0    0    0 -0.00000000000E+00 -0.00000000000E+00 -0.74505805969E-08  0.93827000000E+00  0.93827000000E+00 0. -1.
     999902    2    1    2    0    0  0.17467792448E-01  0.14641348636E-01 -0.28897171755E-02  0.10209551588E+01  0.10206966214E+01 0.  0.
     999903    2    3    3    0    0 -0.24614382556E-01  0.71932564857E-01  0.10527766272E+00  0.13148712959E+00  0.20623221474E-01 0.  0.
         14    1    1    2    0    0 -0.17467792448E-01 -0.14641348636E-01  0.28897171755E-02  0.22974841202E-01  0.00000000000E+00 0.  1.
     999901    1    3    3    0    0  0.42082175005E-01 -0.57291216221E-01 -0.10816737990E+00  0.88946802921E+00  0.88000000000E+00 0. -1.
        -11    1    4    4    0    0 -0.16903753414E-01  0.48237001684E-01  0.85730446943E-01  0.99812403363E-01  0.51100000000E-03 0.  1.
         11    1    4    4    0    0 -0.77106291426E-02  0.23695563173E-01  0.19547215779E-01  0.31674726227E-01  0.51100000000E-03 0. -1.
</event>
<event>
 8    1  0.1111182E+005  0.1043930E+01  0.7957747E-01            NaN
         13   -1    0    0    0    0  0.00000000000E+00  0.00000000000E+00  0.74505805969E-08  0.10566000000E+00  0.10566000000E+00 0.  1.
     999900   -1    0    0    0    0 -0.00000000000E+00 -0.00000000000E+00 -0.74505805969E-08  0.93827000000E+00  0.93827000000E+00 0.  1.
     999902    2    1    2    0    0 -0.12927073801E-01  0.79636374734E-02 -0.18987154572E-01  0.10196186694E+01  0.10193287939E+01 0.  0.
     999903    2    3    3    0    0 -0.41477182763E-01  0.11512873833E+00  0.42223112968E-01  0.13054827596E+00  0.16884253269E-01 0.  0.
         14    1    1    2    0    0  0.12927073801E-01 -0.79636374734E-02  0.18987154572E-01  0.24311330642E-01  0.00000000000E+00 0.  1.
     999901    1    3    3    0    0  0.28550108962E-01 -0.10716510086E+00 -0.61210267540E-01  0.88907039340E+00  0.88000000000E+00 0. -1.
        -11    1    4    4    0    0 -0.24784005096E-01  0.72280603091E-01  0.17724766959E-01  0.78442086768E-01  0.51100000000E-03 0.  1.
         11    1    4    4    0    0 -0.16693177668E-01  0.42848135238E-01  0.24498346009E-01  0.52106189193E-01  0.51100000000E-03 0. -1.
</event>
<event>
 8    1  0.1111182E+005  0.1043930E+01  0.7957747E-01            NaN
         13   -1    0    0    0    0  0.00000000000E+00  0.00000000000E+00  0.74505805969E-08  0.10566000000E+00  0.10566000000E+00 0. -1.
     999900   -1    0    0    0    0 -0.00000000000E+00 -0.00000000000E+00 -0.74505805969E-08  0.93827000000E+00  0.93827000000E+00 0.  1.
     999902    2    1    2    0    0  0.29284906965E-01  0.10894472347E-01 -0.11204263370E-01  0.10107361629E+01  0.10101909523E+01 0.  0.
     999903    2    3    3    0    0  0.64575457199E-01 -0.83052878911E-01 -0.61323270635E-01  0.12361529028E+00  0.21270310360E-01 0.  0.
         14    1    1    2    0    0 -0.29284906965E-01 -0.10894472347E-01  0.11204263370E-01  0.33193837098E-01  0.00000000000E+00 0. -1.
     999901    1    3    3    0    0 -0.35290550234E-01  0.93947351258E-01  0.50119007266E-01  0.88712087262E+00  0.88000000000E+00 0. -1.
        -11    1    4    4    0    0  0.52335486602E-01 -0.51256878986E-01 -0.41585159283E-01  0.84236912306E-01  0.51100000000E-03 0. -1.
         11    1    4    4    0    0  0.12239970597E-01 -0.31795999925E-01 -0.19738111352E-01  0.39378377978E-01  0.51100000000E-03 0.  1.
</event>
<event>
 8    1  0.1111182E+005  0.1043930E+01  0.7957747E-01            NaN
         13   -1    0    0    0    0  0.00000000000E+00  0.00000000000E+00  0.74505805969E-08  0.10566000000E+00  0.10566000000E+00 0.  1.
     999900   -1    0    0    0    0 -0.00000000000E+00 -0.00000000000E+00 -0.74505805969E-08  0.93827000000E+00  0.93827000000E+00 0.  1.
     999902    2    1    2    0    0  0.10917720788E-01  0.27899742821E-02  0.20382643800E-01  0.10206398143E+01  0.10203740479E+01 0.  0.
     999903    2    3    3    0    0 -0.54329651468E-01  0.11521684238E+00 -0.18904112122E-01  0.13022391736E+00  0.19346095262E-01 0.  0.
         14    1    1    2    0    0 -0.10917720788E-01 -0.27899742821E-02 -0.20382643800E-01  0.23290185743E-01  0.00000000000E+00 0. -1.
     999901    1    3    3    0    0  0.65247372256E-01 -0.11242686809E+00  0.39286755921E-01  0.89041589690E+00  0.88000000000E+00 0. -1.
        -11    1    4    4    0    0 -0.19904328849E-01  0.57702376450E-01 -0.16122451866E-01  0.63134310245E-01  0.51100000000E-03 0. -1.
         11    1    4    4    0    0 -0.34425322619E-01  0.57514465925E-01 -0.27816602559E-02  0.67089607115E-01  0.51100000000E-03 0.  1.
</event>
<event>
 8    1  0.1111182E+005  0.1043930E+01  0.7957747E-01            NaN
         13   -1    0    0    0    0  0.00000000000E+00  0.00000000000E+00  0.74505805969E-08  0.10566000000E+00  0.10566000000E+00 0.  1.
     999900   -1    0    0    0    0 -0.00000000000E+00 -0.00000000000E+00 -0.74505805969E-08  0.93827000000E+00  0.93827000000E+00 0. -1.
     999902    2    1    2    0    0  0.29903437893E-01 -0.20469772769E-01 -0.10726407597E-01  0.10061373682E+01  0.10054273324E+01 0.  0.
     999903    2    3    3    0    0 -0.10100567575E+00 -0.28275197306E-01  0.38950567129E-01  0.11503360184E+00  0.26719834509E-01 0.  0.
         14    1    1    2    0    0 -0.29903437893E-01  0.20469772769E-01  0.10726407597E-01  0.37792631755E-01  0.00000000000E+00 0.  1.
     999901    1    3    3    0    0  0.13090911364E+00  0.78054245373E-02 -0.49676974725E-01  0.89110376641E+00  0.88000000000E+00 0.  1.
        -11    1    4    4    0    0 -0.13527124095E-01  0.24183619714E-03 -0.30685278561E-02  0.13882310875E-01  0.51100000000E-03 0. -1.
         11    1    4    4    0    0 -0.87478551653E-01 -0.28517033503E-01  0.42019094985E-01  0.10115129096E+00  0.51100000000E-03 0.  1.
</event>
<event>
 8    1  0.1111182E+005  0.1043930E+01  0.7957747E-01            NaN
         13   -1    0    0    0    0  0.00000000000E+00  0.00000000000E+00  0.74505805969E-08  0.10566000000E+00  0.10566000000E+00 0. -1.
     999900   -1    0    0    0    0 -0.00000000000E+00 -0.00000000000E+00 -0.74505805969E-08  0.93827000000E+00  0.93827000000E+00 0. -1.
     999902    2    1    2    0    0  0.30401716062E-02 -0.16729867529E-01  0.16166608564E-01  0.10204674694E+01  0.10201977091E+01 0.  0.
     999903    2    3    3    0    0 -0.11064976422E+00 -0.58904743579E-01 -0.32205667739E-01  0.13083608571E+00  0.19176473955E-01 0.  0.
         14    1    1    2    0    0 -0.30401716062E-02  0.16729867529E-01 -0.16166608564E-01  0.23462530626E-01  0.00000000000E+00 0.  1.
     999901    1    3    3    0    0  0.11368993582E+00  0.42174876050E-01  0.48372276303E-01  0.88963138366E+00  0.88000000000E+00 0.  1.
        -11    1    4    4    0    0 -0.28979629891E-01 -0.63029644131E-02 -0.71224476542E-02  0.30504699484E-01  0.51100000000E-03 0. -1.
         11    1    4    4    0    0 -0.81670134325E-01 -0.52601779166E-01 -0.25083220085E-01  0.10033138623E+00  0.51100000000E-03 0.  1.
</event>
<event>
 8    1  0.1111182E+005  0.1043930E+01  0.7957747E-01            NaN
         13   -1    0    0    0    0  0.00000000000E+00  0.00000000000E+00  0.74505805969E-08  0.10566000000E+00  0.10566000000E+00 0. -1.
     999900   -1    0    0    0    0 -0.00000000000E+00 -0.00000000000E+00 -0.74505805969E-08  0.93827000000E+00  0.93827000000E+00 0.  1.
     999902    2    1    2    0    0 -0.17590121234E-01  0.12378789702E-01  0.90064864595E-02  0.10206112608E+01  0.10203448349E+01 0.  0.
     999903    2    3    3    0    0 -0.13131499079E-01 -0.11698455530E+00  0.51574103755E-01  0.13012445215E+00  0.20363261563E-01 0.  0.
         14    1    1    2    0    0  0.17590121234E-01 -0.12378789702E-01 -0.90064864595E-02  0.23318739200E-01  0.00000000000E+00 0.  1.
     999901    1    3    3    0    0 -0.44586221553E-02  0.12936334500E+00 -0.42567617295E-01  0.89048680865E+00  0.88000000000E+00 0. -1.
        -11    1    4    4    0    0 -0.14022674837E-01 -0.10042520809E+00  0.51046870849E-01  0.11352489584E+00  0.51100000000E-03 0.  1.
         11    1    4    4    0    0  0.89117575798E-03 -0.16559347208E-01  0.52723290517E-03  0.16599556311E-01  0.51100000000E-03 0. -1.
</event>
<event>
 8    1  0.1111182E+005  0.1043930E+01  0.7957747E-01            NaN
         13   -1    0    0    0    0  0.00000000000E+00  0.00000000000E+00  0.74505805969E-08  0.10566000000E+00  0.10566000000E+00 0. -1.
     999900   -1    0    0    0    0 -0.00000000000E+00 -0.00000000000E+00 -0.74505805969E-08  0.93827000000E+00  0.93827000000E+00 0.  1.
     999902    2    1    2    0    0 -0.20940350372E-01 -0.67198023673E-02 -0.30978766707E-02  0.10217207484E+01  0.10214793374E+01 0.  0.
     999903    2    3    3    0    0 -0.91628733464E-01  0.78692147359E-01  0.52648614621E-01  0.13301398012E+00  0.18236321840E-01 0.  0.
         14    1    1    2    0    0  0.20940350372E-01  0.67198023673E-02  0.30978766707E-02  0.22209251618E-01  0.00000000000E+00 0.  1.
     999901    1    3    3    0    0  0.70688383092E-01 -0.85411949727E-01 -0.55746491291E-01  0.88870676826E+00  0.88000000000E+00 0.  1.
        -11    1    4    4    0    0 -0.26640234411E-01  0.13592561995E-01  0.93011719276E-02  0.31324634895E-01  0.51100000000E-03 0. -1.
         11    1    4    4    0    0 -0.64988499052E-01  0.65099585364E-01  0.43347442693E-01  0.10168934523E+00  0.51100000000E-03 0.  1.
</event>
<event>
 8    1  0.1111182E+005  0.1043930E+01  0.7957747E-01            NaN
         13   -1    0    0    0    0  0.00000000000E+00  0.00000000000E+00  0.74505805969E-08  0.10566000000E+00  0.10566000000E+00 0. -1.
     999900   -1    0    0    0    0 -0.00000000000E+00 -0.00000000000E+00 -0.74505805969E-08  0.93827000000E+00  0.93827000000E+00 0. -1.
     999902    2    1    2    0    0  0.93711723909E-02 -0.41433242006E-02 -0.20602159764E-01  0.10209205455E+01  0.10206612197E+01 0.  0.
     999903    2    3    3    0    0 -0.26441194817E-01 -0.12641195598E+00  0.13333100095E-01  0.13109823417E+00  0.18161939477E-01 0.  0.
         14    1    1    2    0    0 -0.93711723909E-02  0.41433242006E-02  0.20602159764E-01  0.23009454455E-01  0.00000000000E+00 0. -1.
     999901    1    3    3    0    0  0.35812367208E-01  0.12226863178E+00 -0.33935259859E-01  0.88982231138E+00  0.88000000000E+00 0.  1.
        -11    1    4    4    0    0 -0.17156918449E-01 -0.58928999006E-01 -0.14374345184E-02  0.61394740113E-01  0.51100000000E-03 0.  1.
         11    1    4    4    0    0 -0.92842763677E-02 -0.67482956975E-01  0.14770534613E-01  0.69703494055E-01  0.51100000000E-03 0. -1.
</event>
<event>
 8    1  0.1111182E+005  0.1043930E+01  0.7957747E-01            NaN
         13   -1    0    0    0    0  0.00000000000E+00  0.00000000000E+00  0.74505805969E-08  0.10566000000E+00  0.10566000000E+00 0. -1.
     999900   -1    0    0    0    0 -0.00000000000E+00 -0.00000000000E+00 -0.74505805969E-08  0.93827000000E+00  0.93827000000E+00 0.  1.
     999902    2    1    2    0    0 -0.48615964269E-02  0.16673323104E-01  0.15713788307E-01  0.10205086856E+01  0.10202398833E+01 0.  0.
     999903    2    3    3    0    0 -0.85262905351E-02  0.66847594301E-01 -0.10970398378E+00  0.13019385087E+00  0.19343635929E-01 0.  0.
         14    1    1    2    0    0  0.48615964269E-02 -0.16673323104E-01 -0.15713788307E-01  0.23421314355E-01  0.00000000000E+00 0. -1.
     999901    1    3    3    0    0  0.36646941082E-02 -0.50174271198E-01  0.12541777209E+00  0.89031483478E+00  0.88000000000E+00 0.  1.
        -11    1    4    4    0    0 -0.93169919923E-02  0.38543957781E-01 -0.47724313569E-01  0.62050900459E-01  0.51100000000E-03 0.  1.
         11    1    4    4    0    0  0.79070145722E-03  0.28303636520E-01 -0.61979670215E-01  0.68142950406E-01  0.51100000000E-03 0. -1.
</event>
<event>
 8    1  0.1111182E+005  0.1043930E+01  0.7957747E-01            NaN
         13   -1    0    0    0    0  0.00000000000E+00  0.00000000000E+00  0.74505805969E-08  0.10566000000E+00  0.10566000000E+00 0. -1.
     999900   -1    0    0    0    0 -0.00000000000E+00 -0.00000000000E+00 -0.74505805969E-08  0.93827000000E+00  0.93827000000E+00 0.  1.
     999902    2    1    2    0    0  0.93368233411E-02  0.44970495179E-02 -0.21564045529E-01  0.10200049549E+01  0.10197243256E+01 0.  0.
     999903    2    3    3    0    0  0.43866304377E-01  0.11027740417E+00  0.49383189480E-01  0.13016492507E+00  0.20465819929E-01 0.  0.
         14    1    1    2    0    0 -0.93368233411E-02 -0.44970495179E-02  0.21564045529E-01  0.23925045121E-01  0.00000000000E+00 0. -1.
     999901    1    3    3    0    0 -0.34529481036E-01 -0.10578035465E+00 -0.70947235010E-01  0.88984002981E+00  0.88000000000E+00 0. -1.
        -11    1    4    4    0    0  0.40505835805E-01  0.80469255616E-01  0.32730721520E-01  0.95851891404E-01  0.51100000000E-03 0. -1.
         11    1    4    4    0    0  0.33604685728E-02  0.29808148555E-01  0.16652467960E-01  0.34313033667E-01  0.51100000000E-03 0.  1.
</event>
<event>
 8    1  0.1111182E+005  0.1043930E+01  0.7957747E-01            NaN
         13   -1    0    0    0    0  0.00000000000E+00  0.00000000000E+00  0.74505805969E-08  0.10566000000E+00  0.10566000000E+00 0. -1.
     999900   -1    0    0    0    0 -0.00000000000E+00 -0.00000000000E+00 -0.74505805969E-08  0.93827000000E+00  0.93827000000E+00 0.  1.
     999902    2    1    2    0    0  0.50053943159E-02  0.29070901425E-02  0.22419117489E-01  0.10207756921E+01  0.10205130531E+01 0.  0.
     999903    2    3    3    0    0 -0.59805343495E-01 -0.10481100153E+00  0.48331291111E-01  0.13146412704E+00  0.19618303845E-01 0.  0.
         14    1    1    2    0    0 -0.50053943159E-02 -0.29070901425E-02 -0.22419117489E-01  0.23154307900E-01  0.00000000000E+00 0.  1.
     999901    1    3    3    0    0  0.64810737811E-01  0.10771809167E+00 -0.25912173622E-01  0.88931156506E+00  0.88000000000E+00 0.  1.
        -11    1    4    4    0    0 -0.35284976818E-01 -0.44001263203E-01  0.17890652641E-01  0.59173282193E-01  0.51100000000E-03 0. -1.
         11    1    4    4    0    0 -0.24520366677E-01 -0.60809738325E-01  0.30440638470E-01  0.72290844846E-01  0.51100000000E-03 0.  1.
</event>
<event>
 8    1  0.1111182E+005  0.1043930E+01  0.7957747E-01            NaN
         13   -1    0    0    0    0  0.00000000000E+00  0.00000000000E+00  0.74505805969E-08  0.10566000000E+00  0.10566000000E+00 0.  1.
     999900   -1    0    0    0    0 -0.00000000000E+00 -0.00000000000E+00 -0.74505805969E-08  0.93827000000E+00  0.93827000000E+00 0. -1.
     999902    2    1    2    0    0 -0.23484970752E-01 -0.86049184283E-03  0.53713273057E-02  0.10198232488E+01  0.10195382893E+01 0.  0.
     999903    2    3    3    0    0 -0.52002975466E-01  0.66764328824E-01 -0.97683658177E-01  0.13077503693E+00  0.19955654535E-01 0.  0.
         14    1    1    2    0    0  0.23484970752E-01  0.86049184283E-03 -0.53713273057E-02  0.24106751222E-01  0.00000000000E+00 0. -1.
     999901    1    3    3    0    0  0.28518004713E-01 -0.67624820667E-01  0.10305498548E+00  0.88904821185E+00  0.88000000000E+00 0. -1.
        -11    1    4    4    0    0 -0.12000455463E-01  0.31071786057E-01 -0.38875550999E-01  0.51196058506E-01  0.51100000000E-03 0. -1.
         11    1    4    4    0    0 -0.40002520002E-01  0.35692542767E-01 -0.58808107177E-01  0.79578978421E-01  0.51100000000E-03 0.  1.
</event>
<event>
 8    1  0.1111182E+005  0.1043930E+01  0.7957747E-01            NaN
         13   -1    0    0    0    0  0.00000000000E+00  0.00000000000E+00  0.74505805969E-08  0.10566000000E+00  0.10566000000E+00 0.  1.
     999900   -1    0    0    0    0 -0.00000000000E+00 -0.00000000000E+00 -0.74505805969E-08  0.93827000000E+00  0.93827000000E+00 0. -1.
     999902    2    1    2    0    0  0.13476025254E-01 -0.13857808004E-01 -0.13168632133E-01  0.10205407937E+01  0.10202727364E+01 0.  0.
     999903    2    3    3    0    0  0.65101547811E-01  0.76687935845E-01  0.79506583906E-01  0.12955683089E+00  0.18558677597E-01 0.  0.
         14    1    1    2    0    0 -0.13476025254E-01  0.13857808004E-01  0.13168632133E-01  0.23389206305E-01  0.00000000000E+00 0. -1.
     999901    1    3    3    0    0 -0.51625522557E-01 -0.90545743849E-01 -0.92675216039E-01  0.89098396281E+00  0.88000000000E+00 0. -1.
        -11    1    4    4    0    0  0.45289224008E-01  0.64328803335E-01  0.65089998176E-01  0.10210914618E+00  0.51100000000E-03 0. -1.
         11    1    4    4    0    0  0.19812323803E-01  0.12359132510E-01  0.14416585730E-01  0.27447684711E-01  0.51100000000E-03 0.  1.
</event>
<event>
 8    1  0.1111182E+005  0.1043930E+01  0.7957747E-01            NaN
         13   -1    0    0    0    0  0.00000000000E+00  0.00000000000E+00  0.74505805969E-08  0.10566000000E+00  0.10566000000E+00 0. -1.
     999900   -1    0    0    0    0 -0.00000000000E+00 -0.00000000000E+00 -0.74505805969E-08  0.93827000000E+00  0.93827000000E+00 0.  1.
     999902    2    1    2    0    0 -0.20856091510E-02  0.28346790821E-02  0.22568900799E-01  0.10210883614E+01  0.10208328469E+01 0.  0.
     999903    2    3    3    0    0  0.39883624938E-01 -0.90304967745E-01  0.86738628002E-01  0.13285744304E+00  0.19540211023E-01 0.  0.
         14    1    1    2    0    0  0.20856091510E-02 -0.28346790821E-02 -0.22568900799E-01  0.22841638608E-01  0.00000000000E+00 0.  1.
     999901    1    3    3    0    0 -0.41969234089E-01  0.93139646827E-01 -0.64169727204E-01  0.88823091835E+00  0.88000000000E+00 0.  1.
        -11    1    4    4    0    0 -0.42090587178E-04 -0.15726779030E-01  0.10010045048E-01  0.18649275405E-01  0.51100000000E-03 0.  1.
         11    1    4    4    0    0  0.39925715526E-01 -0.74578188715E-01  0.76728582954E-01  0.11420816764E+00  0.51100000000E-03 0. -1.
</event>
<event>
 7    1  0.1111182E+005  0.1043930E+01  0.7957747E-01            NaN
         13   -1    0    0    0    0  0.00000000000E+00  0.00000000000E+00  0.74505805969E-08  0.10566000000E+00  0.10566000000E+00 0.  1.
     999900   -1    0    0    0    0 -0.00000000000E+00 -0.00000000000E+00 -0.74505805969E-08  0.93827000000E+00  0.93827000000E+00 0.  1.
     999903    2    1    2    0    0  0.66940287158E-01  0.16235908264E-01 -0.55743409933E-02  0.72031072299E-01  0.20317365407E-01 0.  0.
         14    1    1    2    0    0 -0.46864766102E-01  0.54171702298E-02  0.75072375111E-01  0.88665176591E-01  0.00000000000E+00 0.  1.
     999901    1    1    2    0    0 -0.20075521056E-01 -0.21653078493E-01 -0.69498034118E-01  0.88323375111E+00  0.88000000000E+00 0.  1.
        -11    1    3    3    0    0  0.48632932326E-01  0.18719935536E-01 -0.99085134120E-02  0.53047505616E-01  0.51100000000E-03 0.  1.
         11    1    3    3    0    0  0.18307354832E-01 -0.24840272724E-02  0.43341724187E-02  0.18983566682E-01  0.51100000000E-03 0. -1.
</event>
<event>
 8    1  0.1111182E+005  0.1043930E+01  0.7957747E-01            NaN
         13   -1    0    0    0    0  0.00000000000E+00  0.00000000000E+00  0.74505805969E-08  0.10566000000E+00  0.10566000000E+00 0.  1.
     999900   -1    0    0    0    0 -0.00000000000E+00 -0.00000000000E+00 -0.74505805969E-08  0.93827000000E+00  0.93827000000E+00 0.  1.
     999902    2    1    2    0    0 -0.67835626541E-02  0.39927444756E-02 -0.21028860396E-01  0.10214762319E+01  0.10212294163E+01 0.  0.
     999903    2    3    3    0    0 -0.88883343966E-01  0.91475933545E-01  0.32420610437E-01  0.13172877991E+00  0.57689012539E-02 0.  0.
         14    1    1    2    0    0  0.67835626541E-02 -0.39927444756E-02  0.21028860396E-01  0.22453768064E-01  0.00000000000E+00 0.  1.
     999901    1    3    3    0    0  0.82099781312E-01 -0.87483189070E-01 -0.53449470833E-01  0.88974745203E+00  0.88000000000E+00 0.  1.
        -11    1    4    4    0    0 -0.54883942878E-01  0.53848370770E-01  0.17384006189E-01  0.78831205829E-01  0.51100000000E-03 0. -1.
         11    1    4    4    0    0 -0.33999401089E-01  0.37627562776E-01  0.15036604249E-01  0.52897574076E-01  0.51100000000E-03 0.  1.
</event>
<event>
 8    1  0.1111182E+005  0.1043930E+01  0.7957747E-01            NaN
         13   -1    0    0    0    0  0.00000000000E+00  0.00000000000E+00  0.74505805969E-08  0.10566000000E+00  0.10566000000E+00 0.  1.
     999900   -1    0    0    0    0 -0.00000000000E+00 -0.00000000000E+00 -0.74505805969E-08  0.93827000000E+00  0.93827000000E+00 0.  1.
     999902    2    1    2    0    0 -0.92799945643E-02  0.17649456132E-01  0.58499165254E-02  0.10231491645E+01  0.10229381065E+01 0.  0.
     999903    2    3    3    0    0  0.63528588810E-01  0.11664585189E+00  0.75636527490E-02  0.13460861220E+00  0.20497152848E-01 0.  0.
         14    1    1    2    0    0  0.92799945643E-02 -0.17649456132E-01 -0.58499165254E-02  0.20780835504E-01  0.00000000000E+00 0.  1.
     999901    1    3    3    0    0 -0.72808583375E-01 -0.98996395761E-01 -0.17137362236E-02  0.88854055230E+00  0.88000000000E+00 0. -1.
        -11    1    4    4    0    0  0.55709488611E-01  0.11062542627E+00  0.10483095213E-01  0.12430482077E+00  0.51100000000E-03 0. -1.
         11    1    4    4    0    0  0.78191001990E-02  0.60204256191E-02 -0.29194424637E-02  0.10303791431E-01  0.51100000000E-03 0.  1.
</event>
<event>
 8    1  0.1111182E+005  0.1043930E+01  0.7957747E-01            NaN
         13   -1    0    0    0    0  0.00000000000E+00  0.00000000000E+00  0.74505805969E-08  0.10566000000E+00  0.10566000000E+00 0.  1.
     999900   -1    0    0    0    0 -0.00000000000E+00 -0.00000000000E+00 -0.74505805969E-08  0.93827000000E+00  0.93827000000E+00 0. -1.
     999902    2    1    2    0    0 -0.57170449629E-02  0.21622931573E-01  0.56701773578E-02  0.10208564939E+01  0.10205957057E+01 0.  0.
     999903    2    3    3    0    0  0.19465015255E-01 -0.24602516278E-01 -0.12428856561E+00  0.12975593668E+00  0.20119267758E-01 0.  0.
         14    1    1    2    0    0  0.57170449629E-02 -0.21622931573E-01 -0.56701773578E-02  0.23073506110E-01  0.00000000000E+00 0. -1.
     999901    1    3    3    0    0 -0.25182060218E-01  0.46225447851E-01  0.12995874297E+00  0.89110055721E+00  0.88000000000E+00 0.  1.
        -11    1    4    4    0    0  0.20956151717E-01 -0.17504371584E-01 -0.72751119737E-01  0.77708106806E-01  0.51100000000E-03 0.  1.
         11    1    4    4    0    0 -0.14911364625E-02 -0.70981446943E-02 -0.51537445877E-01  0.52047829874E-01  0.51100000000E-03 0. -1.
</event>
<event>
 8    1  0.1111182E+005  0.1043930E+01  0.7957747E-01            NaN
         13   -1    0    0    0    0  0.00000000000E+00  0.00000000000E+00  0.74505805969E-08  0.10566000000E+00  0.10566000000E+00 0.  1.
     999900   -1    0    0    0    0 -0.00000000000E+00 -0.00000000000E+00 -0.74505805969E-08  0.93827000000E+00  0.93827000000E+00 0. -1.
     999902    2    1    2    0    0  0.43460817829E-02  0.19035235476E-02  0.22905297606E-01  0.10205384527E+01  0.10202703411E+01 0.  0.
     999903    2    3    3    0    0  0.23007431229E-01 -0.10832670747E+00  0.69581766186E-01  0.13223802909E+00  0.19525795948E-01 0.  0.
         14    1    1    2    0    0 -0.43460817829E-02 -0.19035235476E-02 -0.22905297606E-01  0.23391547345E-01  0.00000000000E+00 0. -1.
     999901    1    3    3    0    0 -0.18661349446E-01  0.11023023102E+00 -0.46676468580E-01  0.88830042357E+00  0.88000000000E+00 0.  1.
        -11    1    4    4    0    0  0.13427274313E-01 -0.30525157291E-01  0.27735014378E-01  0.43377056916E-01  0.51100000000E-03 0. -1.
         11    1    4    4    0    0  0.95801569163E-02 -0.77801550181E-01  0.41846751808E-01  0.88860972170E-01  0.51100000000E-03 0.  1.
</event>
<event>
 8    1  0.1111182E+005  0.1043930E+01  0.7957747E-01            NaN
         13   -1    0    0    0    0  0.00000000000E+00  0.00000000000E+00  0.74505805969E-08  0.10566000000E+00  0.10566000000E+00 0. -1.
     999900   -1    0    0    0    0 -0.00000000000E+00 -0.00000000000E+00 -0.74505805969E-08  0.93827000000E+00  0.93827000000E+00 0. -1.
     999902    2    1    2    0    0  0.15606280724E-01 -0.15829058586E-01 -0.88879824281E-02  0.10199902564E+01  0.10197092781E+01 0.  0.
     999903    2    3    3    0    0  0.64488649013E-01 -0.35340397072E-02  0.11150338937E+00  0.13036407879E+00  0.19761374169E-01 0.  0.
         14    1    1    2    0    0 -0.15606280724E-01  0.15829058586E-01  0.88879824281E-02  0.23939743637E-01  0.00000000000E+00 0. -1.
     999901    1    3    3    0    0 -0.48882368289E-01 -0.12295018879E-01 -0.12039137180E+00  0.88962617757E+00  0.88000000000E+00 0. -1.
        -11    1    4    4    0    0  0.49792321482E-01 -0.50527288950E-02  0.68116017601E-01  0.84527263783E-01  0.51100000000E-03 0.  1.
         11    1    4    4    0    0  0.14696327532E-01  0.15186891878E-02  0.43387371771E-01  0.45836815007E-01  0.51100000000E-03 0. -1.
</event>
<event>
 8    1  0.1111182E+005  0.1043930E+01  0.7957747E-01            NaN
         13   -1    0    0    0    0  0.00000000000E+00  0.00000000000E+00  0.74505805969E-08  0.10566000000E+00  0.10566000000E+00 0.  1.
     999900   -1    0    0    0    0 -0.00000000000E+00 -0.00000000000E+00 -0.74505805969E-08  0.93827000000E+00  0.93827000000E+00 0. -1.
     999902    2    1    2    0    0  0.12507997725E-01 -0.77101915969E-02 -0.20800462051E-01  0.10184632318E+01  0.10181447825E+01 0.  0.
     999903    2    3    3    0    0  0.12215105640E+00  0.37088602491E-01  0.12721215800E-01  0.12989571317E+00  0.20362267888E-01 0.  0.
         14    1    1    2    0    0 -0.12507997725E-01  0.77101915969E-02  0.20800462051E-01  0.25466768210E-01  0.00000000000E+00 0.  1.
     999901    1    3    3    0    0 -0.10964305867E+00 -0.44798794088E-01 -0.33521677851E-01  0.88856751862E+00  0.88000000000E+00 0.  1.
        -11    1    4    4    0    0  0.44275235094E-01  0.23274389756E-01  0.18285448496E-02  0.50055952278E-01  0.51100000000E-03 0.  1.
         11    1    4    4    0    0  0.77875821304E-01  0.13814212735E-01  0.10892670950E-01  0.79839760888E-01  0.51100000000E-03 0. -1.
</event>
<event>
 8    1  0.1111182E+005  0.1043930E+01  0.7957747E-01            NaN
         13   -1    0    0    0    0  0.00000000000E+00  0.00000000000E+00  0.74505805969E-08  0.10566000000E+00  0.10566000000E+00 0.  1.
     999900   -1    0    0    0    0 -0.00000000000E+00 -0.00000000000E+00 -0.74505805969E-08  0.93827000000E+00  0.93827000000E+00 0. -1.
     999902    2    1    2    0    0 -0.19460151881E-02 -0.20088168695E-01 -0.12577784266E-01  0.10201492903E+01  0.10198720765E+01 0.  0.
     999903    2    3    3    0    0 -0.31550822060E-01  0.15691923695E-01 -0.12545107381E+00  0.13172538299E+00  0.19285065767E-01 0.  0.
         14    1    1    2    0    0  0.19460151881E-02  0.20088168695E-01  0.12577784266E-01  0.23780709697E-01  0.00000000000E+00 0.  1.
     999901    1    3    3    0    0  0.29604806871E-01 -0.35780092389E-01  0.11287328954E+00  0.88842390732E+00  0.88000000000E+00 0.  1.
        -11    1    4    4    0    0 -0.18479516528E-01  0.10420149236E-01 -0.41637303294E-01  0.46733266393E-01  0.51100000000E-03 0. -1.
         11    1    4    4    0    0 -0.13071305531E-01  0.52717744582E-02 -0.83813770514E-01  0.84992116593E-01  0.51100000000E-03 0.  1.
</event>
<event>
 8    1  0.1111182E+005  0.1043930E+01  0.7957747E-01            NaN
         13   -1    0    0    0    0  0.00000000000E+00  0.00000000000E+00  0.74505805969E-08  0.10566000000E+00  0.10566000000E+00 0. -1.
     999900   -1    0    0    0    0 -0.00000000000E+00 -0.00000000000E+00 -0.74505805969E-08  0.93827000000E+00  0.93827000000E+00 0. -1.
     999902    2    1    2    0    0  0.10524976832E-02 -0.27573692411E-02  0.23519906127E-01  0.10202256371E+01  0.10199502212E+01 0.  0.
     999903    2    3    3    0    0 -0.12125179592E+00 -0.11580828529E-01  0.44203931578E-01  0.13148269193E+00  0.22306884774E-01 0.  0.
         14    1    1    2    0    0 -0.10524976832E-02  0.27573692411E-02 -0.23519906127E-01  0.23704362905E-01  0.00000000000E+00 0.  1.
     999901    1    3    3    0    0  0.12230429360E+00  0.88234592877E-02 -0.20684025451E-01  0.88874294516E+00  0.88000000000E+00 0. -1.
        -11    1    4    4    0    0 -0.79457419156E-01  0.30437330530E-02  0.27005194619E-01  0.83977898445E-01  0.51100000000E-03 0. -1.
         11    1    4    4    0    0 -0.41794376761E-01 -0.14624561582E-01  0.17198736958E-01  0.47504793487E-01  0.51100000000E-03 0.  1.
</event>
<event>
 8    1  0.1111182E+005  0.1043930E+01  0.7957747E-01            NaN
         13   -1    0    0    0    0  0.00000000000E+00  0.00000000000E+00  0.74505805969E-08  0.10566000000E+00  0.10566000000E+00 0.  1.
     999900   -1    0    0    0    0 -0.00000000000E+00 -0.00000000000E+00 -0.74505805969E-08  0.93827000000E+00  0.93827000000E+00 0. -1.
     999902    2    1    2    0    0  0.12330670092E-01  0.16750432383E-02 -0.20898061016E-01  0.10196075793E+01  0.10193174361E+01 0.  0.
     999903    2    3    3    0    0  0.10937610366E+00  0.40367378577E-01 -0.59986060451E-01  0.13256598800E+00  0.19564161639E-01 0.  0.
         14    1    1    2    0    0 -0.12330670092E-01 -0.16750432383E-02  0.20898061016E-01  0.24322420706E-01  0.00000000000E+00 0.  1.
     999901    1    3    3    0    0 -0.97045433567E-01 -0.38692335339E-01  0.39087999435E-01  0.88704159130E+00  0.88000000000E+00 0. -1.
        -11    1    4    4    0    0  0.31347332588E-01  0.19025685703E-01 -0.25264571812E-01  0.44533040394E-01  0.51100000000E-03 0.  1.
         11    1    4    4    0    0  0.78028771071E-01  0.21341692873E-01 -0.34721488639E-01  0.88032947604E-01  0.51100000000E-03 0. -1.
</event>
<event>
 8    1  0.1111182E+005  0.1043930E+01  0.7957747E-01            NaN
         13   -1    0    0    0    0  0.00000000000E+00  0.00000000000E+00  0.74505805969E-08  0.10566000000E+00  0.10566000000E+00 0. -1.
     999900   -1    0    0    0    0 -0.00000000000E+00 -0.00000000000E+00 -0.74505805969E-08  0.93827000000E+00  0.93827000000E+00 0.  1.
     999902    2    1    2    0    0 -0.28564038315E-02  0.11915412441E-01  0.15186565775E-01  0.10244167256E+01  0.10242308626E+01 0.  0.
     999903    2    3    3    0    0 -0.59389275915E-01 -0.10714719698E+00  0.50685779339E-01  0.13389324770E+00  0.18728204359E-01 0.  0.
         14    1    1    2    0    0  0.28564038315E-02 -0.11915412441E-01 -0.15186565775E-01  0.19513274367E-01  0.00000000000E+00 0.  1.
     999901    1    3    3    0    0  0.56532872083E-01  0.11906260942E+00 -0.35499213564E-01  0.89052347793E+00  0.88000000000E+00 0. -1.
        -11    1    4    4    0    0 -0.13926446151E-01 -0.16752168485E-01  0.28693148663E-02  0.21978970407E-01  0.51100000000E-03 0.  1.
         11    1    4    4    0    0 -0.45462829764E-01 -0.90395028492E-01  0.47816464472E-01  0.11191427729E+00  0.51100000000E-03 0. -1.
</event>
<event>
 8    1  0.1111182E+005  0.1043930E+01  0.7957747E-01            NaN
         13   -1    0    0    0    0  0.00000000000E+00  0.00000000000E+00  0.74505805969E-08  0.10566000000E+00  0.10566000000E+00 0. -1.
     999900   -1    0    0    0    0 -0.00000000000E+00 -0.00000000000E+00 -0.74505805969E-08  0.93827000000E+00  0.93827000000E+00 0. -1.
     999902    2    1    2    0    0  0.23172991502E-01  0.38914035852E-02  0.20111026048E-02  0.10203466353E+01  0.10200740567E+01 0.  0.
     999903    2    3    3    0    0  0.32817216440E-01  0.12589016551E+00 -0.63652047811E-02  0.13183840714E+00  0.20384952734E-01 0.  0.
         14    1    1    2    0    0 -0.23172991502E-01 -0.38914035852E-02 -0.20111026048E-02  0.23583364703E-01  0.00000000000E+00 0.  1.
     999901    1    3    3    0    0 -0.96442249385E-02 -0.12199876192E+00  0.83763073859E-02  0.88850822816E+00  0.88000000000E+00 0.  1.
        -11    1    4    4    0    0  0.16468770719E-01  0.48368675278E-01 -0.11735550130E-01  0.52428364604E-01  0.51100000000E-03 0.  1.
         11    1    4    4    0    0  0.16348445721E-01  0.77521490229E-01  0.53703453492E-02  0.79410042532E-01  0.51100000000E-03 0. -1.
</event>
<event>
 8    1  0.1111182E+005  0.1043930E+01  0.7957747E-01            NaN
         13   -1    0    0    0    0  0.00000000000E+00  0.00000000000E+00  0.74505805969E-08  0.10566000000E+00  0.10566000000E+00 0. -1.
     999900   -1    0    0    0    0 -0.00000000000E+00 -0.00000000000E+00 -0.74505805969E-08  0.93827000000E+00  0.93827000000E+00 0. -1.
     999902    2    1    2    0    0  0.93762656701E-02 -0.50113339525E-02 -0.21158223234E-01  0.10202509325E+01  0.10199761110E+01 0.  0.
     999903    2    3    3    0    0 -0.77704831124E-01 -0.87189785578E-01  0.52085896698E-01  0.12912741896E+00  0.17912291959E-01 0.  0.
         14    1    1    2    0    0 -0.93762656701E-02  0.50113339525E-02  0.21158223234E-01  0.23679067472E-01  0.00000000000E+00 0. -1.
     999901    1    3    3    0    0  0.87081096794E-01  0.82178451625E-01 -0.73244119932E-01  0.89112351357E+00  0.88000000000E+00 0. -1.
        -11    1    4    4    0    0 -0.30746588157E-01 -0.37028318796E-01  0.31001470021E-01  0.57252085906E-01  0.51100000000E-03 0. -1.
         11    1    4    4    0    0 -0.46958242967E-01 -0.50161466782E-01  0.21084426677E-01  0.71875333054E-01  0.51100000000E-03 0.  1.
</event>
<event>
 8    1  0.1111182E+005  0.1043930E+01  0.7957747E-01            NaN
         13   -1    0    0    0    0  0.00000000000E+00  0.00000000000E+00  0.74505805969E-08  0.10566000000E+00  0.10566000000E+00 0. -1.
     999900   -1    0    0    0    0 -0.00000000000E+00 -0.00000000000E+00 -0.74505805969E-08  0.93827000000E+00  0.93827000000E+00 0. -1.
     999902    2    1    2    0    0 -0.16942260496E-01  0.11302539383E-01 -0.13667109144E-01  0.10194029240E+01  0.10191078176E+01 0.  0.
     999903    2    3    3    0    0  0.83456165628E-01 -0.14220779748E-01  0.93458606806E-01  0.12687437942E+00  0.13979800015E-01 0.  0.
         14    1    1    2    0    0  0.16942260496E-01 -0.11302539383E-01  0.13667109144E-01  0.24527076050E-01  0.00000000000E+00 0. -1.
     999901    1    3    3    0    0 -0.10039842612E+00  0.25523319131E-01 -0.10712571595E+00  0.89252854453E+00  0.88000000000E+00 0. -1.
        -11    1    4    4    0    0  0.59301944988E-01 -0.11834006897E-01  0.57207563545E-01  0.83245004934E-01  0.51100000000E-03 0.  1.
         11    1    4    4    0    0  0.24154220640E-01 -0.23867728510E-02  0.36251043261E-01  0.43629374484E-01  0.51100000000E-03 0. -1.
</event>
<event>
 8    1  0.1111182E+005  0.1043930E+01  0.7957747E-01            NaN
         13   -1    0    0    0    0  0.00000000000E+00  0.00000000000E+00  0.74505805969E-08  0.10566000000E+00  0.10566000000E+00 0.  1.
     999900   -1    0    0    0    0 -0.00000000000E+00 -0.00000000000E+00 -0.74505805969E-08  0.93827000000E+00  0.93827000000E+00 0. -1.
     999902    2    1    2    0    0  0.13345958108E-01 -0.18750163039E-01  0.10305686067E-02  0.10208920903E+01  0.10206321153E+01 0.  0.
     999903    2    3    3    0    0  0.57343406684E-01  0.10792500622E+00  0.39285574163E-01  0.12991183269E+00  0.19941280742E-01 0.  0.
         14    1    1    2    0    0 -0.13345958108E-01  0.18750163039E-01 -0.10305686067E-02  0.23037909703E-01  0.00000000000E+00 0. -1.
     999901    1    3    3    0    0 -0.43997448576E-01 -0.12667516926E+00 -0.38255005557E-01  0.89098025760E+00  0.88000000000E+00 0.  1.
        -11    1    4    4    0    0  0.33560374219E-01  0.42127205451E-01  0.17146673865E-01  0.56526716714E-01  0.51100000000E-03 0. -1.
         11    1    4    4    0    0  0.23783032466E-01  0.65797800774E-01  0.22138900299E-01  0.73385115980E-01  0.51100000000E-03 0.  1.
</event>
<event>
 8    1  0.1111182E+005  0.1043930E+01  0.7957747E-01            NaN
         13   -1    0    0    0    0  0.00000000000E+00  0.00000000000E+00  0.74505805969E-08  0.10566000000E+00  0.10566000000E+00 0. -1.
     999900   -1    0    0    0    0 -0.00000000000E+00 -0.00000000000E+00 -0.74505805969E-08  0.93827000000E+00  0.93827000000E+00 0. -1.
     999902    2    1    2    0    0  0.22635954968E-01 -0.56604762563E-02 -0.21534501244E-02  0.10204978683E+01  0.10202288147E+01 0.  0.
     999903    2    3    3    0    0 -0.29120570626E-01  0.53463466092E-01 -0.11321847092E+00  0.13004303095E+00  0.19657515156E-01 0.  0.
         14    1    1    2    0    0 -0.22635954968E-01  0.56604762563E-02  0.21534501244E-02  0.23432131704E-01  0.00000000000E+00 0. -1.
     999901    1    3    3    0    0  0.51756525594E-01 -0.59123942349E-01  0.11106502080E+00  0.89045483734E+00  0.88000000000E+00 0.  1.
        -11    1    4    4    0    0 -0.27422967806E-01  0.39551147438E-01 -0.98955508074E-01  0.11003983881E+00  0.51100000000E-03 0.  1.
         11    1    4    4    0    0 -0.16976028207E-02  0.13912318654E-01 -0.14262962846E-01  0.20003192141E-01  0.51100000000E-03 0. -1.
</event>
<event>
 8    1  0.1111182E+005  0.1043930E+01  0.7957747E-01            NaN
         13   -1    0    0    0    0  0.00000000000E+00  0.00000000000E+00  0.74505805969E-08  0.10566000000E+00  0.10566000000E+00 0.  1.
     999900   -1    0    0    0    0 -0.00000000000E+00 -0.00000000000E+00 -0.74505805969E-08  0.93827000000E+00  0.93827000000E+00 0.  1.
     999902    2    1    2    0    0 -0.38100243618E-02  0.65937796544E-02  0.21709463855E-01  0.10209235871E+01  0.10206643305E+01 0.  0.
     999903    2    3    3    0    0  0.79703751579E-01 -0.20146363849E-01  0.10244737778E+00  0.13288744095E+00  0.20125674068E-01 0.  0.
         14    1    1    2    0    0  0.38100243618E-02 -0.65937796544E-02 -0.21709463855E-01  0.23006412946E-01  0.00000000000E+00 0. -1.
     999901    1    3    3    0    0 -0.83513775940E-01  0.26740143503E-01 -0.80737913921E-01  0.88803614611E+00  0.88000000000E+00 0.  1.
        -11    1    4    4    0    0  0.57998893670E-01 -0.18373095395E-01  0.61519628261E-01  0.86523800678E-01  0.51100000000E-03 0.  1.
         11    1    4    4    0    0  0.21704857909E-01 -0.17732684537E-02  0.40927749514E-01  0.46363640271E-01  0.51100000000E-03 0. -1.
</event>
<event>
 8    1  0.1111182E+005  0.1043930E+01  0.7957747E-01            NaN
         13   -1    0    0    0    0  0.00000000000E+00  0.00000000000E+00  0.74505805969E-08  0.10566000000E+00  0.10566000000E+00 0. -1.
     999900   -1    0    0    0    0 -0.00000000000E+00 -0.00000000000E+00 -0.74505805969E-08  0.93827000000E+00  0.93827000000E+00 0. -1.
     999902    2    1    2    0    0  0.12977586408E-01 -0.16942398908E-01 -0.12093311464E-01  0.10194002056E+01  0.10191050331E+01 0.  0.
     999903    2    3    3    0    0 -0.84431280586E-01  0.60085285278E-01  0.70311081207E-01  0.12686884179E+00  0.20326638402E-01 0.  0.
         14    1    1    2    0    0 -0.12977586408E-01  0.16942398908E-01  0.12093311464E-01  0.24529794371E-01  0.00000000000E+00 0.  1.
     999901    1    3    3    0    0  0.97408866994E-01 -0.77027684187E-01 -0.82404392671E-01  0.89253136384E+00  0.88000000000E+00 0. -1.
        -11    1    4    4    0    0 -0.77325837419E-01  0.58829307699E-01  0.59735381801E-01  0.11405590531E+00  0.51100000000E-03 0.  1.
         11    1    4    4    0    0 -0.71054431676E-02  0.12559775795E-02  0.10575699406E-01  0.12812936479E-01  0.51100000000E-03 0. -1.
</event>
<event>
 8    1  0.1111182E+005  0.1043930E+01  0.7957747E-01            NaN
         13   -1    0    0    0    0  0.00000000000E+00  0.00000000000E+00  0.74505805969E-08  0.10566000000E+00  0.10566000000E+00 0.  1.
     999900   -1    0    0    0    0 -0.00000000000E+00 -0.00000000000E+00 -0.74505805969E-08  0.93827000000E+00  0.93827000000E+00 0. -1.
     999902    2    1    2    0    0 -0.14234463435E-02  0.11974395649E-01  0.17770556084E-01  0.10224543157E+01  0.10222287527E+01 0.  0.
     999903    2    3    3    0    0  0.13011836306E+00  0.12559167087E-01 -0.33696732704E-02  0.13242594604E+00  0.20898693854E-01 0.  0.
         14    1    1    2    0    0  0.14234463435E-02 -0.11974395649E-01 -0.17770556084E-01  0.21475684254E-01  0.00000000000E+00 0. -1.
     999901    1    3    3    0    0 -0.13154180940E+00 -0.58477143799E-03  0.21140229354E-01  0.89002836970E+00  0.88000000000E+00 0.  1.
        -11    1    4    4    0    0  0.39124715921E-01 -0.30133168078E-02 -0.77594425690E-02  0.40003669132E-01  0.51100000000E-03 0.  1.
         11    1    4    4    0    0  0.90993647137E-01  0.15572483894E-01  0.43897692986E-02  0.92422276911E-01  0.51100000000E-03 0. -1.
</event>
<event>
 8    1  0.1111182E+005  0.1043930E+01  0.7957747E-01            NaN
         13   -1    0    0    0    0  0.00000000000E+00  0.00000000000E+00  0.74505805969E-08  0.10566000000E+00  0.10566000000E+00 0. -1.
     999900   -1    0    0    0    0 -0.00000000000E+00 -0.00000000000E+00 -0.74505805969E-08  0.93827000000E+00  0.93827000000E+00 0.  1.
     999902    2    1    2    0    0  0.17746642494E-03  0.22560377689E-01  0.72532491153E-02  0.10202316507E+01  0.10199563762E+01 0.  0.
     999903    2    3    3    0    0  0.32381805029E-01  0.12150102539E+00  0.40117100504E-01  0.13349245348E+00  0.19994322098E-01 0.  0.
         14    1    1    2    0    0 -0.17746642494E-03 -0.22560377689E-01 -0.72532491153E-02  0.23698349278E-01  0.00000000000E+00 0.  1.
     999901    1    3    3    0    0 -0.32204338604E-01 -0.98940647701E-01 -0.32863851389E-01  0.88673919724E+00  0.88000000000E+00 0. -1.
        -11    1    4    4    0    0  0.18943729335E-01  0.94136441543E-01  0.23886805063E-01  0.98951377376E-01  0.51100000000E-03 0. -1.
         11    1    4    4    0    0  0.13438075694E-01  0.27364583847E-01  0.16230295441E-01  0.34541076106E-01  0.51100000000E-03 0.  1.
</event>
<event>
 8    1  0.1111182E+005  0.1043930E+01  0.7957747E-01            NaN
         13   -1    0    0    0    0  0.00000000000E+00  0.00000000000E+00  0.74505805969E-08  0.10566000000E+00  0.10566000000E+00 0.  1.
     999900   -1    0    0    0    0 -0.00000000000E+00 -0.00000000000E+00 -0.74505805969E-08  0.93827000000E+00  0.93827000000E+00 0.  1.
     999902    2    1    2    0    0 -0.80285943734E-03  0.64266636545E-02  0.22918675426E-01  0.10201137813E+01  0.10198357292E+01 0.  0.
     999903    2    3    3    0    0  0.11272421982E+00  0.60486224551E-01 -0.15950398142E-01  0.13032636922E+00  0.19110578723E-01 0.  0.
         14    1    1    2    0    0  0.80285943734E-03 -0.64266636545E-02 -0.22918675426E-01  0.23816218682E-01  0.00000000000E+00 0. -1.
     999901    1    3    3    0    0 -0.11352707926E+00 -0.54059560896E-01  0.38869073569E-01  0.88978741210E+00  0.88000000000E+00 0.  1.
        -11    1    4    4    0    0  0.12861371399E-01  0.12212816142E-01 -0.69009309131E-02  0.19038164849E-01  0.51100000000E-03 0. -1.
         11    1    4    4    0    0  0.99862848419E-01  0.48273408409E-01 -0.90494672294E-02  0.11128820437E+00  0.51100000000E-03 0.  1.
</event>
<event>
 8    1  0.1111182E+005  0.1043930E+01  0.7957747E-01            NaN
         13   -1    0    0    0    0  0.00000000000E+00  0.00000000000E+00  0.74505805969E-08  0.10566000000E+00  0.10566000000E+00 0. -1.
     999900   -1    0    0    0    0 -0.00000000000E+00 -0.00000000000E+00 -0.74505805969E-08  0.93827000000E+00  0.93827000000E+00 0.  1.
     999902    2    1    2    0    0  0.12517025431E-01  0.14137962225E-01  0.13313379020E-01  0.10208258021E+01  0.10205643116E+01 0.  0.
     999903    2    3    3    0    0 -0.86295058186E-01  0.33888260479E-01 -0.89305203984E-01  0.12915070668E+00  0.10451521935E-01 0.  0.
         14    1    1    2    0    0 -0.12517025431E-01 -0.14137962225E-01 -0.13313379020E-01  0.23104197940E-01  0.00000000000E+00 0.  1.
     999901    1    3    3    0    0  0.98812083617E-01 -0.19750298254E-01  0.10261858300E+00  0.89167509538E+00  0.88000000000E+00 0. -1.
        -11    1    4    4    0    0 -0.79879042545E-01  0.28285781849E-01 -0.81959358852E-01  0.11789124020E+00  0.51100000000E-03 0. -1.
         11    1    4    4    0    0 -0.64160156414E-02  0.56024786307E-02 -0.73458451317E-02  0.11259466471E-01  0.51100000000E-03 0.  1.
</event>
<event>
 8    1  0.1111182E+005  0.1043930E+01  0.7957747E-01            NaN
         13   -1    0    0    0    0  0.00000000000E+00  0.00000000000E+00  0.74505805969E-08  0.10566000000E+00  0.10566000000E+00 0.  1.
     999900   -1    0    0    0    0 -0.00000000000E+00 -0.00000000000E+00 -0.74505805969E-08  0.93827000000E+00  0.93827000000E+00 0.  1.
     999902    2    1    2    0    0  0.11423322626E-01 -0.14365680193E-01 -0.14911554370E-01  0.10202821772E+01  0.10200080890E+01 0.  0.
     999903    2    3    3    0    0  0.76571818889E-01 -0.10028215271E+00  0.35233168869E-01  0.13228417045E+00  0.18384013749E-01 0.  0.
         14    1    1    2    0    0 -0.11423322626E-01  0.14365680193E-01  0.14911554370E-01  0.23647822753E-01  0.00000000000E+00 0.  1.
     999901    1    3    3    0    0 -0.65148496263E-01  0.85916472518E-01 -0.50144723239E-01  0.88799800680E+00  0.88000000000E+00 0. -1.
        -11    1    4    4    0    0  0.50706115053E-01 -0.58740285218E-01  0.29467310093E-01  0.83006714767E-01  0.51100000000E-03 0.  1.
         11    1    4    4    0    0  0.25865703836E-01 -0.41541867493E-01  0.57658587765E-02  0.49277455678E-01  0.51100000000E-03 0. -1.
</event>
<event>
 8    1  0.1111182E+005  0.1043930E+01  0.7957747E-01            NaN
         13   -1    0    0    0    0  0.00000000000E+00  0.00000000000E+00  0.74505805969E-08  0.10566000000E+00  0.10566000000E+00 0.  1.
     999900   -1    0    0    0    0 -0.00000000000E+00 -0.00000000000E+00 -0.74505805969E-08  0.93827000000E+00  0.93827000000E+00 0.  1.
     999902    2    1    2    0    0 -0.81900133333E-03 -0.16189963673E-01 -0.82077589195E-02  0.10257598874E+01  0.10255989438E+01 0.  0.
     999903    2    3    3    0    0 -0.55562953980E-01 -0.60643733285E-01 -0.10795512952E+00  0.13732160817E+00  0.20928684581E-01 0.  0.
         14    1    1    2    0    0  0.81900133333E-03  0.16189963673E-01  0.82077589195E-02  0.18170112641E-01  0.00000000000E+00 0.  1.
     999901    1    3    3    0    0  0.54743952646E-01  0.44453769612E-01  0.99747370605E-01  0.88843827919E+00  0.88000000000E+00 0. -1.
        -11    1    4    4    0    0 -0.24843452922E-01 -0.16579527852E-01 -0.27638547536E-01  0.40696785227E-01  0.51100000000E-03 0.  1.
         11    1    4    4    0    0 -0.30719501057E-01 -0.44064205433E-01 -0.80316581988E-01  0.96624822944E-01  0.51100000000E-03 0. -1.
</event>
<event>
 8    1  0.1111182E+005  0.1043930E+01  0.7957747E-01            NaN
         13   -1    0    0    0    0  0.00000000000E+00  0.00000000000E+00  0.74505805969E-08  0.10566000000E+00  0.10566000000E+00 0. -1.
     999900   -1    0    0    0    0 -0.00000000000E+00 -0.00000000000E+00 -0.74505805969E-08  0.93827000000E+00  0.93827000000E+00 0.  1.
     999902    2    1    2    0    0  0.14499044031E-01  0.17978871819E-01 -0.74061685328E-02  0.10196748265E+01  0.10193863048E+01 0.  0.
     999903    2    3    3    0    0  0.92835944431E-01  0.91654979647E-01 -0.17783261054E-01  0.13306751608E+00  0.19276192270E-01 0.  0.
         14    1    1    2    0    0 -0.14499044031E-01 -0.17978871819E-01  0.74061685328E-02  0.24255173511E-01  0.00000000000E+00 0. -1.
     999901    1    3    3    0    0 -0.78336900400E-01 -0.73676107829E-01  0.10377092521E-01  0.88660731041E+00  0.88000000000E+00 0. -1.
        -11    1    4    4    0    0  0.65025112422E-01  0.56470576158E-01 -0.19016910972E-01  0.88199179367E-01  0.51100000000E-03 0. -1.
         11    1    4    4    0    0  0.27810832009E-01  0.35184403489E-01  0.12336499183E-02  0.44868336709E-01  0.51100000000E-03 0.  1.
</event>
<event>
 8    1  0.1111182E+005  0.1043930E+01  0.7957747E-01            NaN
         13   -1    0    0    0    0  0.00000000000E+00  0.00000000000E+00  0.74505805969E-08  0.10566000000E+00  0.10566000000E+00 0.  1.
     999900   -1    0    0    0    0 -0.00000000000E+00 -0.00000000000E+00 -0.74505805969E-08  0.93827000000E+00  0.93827000000E+00 0.  1.
     999902    2    1    2    0    0  0.13003160076E-01 -0.18933170278E-01 -0.77244232019E-02  0.10196975048E+01  0.10194095289E+01 0.  0.
     999903    2    3    3    0    0 -0.29279110425E-01 -0.18573499060E-01 -0.12477731138E+00  0.13094033979E+00  0.19332717738E-01 0.  0.
         14    1    1    2    0    0 -0.13003160076E-01  0.18933170278E-01  0.77244232019E-02  0.24232495177E-01  0.00000000000E+00 0.  1.
     999901    1    3    3    0    0  0.42282270501E-01 -0.35967121717E-03  0.11705288818E+00  0.88875716503E+00  0.88000000000E+00 0. -1.
        -11    1    4    4    0    0 -0.13944794070E-01 -0.17005103427E-01 -0.93687273495E-01  0.96235113967E-01  0.51100000000E-03 0.  1.
         11    1    4    4    0    0 -0.15334316355E-01 -0.15683956337E-02 -0.31090037885E-01  0.34705225826E-01  0.51100000000E-03 0. -1.
</event>
<event>
 8    1  0.1111182E+005  0.1043930E+01  0.7957747E-01            NaN
         13   -1    0    0    0    0  0.00000000000E+00  0.00000000000E+00  0.74505805969E-08  0.10566000000E+00  0.10566000000E+00 0. -1.
     999900   -1    0    0    0    0 -0.00000000000E+00 -0.00000000000E+00 -0.74505805969E-08  0.93827000000E+00  0.93827000000E+00 0. -1.
     999902    2    1    2    0    0 -0.10351724189E-01 -0.13485980468E-01  0.16157265767E-01  0.10204760643E+01  0.10202065040E+01 0.  0.
     999903    2    3    3    0    0 -0.50814438745E-01  0.92629366520E-01 -0.71071200424E-01  0.12890077109E+00  0.20049601797E-01 0.  0.
         14    1    1    2    0    0  0.10351724189E-01  0.13485980468E-01 -0.16157265767E-01  0.23453935703E-01  0.00000000000E+00 0.  1.
     999901    1    3    3    0    0  0.40462714556E-01 -0.10611534699E+00  0.87228466191E-01  0.89157529320E+00  0.88000000000E+00 0.  1.
        -11    1    4    4    0    0 -0.12526463393E-01  0.10032960507E-01 -0.15031529676E-01  0.21995012777E-01  0.51100000000E-03 0.  1.
         11    1    4    4    0    0 -0.38287975351E-01  0.82596406014E-01 -0.56039670748E-01  0.10690575832E+00  0.51100000000E-03 0. -1.
</event>
<event>
 8    1  0.1111182E+005  0.1043930E+01  0.7957747E-01            NaN
         13   -1    0    0    0    0  0.00000000000E+00  0.00000000000E+00  0.74505805969E-08  0.10566000000E+00  0.10566000000E+00 0.  1.
     999900   -1    0    0    0    0 -0.00000000000E+00 -0.00000000000E+00 -0.74505805969E-08  0.93827000000E+00  0.93827000000E+00 0.  1.
     999902    2    1    2    0    0  0.85121512154E-02  0.21857996966E-01  0.27828419569E-02  0.10203085488E+01  0.10200350787E+01 0.  0.
     999903    2    3    3    0    0  0.83834992414E-01 -0.46341906446E-01  0.86353228470E-01  0.13052836987E+00  0.20122053264E-01 0.  0.
         14    1    1    2    0    0 -0.85121512154E-02 -0.21857996966E-01 -0.27828419569E-02  0.23621451247E-01  0.00000000000E+00 0. -1.
     999901    1    3    3    0    0 -0.75322841198E-01  0.68199903412E-01 -0.83570386513E-01  0.88978017888E+00  0.88000000000E+00 0.  1.
        -11    1    4    4    0    0  0.25665634359E-01 -0.90234543119E-02  0.35468839283E-01  0.44703995301E-01  0.51100000000E-03 0. -1.
         11    1    4    4    0    0  0.58169358055E-01 -0.37318452134E-01  0.50884389187E-01  0.85824374568E-01  0.51100000000E-03 0.  1.
</event>
<event>
 8    1  0.1111182E+005  0.1043930E+01  0.7957747E-01            NaN
         13   -1    0    0    0    0  0.00000000000E+00  0.00000000000E+00  0.74505805969E-08  0.10566000000E+00  0.10566000000E+00 0. -1.
     999900   -1    0    0    0    0 -0.00000000000E+00 -0.00000000000E+00 -0.74505805969E-08  0.93827000000E+00  0.93827000000E+00 0. -1.
     999902    2    1    2    0    0  0.76399093818E-02  0.13176258195E-01  0.12506478137E-01  0.10242222860E+01  0.10240326641E+01 0.  0.
     999903    2    3    3    0    0  0.96764825345E-01  0.60459972032E-01 -0.69398118639E-01  0.13467894068E+00  0.17420635773E-01 0.  0.
         14    1    1    2    0    0 -0.76399093818E-02 -0.13176258195E-01 -0.12506478137E-01  0.19707713992E-01  0.00000000000E+00 0.  1.
     999901    1    3    3    0    0 -0.89124915963E-01 -0.47283713837E-01  0.81904596776E-01  0.88954334533E+00  0.88000000000E+00 0.  1.
        -11    1    4    4    0    0  0.38257701163E-01  0.31932945327E-01 -0.36295046074E-01  0.61651895235E-01  0.51100000000E-03 0.  1.
         11    1    4    4    0    0  0.58507124181E-01  0.28527026705E-01 -0.33103072565E-01  0.73027045448E-01  0.51100000000E-03 0. -1.
</event>
<event>
 8    1  0.1111182E+005  0.1043930E+01  0.7957747E-01            NaN
         13   -1    0    0    0    0  0.00000000000E+00  0.00000000000E+00  0.74505805969E-08  0.10566000000E+00  0.10566000000E+00 0.  1.
     999900   -1    0    0    0    0 -0.00000000000E+00 -0.00000000000E+00 -0.74505805969E-08  0.93827000000E+00  0.93827000000E+00 0.  1.
     999902    2    1    2    0    0 -0.21337079741E-01  0.49769171323E-02 -0.32785116681E-03  0.10220177166E+01  0.10217827876E+01 0.  0.
     999903    2    3    3    0    0  0.99082811683E-02 -0.27664101132E-02 -0.13003121454E+00  0.13192828620E+00  0.19776978678E-01 0.  0.
         14    1    1    2    0    0  0.21337079741E-01 -0.49769171323E-02  0.32785116681E-03  0.21912283368E-01  0.00000000000E+00 0.  1.
     999901    1    3    3    0    0 -0.31245360909E-01  0.77433272455E-02  0.12970336337E+00  0.89008943043E+00  0.88000000000E+00 0. -1.
        -11    1    4    4    0    0  0.23308800666E-02 -0.74789125860E-02 -0.19279678958E-01  0.20816682663E-01  0.51100000000E-03 0.  1.
         11    1    4    4    0    0  0.75774011016E-02  0.47125024728E-02 -0.11075153558E+00  0.11111160354E+00  0.51100000000E-03 0. -1.
</event>
<event>
 8    1  0.1111182E+005  0.1043930E+01  0.7957747E-01            NaN
         13   -1    0    0    0    0  0.00000000000E+00  0.00000000000E+00  0.74505805969E-08  0.10566000000E+00  0.10566000000E+00 0.  1.
     999900   -1    0    0    0    0 -0.00000000000E+00 -0.00000000000E+00 -0.74505805969E-08  0.93827000000E+00  0.93827000000E+00 0. -1.
     999902    2    1    2    0    0 -0.91553903201E-02  0.22155193931E-01 -0.29466715797E-02  0.10197772224E+01  0.10194911607E+01 0.  0.
     999903    2    3    3    0    0  0.55816863359E-01  0.77311438997E-01  0.87632869129E-01  0.13103189430E+00  0.19931300413E-01 0.  0.
         14    1    1    2    0    0  0.91553903201E-02 -0.22155193931E-01  0.29466715797E-02  0.24152777551E-01  0.00000000000E+00 0. -1.
     999901    1    3    3    0    0 -0.64972253680E-01 -0.55156245066E-01 -0.90579540708E-01  0.88874532815E+00  0.88000000000E+00 0. -1.
        -11    1    4    4    0    0  0.35097286373E-01  0.59067105544E-01  0.70972471519E-01  0.98783071944E-01  0.51100000000E-03 0.  1.
         11    1    4    4    0    0  0.20719576986E-01  0.18244333453E-01  0.16660397609E-01  0.32248822352E-01  0.51100000000E-03 0. -1.
</event>
<event>
 8    1  0.1111182E+005  0.1043930E+01  0.7957747E-01            NaN
         13   -1    0    0    0    0  0.00000000000E+00  0.00000000000E+00  0.74505805969E-08  0.10566000000E+00  0.10566000000E+00 0.  1.
     999900   -1    0    0    0    0 -0.00000000000E+00 -0.00000000000E+00 -0.74505805969E-08  0.93827000000E+00  0.93827000000E+00 0. -1.
     999902    2    1    2    0    0  0.22489007792E-01  0.34092931660E-02  0.36284518443E-02  0.10208964502E+01  0.10206365747E+01 0.  0.
     999903    2    3    3    0    0  0.74707926130E-01 -0.10662940379E+00  0.14213519214E-01  0.13244421523E+00  0.19706395910E-01 0.  0.
         14    1    1    2    0    0 -0.22489007792E-01 -0.34092931660E-02 -0.36284518443E-02  0.23033549751E-01  0.00000000000E+00 0. -1.
     999901    1    3    3    0    0 -0.52218918338E-01  0.11003869696E+00 -0.10585067369E-01  0.88845223502E+00  0.88000000000E+00 0. -1.
        -11    1    4    4    0    0  0.30034589341E-01 -0.59311848907E-01  0.99882728792E-02  0.67230935541E-01  0.51100000000E-03 0. -1.
         11    1    4    4    0    0  0.44673336789E-01 -0.47317554884E-01  0.42252463344E-02  0.65213279688E-01  0.51100000000E-03 0.  1.
</event>
<event>
 8    1  0.1111182E+005  0.1043930E+01  0.7957747E-01            NaN
         13   -1    0    0    0    0  0.00000000000E+00  0.00000000000E+00  0.74505805969E-08  0.10566000000E+00  0.10566000000E+00 0.  1.
     999900   -1    0    0    0    0 -0.00000000000E+00 -0.00000000000E+00 -0.74505805969E-08  0.93827000000E+00  0.93827000000E+00 0.  1.
     999902    2    1    2    0    0  0.19202613274E-01  0.13532514750E-02 -0.13209405749E-01  0.10205834789E+01  0.10203164104E+01 0.  0.
     999903    2    3    3    0    0  0.12438520921E+00 -0.28558888932E-01  0.30269661216E-01  0.13274985493E+00  0.20469029906E-01 0.  0.
         14    1    1    2    0    0 -0.19202613274E-01 -0.13532514750E-02  0.13209405749E-01  0.23346521076E-01  0.00000000000E+00 0. -1.
     999901    1    3    3    0    0 -0.10518259594E+00  0.29912140407E-01 -0.43479066965E-01  0.88783362400E+00  0.88000000000E+00 0.  1.
        -11    1    4    4    0    0  0.70471704936E-01 -0.17728706903E-01  0.68959635619E-02  0.72995778505E-01  0.51100000000E-03 0. -1.
         11    1    4    4    0    0  0.53913504278E-01 -0.10830182029E-01  0.23373697654E-01  0.59754076424E-01  0.51100000000E-03 0.  1.
</event>
<event>
 8    1  0.1111182E+005  0.1043930E+01  0.7957747E-01            NaN
         13   -1    0    0    0    0  0.00000000000E+00  0.00000000000E+00  0.74505805969E-08  0.10566000000E+00  0.10566000000E+00 0. -1.
     999900   -1    0    0    0    0 -0.00000000000E+00 -0.00000000000E+00 -0.74505805969E-08  0.93827000000E+00  0.93827000000E+00 0.  1.
     999902    2    1    2    0    0  0.23455394758E-01  0.52326294279E-03 -0.32112666196E-02  0.10202500173E+01  0.10199751743E+01 0.  0.
     999903    2    3    3    0    0  0.54874065797E-01 -0.35652589811E-01 -0.11308061345E+00  0.13212440761E+00  0.19681557154E-01 0.  0.
         14    1    1    2    0    0 -0.23455394758E-01 -0.52326294279E-03  0.32112666196E-02  0.23679982700E-01  0.00000000000E+00 0. -1.
     999901    1    3    3    0    0 -0.31418671039E-01  0.36175852754E-01  0.10986934683E+00  0.88812560969E+00  0.88000000000E+00 0. -1.
        -11    1    4    4    0    0  0.27792381457E-01 -0.76760085871E-02 -0.39926218740E-01  0.49251412556E-01  0.51100000000E-03 0. -1.
         11    1    4    4    0    0  0.27081684340E-01 -0.27976581224E-01 -0.73154394706E-01  0.82872995056E-01  0.51100000000E-03 0.  1.
</event>
<event>
 8    1  0.1111182E+005  0.1043930E+01  0.7957747E-01            NaN
         13   -1    0    0    0    0  0.00000000000E+00  0.00000000000E+00  0.74505805969E-08  0.10566000000E+00  0.10566000000E+00 0.  1.
     999900   -1    0    0    0    0 -0.00000000000E+00 -0.00000000000E+00 -0.74505805969E-08  0.93827000000E+00  0.93827000000E+00 0.  1.
     999902    2    1    2    0    0 -0.75068128131E-02  0.18346890256E-01  0.14584285706E-01  0.10193197987E+01  0.10190226641E+01 0.  0.
     999903    2    3    3    0    0  0.41660405986E-01 -0.12545297810E-01  0.12183642122E+00  0.13090842814E+00  0.19998227400E-01 0.  0.
         14    1    1    2    0    0  0.75068128131E-02 -0.18346890256E-01 -0.14584285706E-01  0.24610201345E-01  0.00000000000E+00 0. -1.
     999901    1    3    3    0    0 -0.49167218799E-01  0.30892188066E-01 -0.10725213551E+00  0.88841137051E+00  0.88000000000E+00 0.  1.
        -11    1    4    4    0    0  0.13008486932E-01  0.48142984549E-02  0.27610445512E-01  0.30903009955E-01  0.51100000000E-03 0.  1.
         11    1    4    4    0    0  0.28651919054E-01 -0.17359596265E-01  0.94225975705E-01  0.10000541819E+00  0.51100000000E-03 0. -1.
</event>
<event>
 8    1  0.1111182E+005  0.1043930E+01  0.7957747E-01            NaN
         13   -1    0    0    0    0  0.00000000000E+00  0.00000000000E+00  0.74505805969E-08  0.10566000000E+00  0.10566000000E+00 0. -1.
     999900   -1    0    0    0    0 -0.00000000000E+00 -0.00000000000E+00 -0.74505805969E-08  0.93827000000E+00  0.93827000000E+00 0.  1.
     999902    2    1    2    0    0 -0.16927156793E-01 -0.13396509640E-01  0.59090247440E-03  0.10223349942E+01  0.10221068908E+01 0.  0.
     999903    2    3    3    0    0 -0.12899409821E+00 -0.29978696822E-01 -0.16133339837E-01  0.13491532545E+00  0.20091310362E-01 0.  0.
         14    1    1    2    0    0  0.16927156793E-01  0.13396509640E-01 -0.59090247440E-03  0.21595005751E-01  0.00000000000E+00 0. -1.
     999901    1    3    3    0    0  0.11206694141E+00  0.16582187181E-01  0.16724242311E-01  0.88741966880E+00  0.88000000000E+00 0.  1.
        -11    1    4    4    0    0 -0.58555267755E-01 -0.91362790557E-02 -0.16258987880E-01  0.61455730283E-01  0.51100000000E-03 0. -1.
         11    1    4    4    0    0 -0.70438830452E-01 -0.20842417766E-01  0.12564804296E-03  0.73459595168E-01  0.51100000000E-03 0.  1.
</event>
<event>
 8    1  0.1111182E+005  0.1043930E+01  0.7957747E-01            NaN
         13   -1    0    0    0    0  0.00000000000E+00  0.00000000000E+00  0.74505805969E-08  0.10566000000E+00  0.10566000000E+00 0. -1.
     999900   -1    0    0    0    0 -0.00000000000E+00 -0.00000000000E+00 -0.74505805969E-08  0.93827000000E+00  0.93827000000E+00 0.  1.
     999902    2    1    2    0    0 -0.19817276455E-01 -0.12913554381E-01  0.37191415787E-02  0.10199859747E+01  0.10197048947E+01 0.  0.
     999903    2    3    3    0    0 -0.20845210779E-01 -0.55831193335E-01  0.11589536642E+00  0.13182693163E+00  0.19873575065E-01 0.  0.
         14    1    1    2    0    0  0.19817276455E-01  0.12913554381E-01 -0.37191415787E-02  0.23944025287E-01  0.00000000000E+00 0.  1.
     999901    1    3    3    0    0  0.10279343243E-02  0.42917638954E-01 -0.11217622484E+00  0.88815904308E+00  0.88000000000E+00 0.  1.
        -11    1    4    4    0    0 -0.18486176102E-01 -0.28666296233E-01  0.50184397614E-01  0.60681382083E-01  0.51100000000E-03 0.  1.
         11    1    4    4    0    0 -0.23590346778E-02 -0.27164897103E-01  0.65710968802E-01  0.71145549552E-01  0.51100000000E-03 0. -1.
</event>
<event>
 8    1  0.1111182E+005  0.1043930E+01  0.7957747E-01            NaN
         13   -1    0    0    0    0  0.00000000000E+00  0.00000000000E+00  0.74505805969E-08  0.10566000000E+00  0.10566000000E+00 0. -1.
     999900   -1    0    0    0    0 -0.00000000000E+00 -0.00000000000E+00 -0.74505805969E-08  0.93827000000E+00  0.93827000000E+00 0.  1.
     999902    2    1    2    0    0 -0.21011620674E-01 -0.77360873002E-02 -0.74666267866E-02  0.10203273356E+01  0.10200543054E+01 0.  0.
     999903    2    3    3    0    0 -0.98612867214E-02 -0.64042629266E-01 -0.11339751925E+00  0.13211783861E+00  0.19935460019E-01 0.  0.
         14    1    1    2    0    0  0.21011620674E-01  0.77360873002E-02  0.74666267866E-02  0.23602664376E-01  0.00000000000E+00 0.  1.
     999901    1    3    3    0    0 -0.11150333953E-01  0.56306541966E-01  0.10593089247E+00  0.88820949702E+00  0.88000000000E+00 0. -1.
        -11    1    4    4    0    0  0.44213582994E-02 -0.33814448796E-01 -0.62948556732E-01  0.71594324302E-01  0.51100000000E-03 0. -1.
         11    1    4    4    0    0 -0.14282645021E-01 -0.30228180470E-01 -0.50448962520E-01  0.60523514304E-01  0.51100000000E-03 0.  1.
</event>
<event>
 8    1  0.1111182E+005  0.1043930E+01  0.7957747E-01            NaN
         13   -1    0    0    0    0  0.00000000000E+00  0.00000000000E+00  0.74505805969E-08  0.10566000000E+00  0.10566000000E+00 0. -1.
     999900   -1    0    0    0    0 -0.00000000000E+00 -0.00000000000E+00 -0.74505805969E-08  0.93827000000E+00  0.93827000000E+00 0.  1.
     999902    2    1    2    0    0  0.14507530396E-01  0.17160492631E-03  0.17898614414E-01  0.10208896379E+01  0.10206296069E+01 0.  0.
     999903    2    3    3    0    0  0.25781915762E-01 -0.10221779871E+00  0.78004098358E-01  0.13284494821E+00  0.21212151027E-01 0.  0.
         14    1    1    2    0    0 -0.14507530396E-01 -0.17160492631E-03 -0.17898614414E-01  0.23040362071E-01  0.00000000000E+00 0.  1.
     999901    1    3    3    0    0 -0.11274385366E-01  0.10238940363E+00 -0.60105483944E-01  0.88804468972E+00  0.88000000000E+00 0.  1.
        -11    1    4    4    0    0  0.11247963670E-01 -0.60728171252E-01  0.57298851085E-01  0.84248720626E-01  0.51100000000E-03 0. -1.
         11    1    4    4    0    0  0.14533952092E-01 -0.41489627453E-01  0.20705247273E-01  0.48596227582E-01  0.51100000000E-03 0.  1.
</event>
<event>
 8    1  0.1111182E+005  0.1043930E+01  0.7957747E-01            NaN
         13   -1    0    0    0    0  0.00000000000E+00  0.00000000000E+00  0.74505805969E-08  0.10566000000E+00  0.10566000000E+00 0.  1.
     999900   -1    0    0    0    0 -0.00000000000E+00 -0.00000000000E+00 -0.74505805969E-08  0.93827000000E+00  0.93827000000E+00 0.  1.
     999902    2    1    2    0    0 -0.61180825785E-02  0.19963019286E-01  0.14393753720E-01  0.10185699286E+01  0.10182541757E+01 0.  0.
     999903    2    3    3    0    0 -0.93160830541E-02  0.12925953413E+00 -0.10094009830E-01  0.13146474551E+00  0.19653847234E-01 0.  0.
         14    1    1    2    0    0  0.61180825785E-02 -0.19963019286E-01 -0.14393753720E-01  0.25360071365E-01  0.00000000000E+00 0. -1.
     999901    1    3    3    0    0  0.31980004756E-02 -0.10929651484E+00  0.24487763550E-01  0.88710518313E+00  0.88000000000E+00 0. -1.
        -11    1    4    4    0    0 -0.15150691967E-01  0.82318816243E-01 -0.43997110330E-02  0.83818551365E-01  0.51100000000E-03 0. -1.
         11    1    4    4    0    0  0.58346089128E-02  0.46940717886E-01 -0.56942987969E-02  0.47646194146E-01  0.51100000000E-03 0.  1.
</event>
<event>
 8    1  0.1111182E+005  0.1043930E+01  0.7957747E-01            NaN
         13   -1    0    0    0    0  0.00000000000E+00  0.00000000000E+00  0.74505805969E-08  0.10566000000E+00  0.10566000000E+00 0. -1.
     999900   -1    0    0    0    0 -0.00000000000E+00 -0.00000000000E+00 -0.74505805969E-08  0.93827000000E+00  0.93827000000E+00 0.  1.
     999902    2    1    2    0    0  0.78080999282E-02 -0.18959850575E-03 -0.28342982456E-01  0.10145305608E+01  0.10141044974E+01 0.  0.
     999903    2    3    3    0    0  0.76824679946E-01  0.92175981759E-01 -0.36745964263E-01  0.12696912694E+00  0.19298970024E-01 0.  0.
         14    1    1    2    0    0 -0.78080999282E-02  0.18959850575E-03  0.28342982456E-01  0.29399439222E-01  0.00000000000E+00 0. -1.
     999901    1    3    3    0    0 -0.69016580018E-01 -0.92365580265E-01  0.84029818072E-02  0.88756143384E+00  0.88000000000E+00 0. -1.
        -11    1    4    4    0    0  0.93012049771E-02  0.41796547611E-02 -0.61037446580E-02  0.11895324619E-01  0.51100000000E-03 0. -1.
         11    1    4    4    0    0  0.67523474969E-01  0.87996326998E-01 -0.30642219605E-01  0.11507380232E+00  0.51100000000E-03 0.  1.
</event>
<event>
 8    1  0.1111182E+005  0.1043930E+01  0.7957747E-01            NaN
         13   -1    0    0    0    0  0.00000000000E+00  0.00000000000E+00  0.74505805969E-08  0.10566000000E+00  0.10566000000E+00 0.  1.
     999900   -1    0    0    0    0 -0.00000000000E+00 -0.00000000000E+00 -0.74505805969E-08  0.93827000000E+00  0.93827000000E+00 0.  1.
     999902    2    1    2    0    0 -0.33208961199E-02 -0.15990690064E-01  0.17028611927E-01  0.10203354213E+01  0.10200625803E+01 0.  0.
     999903    2    3    3    0    0 -0.50763901997E-01 -0.88484974558E-01  0.83652474339E-01  0.13357446189E+00  0.20924529585E-01 0.  0.
         14    1    1    2    0    0  0.33208961199E-02  0.15990690064E-01 -0.17028611927E-01  0.23594578698E-01  0.00000000000E+00 0. -1.
     999901    1    3    3    0    0  0.47443005877E-01  0.72494284494E-01 -0.66623862412E-01  0.88676095941E+00  0.88000000000E+00 0.  1.
        -11    1    4    4    0    0 -0.34679694414E-01 -0.44026496242E-01  0.53594358377E-01  0.77547597944E-01  0.51100000000E-03 0. -1.
         11    1    4    4    0    0 -0.16084207583E-01 -0.44458478316E-01  0.30058115962E-01  0.56026863949E-01  0.51100000000E-03 0.  1.
</event>
<event>
 8    1  0.1111182E+005  0.1043930E+01  0.7957747E-01            NaN
         13   -1    0    0    0    0  0.00000000000E+00  0.00000000000E+00  0.74505805969E-08  0.10566000000E+00  0.10566000000E+00 0. -1.
     999900   -1    0    0    0    0 -0.00000000000E+00 -0.00000000000E+00 -0.74505805969E-08  0.93827000000E+00  0.93827000000E+00 0.  1.
     999902    2    1    2    0    0  0.10379099345E-01 -0.38791952658E-03  0.20178298215E-01  0.10212355094E+01  0.10209833132E+01 0.  0.
     999903    2    3    3    0    0  0.17688750894E-01  0.12143750195E+00  0.47829949033E-01  0.13238260924E+00  0.13322628072E-01 0.  0.
         14    1    1    2    0    0 -0.10379099345E-01  0.38791952658E-03 -0.20178298215E-01  0.22694490600E-01  0.00000000000E+00 0.  1.
     999901    1    3    3    0    0 -0.73096515487E-02 -0.12182542147E+00 -0.27651650819E-01  0.88885290016E+00  0.88000000000E+00 0.  1.
        -11    1    4    4    0    0  0.12441230850E-01  0.79407527365E-01  0.24528151891E-01  0.84037081003E-01  0.51100000000E-03 0.  1.
         11    1    4    4    0    0  0.52475200444E-02  0.42029974580E-01  0.23301797142E-01  0.48345528241E-01  0.51100000000E-03 0. -1.
</event>
<event>
 8    1  0.1111182E+005  0.1043930E+01  0.7957747E-01            NaN
         13   -1    0    0    0    0  0.00000000000E+00  0.00000000000E+00  0.74505805969E-08  0.10566000000E+00  0.10566000000E+00 0. -1.
     999900   -1    0    0    0    0 -0.00000000000E+00 -0.00000000000E+00 -0.74505805969E-08  0.93827000000E+00  0.93827000000E+00 0. -1.
     999902    2    1    2    0    0 -0.18188799355E-02  0.20485307787E-01  0.11153050554E-01  0.10205345582E+01  0.10202663563E+01 0.  0.
     999903    2    3    3    0    0 -0.98160398002E-02 -0.12114444619E+00  0.37582557823E-01  0.12878265291E+00  0.20004788355E-01 0.  0.
         14    1    1    2    0    0  0.18188799355E-02 -0.20485307787E-01 -0.11153050554E-01  0.23395441778E-01  0.00000000000E+00 0.  1.
     999901    1    3    3    0    0  0.79971598647E-02  0.14162975398E+00 -0.26429507269E-01  0.89175190531E+00  0.88000000000E+00 0. -1.
        -11    1    4    4    0    0 -0.14730667217E-01 -0.65020083974E-01  0.23690141567E-01  0.70753712307E-01  0.51100000000E-03 0. -1.
         11    1    4    4    0    0  0.49146274165E-02 -0.56124362216E-01  0.13892416255E-01  0.58028940601E-01  0.51100000000E-03 0.  1.
</event>
<event>
 8    1  0.1111182E+005  0.1043930E+01  0.7957747E-01            NaN
         13   -1    0    0    0    0  0.00000000000E+00  0.00000000000E+00  0.74505805969E-08  0.10566000000E+00  0.10566000000E+00 0.  1.
     999900   -1    0    0    0    0 -0.00000000000E+00 -0.00000000000E+00 -0.74505805969E-08  0.93827000000E+00  0.93827000000E+00 0.  1.
     999902    2    1    2    0    0 -0.22409808494E-01  0.54309946689E-02  0.49953961599E-03  0.10208660723E+01  0.10206055031E+01 0.  0.
     999903    2    3    3    0    0 -0.62434424944E-01  0.22757209725E-01 -0.11275244275E+00  0.13253720352E+00  0.20905715934E-01 0.  0.
         14    1    1    2    0    0  0.22409808494E-01 -0.54309946689E-02 -0.49953961599E-03  0.23063927672E-01  0.00000000000E+00 0. -1.
     999901    1    3    3    0    0  0.40024616450E-01 -0.17326215056E-01  0.11325198236E+00  0.88832886881E+00  0.88000000000E+00 0. -1.
        -11    1    4    4    0    0 -0.77008914496E-02  0.71326790325E-02 -0.76096109521E-02  0.12974827133E-01  0.51100000000E-03 0.  1.
         11    1    4    4    0    0 -0.54733533495E-01  0.15624530692E-01 -0.10514283179E+00  0.11956237639E+00  0.51100000000E-03 0. -1.
</event>
<event>
 7    1  0.1111182E+005  0.1043930E+01  0.7957747E-01            NaN
         13   -1    0    0    0    0  0.00000000000E+00  0.00000000000E+00  0.74505805969E-08  0.10566000000E+00  0.10566000000E+00 0.  1.
     999900   -1    0    0    0    0 -0.00000000000E+00 -0.00000000000E+00 -0.74505805969E-08  0.93827000000E+00  0.93827000000E+00 0.  1.
     999903    2    1    2    0    0 -0.58096701035E-01 -0.11140893234E-01 -0.92415654300E-01  0.11146190133E+00  0.19589694108E-01 0.  0.
         14    1    1    2    0    0  0.42136190727E-03 -0.42259740253E-01  0.17675066426E-01  0.45809072958E-01  0.00000000000E+00 0. -1.
     999901    1    1    2    0    0  0.57675339128E-01  0.53400633487E-01  0.74740587875E-01  0.88665902571E+00  0.88000000000E+00 0. -1.
        -11    1    3    3    0    0 -0.21647934271E-01 -0.36263547647E-02 -0.52396317337E-01  0.56810374920E-01  0.51100000000E-03 0. -1.
         11    1    3    3    0    0 -0.36448766764E-01 -0.75145384691E-02 -0.40019336964E-01  0.54651526411E-01  0.51100000000E-03 0.  1.
</event>
<event>
 8    1  0.1111182E+005  0.1043930E+01  0.7957747E-01            NaN
         13   -1    0    0    0    0  0.00000000000E+00  0.00000000000E+00  0.74505805969E-08  0.10566000000E+00  0.10566000000E+00 0.  1.
     999900   -1    0    0    0    0 -0.00000000000E+00 -0.00000000000E+00 -0.74505805969E-08  0.93827000000E+00  0.93827000000E+00 0.  1.
     999902    2    1    2    0    0 -0.12352927386E-01  0.20589139666E-01 -0.33589023683E-02  0.10196856251E+01  0.10193973634E+01 0.  0.
     999903    2    3    3    0    0  0.27790957768E-01 -0.46633161938E-01  0.11458507257E+00  0.12837134243E+00  0.20061744036E-01 0.  0.
         14    1    1    2    0    0  0.12352927386E-01 -0.20589139666E-01  0.33589023683E-02  0.24244374859E-01  0.00000000000E+00 0.  1.
     999901    1    3    3    0    0 -0.40143885154E-01  0.67222301604E-01 -0.11794397494E+00  0.89131428272E+00  0.88000000000E+00 0. -1.
        -11    1    4    4    0    0  0.37708762206E-02 -0.16870476984E-01  0.54190524804E-01  0.56883271712E-01  0.51100000000E-03 0. -1.
         11    1    4    4    0    0  0.24020081547E-01 -0.29762684953E-01  0.60394547768E-01  0.71488070713E-01  0.51100000000E-03 0.  1.
</event>
<event>
 8    1  0.1111182E+005  0.1043930E+01  0.7957747E-01            NaN
         13   -1    0    0    0    0  0.00000000000E+00  0.00000000000E+00  0.74505805969E-08  0.10566000000E+00  0.10566000000E+00 0. -1.
     999900   -1    0    0    0    0 -0.00000000000E+00 -0.00000000000E+00 -0.74505805969E-08  0.93827000000E+00  0.93827000000E+00 0. -1.
     999902    2    1    2    0    0  0.24060406282E-01  0.24028530198E-02  0.10654083449E-01  0.10175067839E+01  0.10171636392E+01 0.  0.
     999903    2    3    3    0    0  0.48370370864E-01 -0.13470653122E-01  0.11846691957E+00  0.13045179680E+00  0.21496720273E-01 0.  0.
         14    1    1    2    0    0 -0.24060406282E-01 -0.24028530198E-02 -0.10654083449E-01  0.26423216065E-01  0.00000000000E+00 0. -1.
     999901    1    3    3    0    0 -0.24309964582E-01  0.15873506142E-01 -0.10781283612E+00  0.88705498714E+00  0.88000000000E+00 0. -1.
        -11    1    4    4    0    0  0.45777831290E-01 -0.11525040637E-01  0.88486787580E-01  0.10029261736E+00  0.51100000000E-03 0.  1.
         11    1    4    4    0    0  0.25925395736E-02 -0.19456124851E-02  0.29980131988E-01  0.30159179439E-01  0.51100000000E-03 0. -1.
</event>
<event>
 8    1  0.1111182E+005  0.1043930E+01  0.7957747E-01            NaN
         13   -1    0    0    0    0  0.00000000000E+00  0.00000000000E+00  0.74505805969E-08  0.10566000000E+00  0.10566000000E+00 0.  1.
     999900   -1    0    0    0    0 -0.00000000000E+00 -0.00000000000E+00 -0.74505805969E-08  0.93827000000E+00  0.93827000000E+00 0. -1.
     999902    2    1    2    0    0 -0.16873138132E-01  0.13140610940E-01 -0.10362169683E-01  0.10201654675E+01  0.10198886351E+01 0.  0.
     999903    2    3    3    0    0  0.68084981084E-01 -0.97893843553E-01  0.40722425790E-01  0.12766551340E+00  0.20527983202E-01 0.  0.
         14    1    1    2    0    0  0.16873138132E-01 -0.13140610940E-01  0.10362169683E-01  0.23764532539E-01  0.00000000000E+00 0. -1.
     999901    1    3    3    0    0 -0.84958119216E-01  0.11103445449E+00 -0.51084595473E-01  0.89249995406E+00  0.88000000000E+00 0.  1.
        -11    1    4    4    0    0  0.33947821520E-01 -0.35659997221E-01  0.23822619771E-01  0.54697973651E-01  0.51100000000E-03 0.  1.
         11    1    4    4    0    0  0.34137159564E-01 -0.62233846332E-01  0.16899806018E-01  0.72967539748E-01  0.51100000000E-03 0. -1.
</event>
<event>
 8    1  0.1111182E+005  0.1043930E+01  0.7957747E-01            NaN
         13   -1    0    0    0    0  0.00000000000E+00  0.00000000000E+00  0.74505805969E-08  0.10566000000E+00  0.10566000000E+00 0. -1.
     999900   -1    0    0    0    0 -0.00000000000E+00 -0.00000000000E+00 -0.74505805969E-08  0.93827000000E+00  0.93827000000E+00 0. -1.
     999902    2    1    2    0    0 -0.10254144087E-01 -0.69136641560E-02  0.21722152545E-01  0.10189340376E+01  0.10186273975E+01 0.  0.
     999903    2    3    3    0    0  0.14927072613E-01 -0.12390462790E+00 -0.24889883530E-01  0.12961201431E+00  0.24588485907E-01 0.  0.
         14    1    1    2    0    0  0.10254144087E-01  0.69136641560E-02 -0.21722152545E-01  0.24995962358E-01  0.00000000000E+00 0.  1.
     999901    1    3    3    0    0 -0.25181216700E-01  0.11699096375E+00  0.46612036075E-01  0.88932202333E+00  0.88000000000E+00 0. -1.
        -11    1    4    4    0    0  0.11814099136E-01 -0.56358385790E-01 -0.83662959874E-04  0.57585664082E-01  0.51100000000E-03 0. -1.
         11    1    4    4    0    0  0.31129734770E-02 -0.67546242112E-01 -0.24806220570E-01  0.72026350229E-01  0.51100000000E-03 0.  1.
</event>
<event>
 8    1  0.1111182E+005  0.1043930E+01  0.7957747E-01            NaN
         13   -1    0    0    0    0  0.00000000000E+00  0.00000000000E+00  0.74505805969E-08  0.10566000000E+00  0.10566000000E+00 0.  1.
     999900   -1    0    0    0    0 -0.00000000000E+00 -0.00000000000E+00 -0.74505805969E-08  0.93827000000E+00  0.93827000000E+00 0.  1.
     999902    2    1    2    0    0  0.17534361101E-01  0.70322028347E-04 -0.54149985116E-02  0.10255784068E+01  0.10254142029E+01 0.  0.
     999903    2    3    3    0    0  0.13166684643E+00 -0.30421396779E-01 -0.16045966569E-01  0.13762064507E+00  0.20502416323E-01 0.  0.
         14    1    1    2    0    0 -0.17534361101E-01 -0.70322028347E-04  0.54149985116E-02  0.18351593208E-01  0.00000000000E+00 0.  1.
     999901    1    3    3    0    0 -0.11413248533E+00  0.30491718807E-01  0.10630968057E-01  0.88795776172E+00  0.88000000000E+00 0. -1.
        -11    1    4    4    0    0  0.74188822918E-01 -0.20039500466E-01  0.71634900846E-03  0.76852698728E-01  0.51100000000E-03 0. -1.
         11    1    4    4    0    0  0.57478023512E-01 -0.10381896313E-01 -0.16762315577E-01  0.60767946340E-01  0.51100000000E-03 0.  1.
</event>
<event>
 8    1  0.1314608E+005  0.1043930E+01  0.7957747E-01            NaN
         13   -1    0    0    0    0  0.00000000000E+00  0.00000000000E+00  0.74505805969E-08  0.10566000000E+00  0.10566000000E+00 0.  1.
     999900   -1    0    0    0    0 -0.00000000000E+00 -0.00000000000E+00 -0.74505805969E-08  0.93827000000E+00  0.93827000000E+00 0. -1.
     999902    2    1    2    0    0 -0.53151142177E-02  0.18466310621E-01 -0.13611341680E-01  0.10203816733E+01  0.10201099135E+01 0.  0.
     999903    2    3    3    0    0 -0.17184271823E-02  0.12871141434E+00  0.25522788033E-01  0.13263261015E+00  0.19246178688E-01 0.  0.
         14    1    1    2    0    0  0.53151142177E-02 -0.18466310621E-01  0.13611341680E-01  0.23548326680E-01  0.00000000000E+00 0.  1.
     999901    1    3    3    0    0 -0.35966870355E-02 -0.11024510371E+00 -0.39134129713E-01  0.88774906317E+00  0.88000000000E+00 0.  1.
        -11    1    4    4    0    0  0.73738282496E-02  0.87253285961E-01  0.14281496947E-01  0.88722779094E-01  0.51100000000E-03 0. -1.
         11    1    4    4    0    0 -0.90922554319E-02  0.41458128374E-01  0.11241291086E-01  0.43909831056E-01  0.51100000000E-03 0.  1.
</event>
<event>
 8    1  0.1111182E+005  0.1043930E+01  0.7957747E-01            NaN
         13   -1    0    0    0    0  0.00000000000E+00  0.00000000000E+00  0.74505805969E-08  0.10566000000E+00  0.10566000000E+00 0. -1.
     999900   -1    0    0    0    0 -0.00000000000E+00 -0.00000000000E+00 -0.74505805969E-08  0.93827000000E+00  0.93827000000E+00 0. -1.
     999902    2    1    2    0    0 -0.11748855249E-01  0.16913708755E-01 -0.12746969374E-01  0.10197102896E+01  0.10194226211E+01 0.  0.
     999903    2    3    3    0    0 -0.94763015210E-01  0.89657232956E-01 -0.14962939784E-01  0.13281239154E+00  0.19919671327E-01 0.  0.
         14    1    1    2    0    0  0.11748855249E-01 -0.16913708755E-01  0.12746969374E-01  0.24219710398E-01  0.00000000000E+00 0. -1.
     999901    1    3    3    0    0  0.83014159961E-01 -0.72743524201E-01  0.22159704093E-02  0.88689789806E+00  0.88000000000E+00 0.  1.
        -11    1    4    4    0    0 -0.29219140716E-01  0.35510930493E-01 -0.12918899596E-01  0.47769691818E-01  0.51100000000E-03 0.  1.
         11    1    4    4    0    0 -0.65543874494E-01  0.54146302464E-01 -0.20440401871E-02  0.85042699719E-01  0.51100000000E-03 0. -1.
</event>
<event>
 8    1  0.1111182E+005  0.1043930E+01  0.7957747E-01            NaN
         13   -1    0    0    0    0  0.00000000000E+00  0.00000000000E+00  0.74505805969E-08  0.10566000000E+00  0.10566000000E+00 0. -1.
     999900   -1    0    0    0    0 -0.00000000000E+00 -0.00000000000E+00 -0.74505805969E-08  0.93827000000E+00  0.93827000000E+00 0.  1.
     999902    2    1    2    0    0 -0.23687138020E-01 -0.41998445897E-03 -0.76424018399E-03  0.10202268155E+01  0.10199514273E+01 0.  0.
     999903    2    3    3    0    0 -0.59441914438E-01 -0.71883003622E-02  0.11573254970E+00  0.13180365266E+00  0.19828437678E-01 0.  0.
         14    1    1    2    0    0  0.23687138020E-01  0.41998445897E-03  0.76424018399E-03  0.23703184545E-01  0.00000000000E+00 0.  1.
     999901    1    3    3    0    0  0.35754776418E-01  0.67683159033E-02 -0.11649678988E+00  0.88842316279E+00  0.88000000000E+00 0.  1.
        -11    1    4    4    0    0 -0.40132248270E-01 -0.79406235497E-02  0.58443954706E-01  0.71341487342E-01  0.51100000000E-03 0. -1.
         11    1    4    4    0    0 -0.19309666167E-01  0.75232318749E-03  0.57288594993E-01  0.60462165318E-01  0.51100000000E-03 0.  1.
</event>
<event>
 8    1  0.1111182E+005  0.1043930E+01  0.7957747E-01            NaN
         13   -1    0    0    0    0  0.00000000000E+00  0.00000000000E+00  0.74505805969E-08  0.10566000000E+00  0.10566000000E+00 0. -1.
     999900   -1    0    0    0    0 -0.00000000000E+00 -0.00000000000E+00 -0.74505805969E-08  0.93827000000E+00  0.93827000000E+00 0. -1.
     999902    2    1    2    0    0  0.21923348248E-01  0.29249903706E-02 -0.42068439802E-02  0.10214158644E+01  0.10211677050E+01 0.  0.
     999903    2    3    3    0    0  0.24654723792E-01  0.10845767746E+00 -0.69833677243E-01  0.13267997013E+00  0.18876143449E-01 0.  0.
         14    1    1    2    0    0 -0.21923348248E-01 -0.29249903706E-02  0.42068439802E-02  0.22514135634E-01  0.00000000000E+00 0. -1.
     999901    1    3    3    0    0 -0.27313755438E-02 -0.10553268709E+00  0.65626833263E-01  0.88873589423E+00  0.88000000000E+00 0.  1.
        -11    1    4    4    0    0  0.18932574082E-01  0.51619771944E-01 -0.41650589946E-01  0.68978808200E-01  0.51100000000E-03 0. -1.
         11    1    4    4    0    0  0.57221497101E-02  0.56837905517E-01 -0.28183087298E-01  0.63701161932E-01  0.51100000000E-03 0.  1.
</event>
<event>
 8    1  0.1111182E+005  0.1043930E+01  0.7957747E-01            NaN
         13   -1    0    0    0    0  0.00000000000E+00  0.00000000000E+00  0.74505805969E-08  0.10566000000E+00  0.10566000000E+00 0.  1.
     999900   -1    0    0    0    0 -0.00000000000E+00 -0.00000000000E+00 -0.74505805969E-08  0.93827000000E+00  0.93827000000E+00 0.  1.
     999902    2    1    2    0    0  0.10815333656E-01 -0.11412993126E-01 -0.18882006251E-01  0.10193585122E+01  0.10190623231E+01 0.  0.
     999903    2    3    3    0    0  0.10318165532E+00  0.40888903344E-01 -0.68090050666E-01  0.13161504844E+00  0.19180968872E-01 0.  0.
         14    1    1    2    0    0 -0.10815333656E-01  0.11412993126E-01  0.18882006251E-01  0.24571487832E-01  0.00000000000E+00 0.  1.
     999901    1    3    3    0    0 -0.92366321660E-01 -0.52301896470E-01  0.49208044414E-01  0.88774346372E+00  0.88000000000E+00 0. -1.
        -11    1    4    4    0    0  0.49710578569E-01  0.10002091871E-01 -0.27103836576E-01  0.57498369904E-01  0.51100000000E-03 0. -1.
         11    1    4    4    0    0  0.53471076746E-01  0.30886811472E-01 -0.40986214089E-01  0.74116678539E-01  0.51100000000E-03 0.  1.
</event>
<event>
 8    1  0.1111182E+005  0.1043930E+01  0.7957747E-01            NaN
         13   -1    0    0    0    0  0.00000000000E+00  0.00000000000E+00  0.74505805969E-08  0.10566000000E+00  0.10566000000E+00 0. -1.
     999900   -1    0    0    0    0 -0.00000000000E+00 -0.00000000000E+00 -0.74505805969E-08  0.93827000000E+00  0.93827000000E+00 0.  1.
     999902    2    1    2    0    0  0.23506564164E-01  0.20266707863E-02  0.10959037465E-01  0.10179152646E+01  0.10175827827E+01 0.  0.
     999903    2    3    3    0    0 -0.55905950118E-01 -0.98683642839E-01 -0.52251975454E-01  0.12637471770E+00  0.19400095683E-01 0.  0.
         14    1    1    2    0    0 -0.23506564164E-01 -0.20266707863E-02 -0.10959037465E-01  0.26014735352E-01  0.00000000000E+00 0.  1.
     999901    1    3    3    0    0  0.79412514283E-01  0.10071031363E+00  0.63211012919E-01  0.89154054695E+00  0.88000000000E+00 0. -1.
        -11    1    4    4    0    0 -0.47941149966E-01 -0.71349265525E-01 -0.44824667786E-01  0.96946291905E-01  0.51100000000E-03 0. -1.
         11    1    4    4    0    0 -0.79648001518E-02 -0.27334377315E-01 -0.74273076683E-02  0.29428425796E-01  0.51100000000E-03 0.  1.
</event>
<event>
 8    1  0.1111182E+005  0.1043930E+01  0.7957747E-01            NaN
         13   -1    0    0    0    0  0.00000000000E+00  0.00000000000E+00  0.74505805969E-08  0.10566000000E+00  0.10566000000E+00 0. -1.
     999900   -1    0    0    0    0 -0.00000000000E+00 -0.00000000000E+00 -0.74505805969E-08  0.93827000000E+00  0.93827000000E+00 0. -1.
     999902    2    1    2    0    0  0.14800163337E-01 -0.12008330895E-01 -0.13841545243E-01  0.10203751020E+01  0.10201031887E+01 0.  0.
     999903    2    3    3    0    0  0.12241229970E+00 -0.40821624039E-01  0.21635279676E-01  0.13264249424E+00  0.21789213953E-01 0.  0.
         14    1    1    2    0    0 -0.14800163337E-01  0.12008330895E-01  0.13841545243E-01  0.23554898013E-01  0.00000000000E+00 0. -1.
     999901    1    3    3    0    0 -0.10761213636E+00  0.28813293144E-01 -0.35476824919E-01  0.88773260775E+00  0.88000000000E+00 0. -1.
        -11    1    4    4    0    0  0.11806129238E+00 -0.36019368819E-01  0.16869102388E-01  0.12458206703E+00  0.51100000000E-03 0. -1.
         11    1    4    4    0    0  0.43510073164E-02 -0.48022552199E-02  0.47661772871E-02  0.80604272093E-02  0.51100000000E-03 0.  1.
</event>
<event>
 8    1  0.1111182E+005  0.1043930E+01  0.7957747E-01            NaN
         13   -1    0    0    0    0  0.00000000000E+00  0.00000000000E+00  0.74505805969E-08  0.10566000000E+00  0.10566000000E+00 0.  1.
     999900   -1    0    0    0    0 -0.00000000000E+00 -0.00000000000E+00 -0.74505805969E-08  0.93827000000E+00  0.93827000000E+00 0.  1.
     999902    2    1    2    0    0  0.18579736917E-01  0.40864841439E-02  0.14358152277E-01  0.10200959380E+01  0.10198174641E+01 0.  0.
     999903    2    3    3    0    0 -0.53709535266E-01  0.84821442252E-01  0.81574217821E-01  0.13090424220E+00  0.20054335426E-01 0.  0.
         14    1    1    2    0    0 -0.18579736917E-01 -0.40864841439E-02 -0.14358152277E-01  0.23834062041E-01  0.00000000000E+00 0. -1.
     999901    1    3    3    0    0  0.72289272184E-01 -0.80734958108E-01 -0.67216065544E-01  0.88919169576E+00  0.88000000000E+00 0.  1.
        -11    1    4    4    0    0 -0.41840577438E-01  0.58488604258E-01  0.68044307059E-01  0.99004240276E-01  0.51100000000E-03 0. -1.
         11    1    4    4    0    0 -0.11868957828E-01  0.26332837993E-01  0.13529910763E-01  0.31900001927E-01  0.51100000000E-03 0.  1.
</event>
<event>
 8    1  0.1111182E+005  0.1043930E+01  0.7957747E-01            NaN
         13   -1    0    0    0    0  0.00000000000E+00  0.00000000000E+00  0.74505805969E-08  0.10566000000E+00  0.10566000000E+00 0. -1.
     999900   -1    0    0    0    0 -0.00000000000E+00 -0.00000000000E+00 -0.74505805969E-08  0.93827000000E+00  0.93827000000E+00 0. -1.
     999902    2    1    2    0    0  0.76452703393E-02 -0.15451391413E-01 -0.16325680893E-01  0.10201871377E+01  0.10199108159E+01 0.  0.
     999903    2    3    3    0    0  0.42050878361E-01  0.31709895149E-01 -0.11975693320E+00  0.13220855866E+00  0.19067934129E-01 0.  0.
         14    1    1    2    0    0 -0.76452703393E-02  0.15451391413E-01  0.16325680893E-01  0.23742862333E-01  0.00000000000E+00 0. -1.
     999901    1    3    3    0    0 -0.34405608022E-01 -0.47161286562E-01  0.10343125231E+00  0.88797857900E+00  0.88000000000E+00 0.  1.
        -11    1    4    4    0    0  0.99070304506E-02 -0.12153878992E-02 -0.21667295085E-01  0.23861249284E-01  0.51100000000E-03 0.  1.
         11    1    4    4    0    0  0.32143847911E-01  0.32925283048E-01 -0.98089638120E-01  0.10834730938E+00  0.51100000000E-03 0. -1.
</event>
<event>
 8    1  0.1111182E+005  0.1043930E+01  0.7957747E-01            NaN
         13   -1    0    0    0    0  0.00000000000E+00  0.00000000000E+00  0.74505805969E-08  0.10566000000E+00  0.10566000000E+00 0. -1.
     999900   -1    0    0    0    0 -0.00000000000E+00 -0.00000000000E+00 -0.74505805969E-08  0.93827000000E+00  0.93827000000E+00 0. -1.
     999902    2    1    2    0    0 -0.75487414562E-02 -0.12531216951E-01  0.19073273533E-01  0.10198924323E+01  0.10196091255E+01 0.  0.
     999903    2    3    3    0    0 -0.10082653226E+00  0.64685678526E-01 -0.44193568793E-01  0.12934996365E+00  0.20690939029E-01 0.  0.
         14    1    1    2    0    0  0.75487414562E-02  0.12531216951E-01 -0.19073273533E-01  0.24037567662E-01  0.00000000000E+00 0.  1.
     999901    1    3    3    0    0  0.93277790808E-01 -0.77216895477E-01  0.63266842326E-01  0.89054246869E+00  0.88000000000E+00 0. -1.
        -11    1    4    4    0    0 -0.33215126210E-01  0.24155748915E-01 -0.25460152131E-01  0.48324168718E-01  0.51100000000E-03 0.  1.
         11    1    4    4    0    0 -0.67611406054E-01  0.40529929612E-01 -0.18733416662E-01  0.81025794928E-01  0.51100000000E-03 0. -1.
</event>
<event>
 8    1  0.1111182E+005  0.1043930E+01  0.7957747E-01            NaN
         13   -1    0    0    0    0  0.00000000000E+00  0.00000000000E+00  0.74505805969E-08  0.10566000000E+00  0.10566000000E+00 0.  1.
     999900   -1    0    0    0    0 -0.00000000000E+00 -0.00000000000E+00 -0.74505805969E-08  0.93827000000E+00  0.93827000000E+00 0. -1.
     999902    2    1    2    0    0 -0.74315686078E-02 -0.13616109748E-03 -0.23500254269E-01  0.10192823084E+01  0.10189842567E+01 0.  0.
     999903    2    3    3    0    0  0.48055668108E-01 -0.73558554147E-01  0.89969137921E-01  0.12723691480E+00  0.19354032734E-01 0.  0.
         14    1    1    2    0    0  0.74315686078E-02  0.13616109748E-03  0.23500254269E-01  0.24647691626E-01  0.00000000000E+00 0.  1.
     999901    1    3    3    0    0 -0.55487236716E-01  0.73422393049E-01 -0.11346939219E+00  0.89204539358E+00  0.88000000000E+00 0. -1.
        -11    1    4    4    0    0  0.20320670376E-01 -0.48376478457E-01  0.54170466237E-01  0.75418259366E-01  0.51100000000E-03 0. -1.
         11    1    4    4    0    0  0.27734997733E-01 -0.25182075690E-01  0.35798671683E-01  0.51818655430E-01  0.51100000000E-03 0.  1.
</event>
<event>
 8    1  0.1111182E+005  0.1043930E+01  0.7957747E-01            NaN
         13   -1    0    0    0    0  0.00000000000E+00  0.00000000000E+00  0.74505805969E-08  0.10566000000E+00  0.10566000000E+00 0. -1.
     999900   -1    0    0    0    0 -0.00000000000E+00 -0.00000000000E+00 -0.74505805969E-08  0.93827000000E+00  0.93827000000E+00 0. -1.
     999902    2    1    2    0    0 -0.15913075957E-01  0.36861981926E-03 -0.16968458444E-01  0.10206643505E+01  0.10203991503E+01 0.  0.
     999903    2    3    3    0    0  0.63307649662E-03  0.10781438703E+00  0.69539684964E-01  0.12976478993E+00  0.19462530311E-01 0.  0.
         14    1    1    2    0    0  0.15913075957E-01 -0.36861981926E-03  0.16968458444E-01  0.23265649549E-01  0.00000000000E+00 0.  1.
     999901    1    3    3    0    0 -0.16546152453E-01 -0.10744576721E+00 -0.86508143408E-01  0.89089956052E+00  0.88000000000E+00 0. -1.
        -11    1    4    4    0    0 -0.76477175145E-02  0.83833379249E-01  0.53338329232E-01  0.99658223673E-01  0.51100000000E-03 0.  1.
         11    1    4    4    0    0  0.82807940111E-02  0.23981007778E-01  0.16201355732E-01  0.30106566261E-01  0.51100000000E-03 0. -1.
</event>
<event>
 8    1  0.1111182E+005  0.1043930E+01  0.7957747E-01            NaN
         13   -1    0    0    0    0  0.00000000000E+00  0.00000000000E+00  0.74505805969E-08  0.10566000000E+00  0.10566000000E+00 0. -1.
     999900   -1    0    0    0    0 -0.00000000000E+00 -0.00000000000E+00 -0.74505805969E-08  0.93827000000E+00  0.93827000000E+00 0. -1.
     999902    2    1    2    0    0  0.59161886324E-02 -0.21249822534E-01  0.68483458043E-02  0.10208333317E+01  0.10205720137E+01 0.  0.
     999903    2    3    3    0    0 -0.45165272510E-02 -0.88922016453E-01  0.97230695849E-01  0.13355810013E+00  0.21364312893E-01 0.  0.
         14    1    1    2    0    0 -0.59161886324E-02  0.21249822534E-01 -0.68483458043E-02  0.23096668286E-01  0.00000000000E+00 0.  1.
     999901    1    3    3    0    0  0.10432715883E-01  0.67672193920E-01 -0.90382350045E-01  0.88727523159E+00  0.88000000000E+00 0. -1.
        -11    1    4    4    0    0  0.53915547714E-02 -0.24747792088E-01  0.37971712006E-01  0.45646841180E-01  0.51100000000E-03 0. -1.
         11    1    4    4    0    0 -0.99080820224E-02 -0.64174224365E-01  0.59258983843E-01  0.87911258946E-01  0.51100000000E-03 0.  1.
</event>
<event>
 8    1  0.1111182E+005  0.1043930E+01  0.7957747E-01            NaN
         13   -1    0    0    0    0  0.00000000000E+00  0.00000000000E+00  0.74505805969E-08  0.10566000000E+00  0.10566000000E+00 0. -1.
     999900   -1    0    0    0    0 -0.00000000000E+00 -0.00000000000E+00 -0.74505805969E-08  0.93827000000E+00  0.93827000000E+00 0.  1.
     999902    2    1    2    0    0 -0.12788425610E-01  0.13116776283E-01 -0.96167921284E-02  0.10232399942E+01  0.10230307959E+01 0.  0.
     999903    2    3    3    0    0  0.48451037560E-02 -0.49914995261E-01 -0.12229292468E+00  0.13364466123E+00  0.19757385111E-01 0.  0.
         14    1    1    2    0    0  0.12788425610E-01 -0.13116776283E-01  0.96167921284E-02  0.20690005811E-01  0.00000000000E+00 0. -1.
     999901    1    3    3    0    0 -0.17633529366E-01  0.63031771543E-01  0.11267613255E+00  0.88959533296E+00  0.88000000000E+00 0. -1.
        -11    1    4    4    0    0  0.34636881117E-02 -0.40696319897E-01 -0.74638322866E-01  0.85084240313E-01  0.51100000000E-03 0.  1.
         11    1    4    4    0    0  0.13814156443E-02 -0.92186753641E-02 -0.47654601810E-01  0.48560420914E-01  0.51100000000E-03 0. -1.
</event>
<event>
 8    1  0.1111182E+005  0.1043930E+01  0.7957747E-01            NaN
         13   -1    0    0    0    0  0.00000000000E+00  0.00000000000E+00  0.74505805969E-08  0.10566000000E+00  0.10566000000E+00 0. -1.
     999900   -1    0    0    0    0 -0.00000000000E+00 -0.00000000000E+00 -0.74505805969E-08  0.93827000000E+00  0.93827000000E+00 0.  1.
     999902    2    1    2    0    0 -0.75637452329E-02 -0.14566454254E-01 -0.16479554709E-01  0.10206712908E+01  0.10204062506E+01 0.  0.
     999903    2    3    3    0    0  0.10956008313E+00 -0.19398202312E-02  0.65380527592E-01  0.12905562462E+00  0.19327859184E-01 0.  0.
         14    1    1    2    0    0  0.75637452329E-02  0.14566454254E-01  0.16479554709E-01  0.23258709226E-01  0.00000000000E+00 0. -1.
     999901    1    3    3    0    0 -0.11712382836E+00 -0.12626634022E-01 -0.81860082301E-01  0.89161566615E+00  0.88000000000E+00 0.  1.
        -11    1    4    4    0    0  0.53434888749E-01  0.81515153842E-02  0.28092306468E-01  0.60919400378E-01  0.51100000000E-03 0.  1.
         11    1    4    4    0    0  0.56125194377E-01 -0.10091335615E-01  0.37288221125E-01  0.68136224242E-01  0.51100000000E-03 0. -1.
</event>
<event>
 8    1  0.1111182E+005  0.1043930E+01  0.7957747E-01            NaN
         13   -1    0    0    0    0  0.00000000000E+00  0.00000000000E+00  0.74505805969E-08  0.10566000000E+00  0.10566000000E+00 0.  1.
     999900   -1    0    0    0    0 -0.00000000000E+00 -0.00000000000E+00 -0.74505805969E-08  0.93827000000E+00  0.93827000000E+00 0. -1.
     999902    2    1    2    0    0 -0.14304582141E-01  0.15889368975E-01 -0.57588695410E-03  0.10225425092E+01  0.10223188144E+01 0.  0.
     999903    2    3    3    0    0 -0.94019574902E-02 -0.10157996696E+00 -0.79947214041E-01  0.13118237538E+00  0.20257642622E-01 0.  0.
         14    1    1    2    0    0  0.14304582141E-01 -0.15889368975E-01  0.57588695410E-03  0.21387490793E-01  0.00000000000E+00 0. -1.
     999901    1    3    3    0    0 -0.49026246505E-02  0.11746933594E+00  0.79371327087E-01  0.89136013383E+00  0.88000000000E+00 0.  1.
        -11    1    4    4    0    0 -0.11071646508E-01 -0.94353272041E-01 -0.66996513074E-01  0.11624936639E+00  0.51100000000E-03 0.  1.
         11    1    4    4    0    0  0.16696890180E-02 -0.72266949201E-02 -0.12950700967E-01  0.14933008988E-01  0.51100000000E-03 0. -1.
</event>
<event>
 8    1  0.1111182E+005  0.1043930E+01  0.7957747E-01            NaN
         13   -1    0    0    0    0  0.00000000000E+00  0.00000000000E+00  0.74505805969E-08  0.10566000000E+00  0.10566000000E+00 0. -1.
     999900   -1    0    0    0    0 -0.00000000000E+00 -0.00000000000E+00 -0.74505805969E-08  0.93827000000E+00  0.93827000000E+00 0.  1.
     999902    2    1    2    0    0  0.12724901525E-01  0.11016789388E-01 -0.16564338881E-01  0.10203149605E+01  0.10200416406E+01 0.  0.
     999903    2    3    3    0    0  0.16771160869E-01  0.19791826849E-02  0.12605570582E+00  0.12877778928E+00  0.20211111800E-01 0.  0.
         14    1    1    2    0    0 -0.12724901525E-01 -0.11016789388E-01  0.16564338881E-01  0.23615039483E-01  0.00000000000E+00 0. -1.
     999901    1    3    3    0    0 -0.40462593439E-02  0.90376067028E-02 -0.14262004470E+00  0.89153717124E+00  0.88000000000E+00 0.  1.
        -11    1    4    4    0    0 -0.16491681362E-03 -0.56013117188E-02  0.56786885537E-01  0.57064992601E-01  0.51100000000E-03 0. -1.
         11    1    4    4    0    0  0.16936077683E-01  0.75804944036E-02  0.69268820284E-01  0.71712796677E-01  0.51100000000E-03 0.  1.
</event>
<event>
 8    1  0.1111182E+005  0.1043930E+01  0.7957747E-01            NaN
         13   -1    0    0    0    0  0.00000000000E+00  0.00000000000E+00  0.74505805969E-08  0.10566000000E+00  0.10566000000E+00 0. -1.
     999900   -1    0    0    0    0 -0.00000000000E+00 -0.00000000000E+00 -0.74505805969E-08  0.93827000000E+00  0.93827000000E+00 0.  1.
     999902    2    1    2    0    0 -0.24524176944E-01 -0.25932011230E-02  0.58780456996E-02  0.10185782472E+01  0.10182627040E+01 0.  0.
     999903    2    3    3    0    0 -0.80867620577E-01 -0.63718073402E-01  0.79522369094E-01  0.13159779648E+00  0.19864740562E-01 0.  0.
         14    1    1    2    0    0  0.24524176944E-01  0.25932011230E-02 -0.58780456996E-02  0.25351752761E-01  0.00000000000E+00 0.  1.
     999901    1    3    3    0    0  0.56343443633E-01  0.61124872279E-01 -0.73644323394E-01  0.88698045075E+00  0.88000000000E+00 0.  1.
        -11    1    4    4    0    0 -0.46168260115E-01 -0.32895189683E-01  0.31689022949E-01  0.64946570677E-01  0.51100000000E-03 0.  1.
         11    1    4    4    0    0 -0.34699360462E-01 -0.30822883719E-01  0.47833346145E-01  0.66651225807E-01  0.51100000000E-03 0. -1.
</event>
<event>
 8    1  0.1111182E+005  0.1043930E+01  0.7957747E-01            NaN
         13   -1    0    0    0    0  0.00000000000E+00  0.00000000000E+00  0.74505805969E-08  0.10566000000E+00  0.10566000000E+00 0. -1.
     999900   -1    0    0    0    0 -0.00000000000E+00 -0.00000000000E+00 -0.74505805969E-08  0.93827000000E+00  0.93827000000E+00 0.  1.
     999902    2    1    2    0    0  0.50833022726E-02 -0.32078955745E-02  0.23044393543E-01  0.10201145716E+01  0.10198365382E+01 0.  0.
     999903    2    3    3    0    0 -0.70675706941E-01  0.17528654871E-01 -0.10265224101E+00  0.12771943718E+00  0.21736208428E-01 0.  0.
         14    1    1    2    0    0 -0.50833022726E-02  0.32078955745E-02 -0.23044393543E-01  0.23815428398E-01  0.00000000000E+00 0.  1.
     999901    1    3    3    0    0  0.75759009213E-01 -0.20736550446E-01  0.12569663455E+00  0.89239513442E+00  0.88000000000E+00 0. -1.
        -11    1    4    4    0    0 -0.46738138715E-01  0.21426271395E-01 -0.75026002764E-01  0.90954389273E-01  0.51100000000E-03 0. -1.
         11    1    4    4    0    0 -0.23937568226E-01 -0.38976165242E-02 -0.27626238244E-01  0.36765047907E-01  0.51100000000E-03 0.  1.
</event>
<event>
 8    1  0.1111182E+005  0.1043930E+01  0.7957747E-01            NaN
         13   -1    0    0    0    0  0.00000000000E+00  0.00000000000E+00  0.74505805969E-08  0.10566000000E+00  0.10566000000E+00 0.  1.
     999900   -1    0    0    0    0 -0.00000000000E+00 -0.00000000000E+00 -0.74505805969E-08  0.93827000000E+00  0.93827000000E+00 0.  1.
     999902    2    1    2    0    0  0.41431460703E-02 -0.23431372334E-01  0.42360266899E-02  0.10197610366E+01  0.10194745867E+01 0.  0.
     999903    2    3    3    0    0 -0.17132225597E-01  0.96754150368E-01 -0.78524996725E-01  0.12749056848E+00  0.20803633683E-01 0.  0.
         14    1    1    2    0    0 -0.41431460703E-02  0.23431372334E-01 -0.42360266899E-02  0.24168963382E-01  0.00000000000E+00 0.  1.
     999901    1    3    3    0    0  0.21275371667E-01 -0.12018552270E+00  0.82761023415E-01  0.89227046813E+00  0.88000000000E+00 0.  1.
        -11    1    4    4    0    0 -0.16105600390E-02  0.26710938253E-01 -0.10900548636E-01  0.28898982812E-01  0.51100000000E-03 0.  1.
         11    1    4    4    0    0 -0.15521665558E-01  0.70043212116E-01 -0.67624448089E-01  0.98591585673E-01  0.51100000000E-03 0. -1.
</event>
<event>
 8    1  0.1111182E+005  0.1043930E+01  0.7957747E-01            NaN
         13   -1    0    0    0    0  0.00000000000E+00  0.00000000000E+00  0.74505805969E-08  0.10566000000E+00  0.10566000000E+00 0.  1.
     999900   -1    0    0    0    0 -0.00000000000E+00 -0.00000000000E+00 -0.74505805969E-08  0.93827000000E+00  0.93827000000E+00 0. -1.
     999902    2    1    2    0    0 -0.16044983726E-01  0.10998682679E-01 -0.13335619832E-01  0.10203450200E+01  0.10200724036E+01 0.  0.
     999903    2    3    3    0    0 -0.12655301133E+00 -0.19034877946E-01 -0.32054062315E-01  0.13272774947E+00  0.14532766893E-01 0.  0.
         14    1    1    2    0    0  0.16044983726E-01 -0.10998682679E-01  0.13335619832E-01  0.23584979960E-01  0.00000000000E+00 0. -1.
     999901    1    3    3    0    0  0.11050802760E+00  0.30033560625E-01  0.18718442483E-01  0.88761727057E+00  0.88000000000E+00 0. -1.
        -11    1    4    4    0    0 -0.10787888882E+00 -0.17787709944E-01 -0.22190752567E-01  0.11156589039E+00  0.51100000000E-03 0. -1.
         11    1    4    4    0    0 -0.18674122506E-01 -0.12471680021E-02 -0.98633097479E-02  0.21161859076E-01  0.51100000000E-03 0.  1.
</event>
<event>
 8    1  0.1111182E+005  0.1043930E+01  0.7957747E-01            NaN
         13   -1    0    0    0    0  0.00000000000E+00  0.00000000000E+00  0.74505805969E-08  0.10566000000E+00  0.10566000000E+00 0. -1.
     999900   -1    0    0    0    0 -0.00000000000E+00 -0.00000000000E+00 -0.74505805969E-08  0.93827000000E+00  0.93827000000E+00 0. -1.
     999902    2    1    2    0    0 -0.97532691884E-02 -0.19250960511E-01  0.75481568442E-02  0.10210673577E+01  0.10208113678E+01 0.  0.
     999903    2    3    3    0    0  0.10793186971E+00  0.15071734481E-01 -0.66967871685E-01  0.12945058027E+00  0.19907566784E-01 0.  0.
         14    1    1    2    0    0  0.97532691884E-02  0.19250960511E-01 -0.75481568442E-02  0.22862642284E-01  0.00000000000E+00 0.  1.
     999901    1    3    3    0    0 -0.11768513890E+00 -0.34322694992E-01  0.74516028529E-01  0.89161677744E+00  0.88000000000E+00 0.  1.
        -11    1    4    4    0    0  0.44316998377E-01  0.14083813042E-01 -0.35278016232E-01  0.58370794797E-01  0.51100000000E-03 0.  1.
         11    1    4    4    0    0  0.63614871335E-01  0.98792143882E-03 -0.31689855453E-01  0.71079785477E-01  0.51100000000E-03 0. -1.
</event>
<event>
 8    1  0.1111182E+005  0.1043930E+01  0.7957747E-01            NaN
         13   -1    0    0    0    0  0.00000000000E+00  0.00000000000E+00  0.74505805969E-08  0.10566000000E+00  0.10566000000E+00 0.  1.
     999900   -1    0    0    0    0 -0.00000000000E+00 -0.00000000000E+00 -0.74505805969E-08  0.93827000000E+00  0.93827000000E+00 0. -1.
     999902    2    1    2    0    0 -0.19218257157E-01  0.13227754662E-01  0.80214425120E-02  0.10192589959E+01  0.10189603733E+01 0.  0.
     999903    2    3    3    0    0 -0.24370859505E-01 -0.98809582422E-01 -0.74343772023E-01  0.12832524824E+00  0.24147474541E-01 0.  0.
         14    1    1    2    0    0  0.19218257157E-01 -0.13227754662E-01 -0.80214425120E-02  0.24671004064E-01  0.00000000000E+00 0.  1.
     999901    1    3    3    0    0  0.51526023482E-02  0.11203733708E+00  0.82365214535E-01  0.89093374769E+00  0.88000000000E+00 0.  1.
        -11    1    4    4    0    0 -0.15381888651E-01 -0.24393881503E-01 -0.27993576767E-01  0.40194096762E-01  0.51100000000E-03 0. -1.
         11    1    4    4    0    0 -0.89889708540E-02 -0.74415700919E-01 -0.46350195256E-01  0.88131151482E-01  0.51100000000E-03 0.  1.
</event>
<event>
 8    1  0.1111182E+005  0.1043930E+01  0.7957747E-01            NaN
         13   -1    0    0    0    0  0.00000000000E+00  0.00000000000E+00  0.74505805969E-08  0.10566000000E+00  0.10566000000E+00 0.  1.
     999900   -1    0    0    0    0 -0.00000000000E+00 -0.00000000000E+00 -0.74505805969E-08  0.93827000000E+00  0.93827000000E+00 0. -1.
     999902    2    1    2    0    0  0.14774664330E-01  0.17758256768E-01 -0.46619773808E-02  0.10203634894E+01  0.10200913048E+01 0.  0.
     999903    2    3    3    0    0 -0.10223327125E+00 -0.20258915893E-01  0.72447227192E-01  0.12846551773E+00  0.19817242341E-01 0.  0.
         14    1    1    2    0    0 -0.14774664330E-01 -0.17758256768E-01  0.46619773808E-02  0.23566510615E-01  0.00000000000E+00 0. -1.
     999901    1    3    3    0    0  0.11700793558E+00  0.38017172661E-01 -0.77109204573E-01  0.89189797165E+00  0.88000000000E+00 0. -1.
        -11    1    4    4    0    0 -0.33518124619E-01 -0.65695030742E-02  0.35451245165E-01  0.49230833361E-01  0.51100000000E-03 0.  1.
         11    1    4    4    0    0 -0.68715146634E-01 -0.13689412819E-01  0.36995982027E-01  0.79234684372E-01  0.51100000000E-03 0. -1.
</event>
<event>
 8    1  0.1111182E+005  0.1043930E+01  0.7957747E-01            NaN
         13   -1    0    0    0    0  0.00000000000E+00  0.00000000000E+00  0.74505805969E-08  0.10566000000E+00  0.10566000000E+00 0.  1.
     999900   -1    0    0    0    0 -0.00000000000E+00 -0.00000000000E+00 -0.74505805969E-08  0.93827000000E+00  0.93827000000E+00 0.  1.
     999902    2    1    2    0    0  0.81137482072E-02  0.98045216921E-02 -0.66263168631E-02  0.10295818423E+01  0.10294818601E+01 0.  0.
     999903    2    3    3    0    0 -0.12290425101E+00 -0.56401447780E-01 -0.13948574929E-01  0.13739208554E+00  0.19885778850E-01 0.  0.
         14    1    1    2    0    0 -0.81137482072E-02 -0.98045216921E-02  0.66263168631E-02  0.14348157748E-01  0.00000000000E+00 0.  1.
     999901    1    3    3    0    0  0.13101799921E+00  0.66205969472E-01  0.73222580661E-02  0.89218975671E+00  0.88000000000E+00 0.  1.
        -11    1    4    4    0    0 -0.10711002930E+00 -0.44516027322E-01 -0.17488390535E-01  0.11730447558E+00  0.51100000000E-03 0.  1.
         11    1    4    4    0    0 -0.15794221703E-01 -0.11885420457E-01  0.35398156061E-02  0.20087609967E-01  0.51100000000E-03 0. -1.
</event>
<event>
 8    1  0.1111182E+005  0.1043930E+01  0.7957747E-01            NaN
         13   -1    0    0    0    0  0.00000000000E+00  0.00000000000E+00  0.74505805969E-08  0.10566000000E+00  0.10566000000E+00 0. -1.
     999900   -1    0    0    0    0 -0.00000000000E+00 -0.00000000000E+00 -0.74505805969E-08  0.93827000000E+00  0.93827000000E+00 0.  1.
     999902    2    1    2    0    0 -0.28912712125E-01  0.36945493978E-02  0.15766170061E-01  0.10107914011E+01  0.10102480338E+01 0.  0.
     999903    2    3    3    0    0  0.37044238531E-01 -0.89735589593E-01  0.70380826559E-01  0.12171194971E+00  0.20870704501E-01 0.  0.
         14    1    1    2    0    0  0.28912712125E-01 -0.36945493978E-02 -0.15766170061E-01  0.33138598885E-01  0.00000000000E+00 0.  1.
     999901    1    3    3    0    0 -0.65956950656E-01  0.93430138990E-01 -0.54614656498E-01  0.88907945141E+00  0.88000000000E+00 0.  1.
        -11    1    4    4    0    0  0.21992130415E-01 -0.59736906174E-01  0.33841832113E-01  0.72094954617E-01  0.51100000000E-03 0. -1.
         11    1    4    4    0    0  0.15052108116E-01 -0.29998683418E-01  0.36538994447E-01  0.49616995090E-01  0.51100000000E-03 0.  1.
</event>
<event>
 8    1  0.1111182E+005  0.1043930E+01  0.7957747E-01            NaN
         13   -1    0    0    0    0  0.00000000000E+00  0.00000000000E+00  0.74505805969E-08  0.10566000000E+00  0.10566000000E+00 0. -1.
     999900   -1    0    0    0    0 -0.00000000000E+00 -0.00000000000E+00 -0.74505805969E-08  0.93827000000E+00  0.93827000000E+00 0. -1.
     999902    2    1    2    0    0 -0.84877048397E-02  0.16523941666E-01 -0.14442458069E-01  0.10203998836E+01  0.10201285488E+01 0.  0.
     999903    2    3    3    0    0  0.67394071056E-01  0.32524906715E-01  0.10324764178E+00  0.12918440216E+00  0.20705165040E-01 0.  0.
         14    1    1    2    0    0  0.84877048397E-02 -0.16523941666E-01  0.14442458069E-01  0.23530116377E-01  0.00000000000E+00 0. -1.
     999901    1    3    3    0    0 -0.75881775895E-01 -0.16000965049E-01 -0.11769009985E+00  0.89121548146E+00  0.88000000000E+00 0. -1.
        -11    1    4    4    0    0  0.48926225261E-01  0.28694883395E-01  0.89011315459E-01  0.10554831714E+00  0.51100000000E-03 0. -1.
         11    1    4    4    0    0  0.18467845795E-01  0.38300233202E-02  0.14236326316E-01  0.23636085017E-01  0.51100000000E-03 0.  1.
</event>
<event>
 8    1  0.1111182E+005  0.1043930E+01  0.7957747E-01            NaN
         13   -1    0    0    0    0  0.00000000000E+00  0.00000000000E+00  0.74505805969E-08  0.10566000000E+00  0.10566000000E+00 0.  1.
     999900   -1    0    0    0    0 -0.00000000000E+00 -0.00000000000E+00 -0.74505805969E-08  0.93827000000E+00  0.93827000000E+00 0. -1.
     999902    2    1    2    0    0  0.98651659909E-02  0.64890575361E-02  0.15703100847E-01  0.10242826912E+01  0.10240942411E+01 0.  0.
     999903    2    3    3    0    0  0.35109538875E-01 -0.71740428035E-03 -0.12614995489E+00  0.13253637026E+00  0.20466654199E-01 0.  0.
         14    1    1    2    0    0 -0.98651659909E-02 -0.64890575361E-02 -0.15703100847E-01  0.19647308822E-01  0.00000000000E+00 0. -1.
     999901    1    3    3    0    0 -0.25244372884E-01  0.72064618165E-02  0.14185305573E+00  0.89174632092E+00  0.88000000000E+00 0.  1.
        -11    1    4    4    0    0  0.18637168166E-01  0.85557544119E-02 -0.49373058351E-01  0.53464988382E-01  0.51100000000E-03 0. -1.
         11    1    4    4    0    0  0.16472370709E-01 -0.92731586922E-02 -0.76776896537E-01  0.79071381875E-01  0.51100000000E-03 0.  1.
</event>
<event>
 8    1  0.1111182E+005  0.1043930E+01  0.7957747E-01            NaN
         13   -1    0    0    0    0  0.00000000000E+00  0.00000000000E+00  0.74505805969E-08  0.10566000000E+00  0.10566000000E+00 0. -1.
     999900   -1    0    0    0    0 -0.00000000000E+00 -0.00000000000E+00 -0.74505805969E-08  0.93827000000E+00  0.93827000000E+00 0. -1.
     999902    2    1    2    0    0  0.22251543055E-01 -0.71530266260E-04  0.19860412765E-03  0.10216774557E+01  0.10214350923E+01 0.  0.
     999903    2    3    3    0    0  0.82777283159E-01  0.99904887844E-01  0.25142423677E-01  0.13360040749E+00  0.19592401365E-01 0.  0.
         14    1    1    2    0    0 -0.22251543055E-01  0.71530266260E-04 -0.19860412765E-03  0.22252544315E-01  0.00000000000E+00 0.  1.
     999901    1    3    3    0    0 -0.60525740104E-01 -0.99976418111E-01 -0.24943819549E-01  0.88807704819E+00  0.88000000000E+00 0.  1.
        -11    1    4    4    0    0  0.56508850228E-01  0.69341422645E-01  0.80240159937E-02  0.89811630662E-01  0.51100000000E-03 0. -1.
         11    1    4    4    0    0  0.26268432931E-01  0.30563465200E-01  0.17118407683E-01  0.43788776830E-01  0.51100000000E-03 0.  1.
</event>
<event>
 8    1  0.1111182E+005  0.1043930E+01  0.7957747E-01            NaN
         13   -1    0    0    0    0  0.00000000000E+00  0.00000000000E+00  0.74505805969E-08  0.10566000000E+00  0.10566000000E+00 0. -1.
     999900   -1    0    0    0    0 -0.00000000000E+00 -0.00000000000E+00 -0.74505805969E-08  0.93827000000E+00  0.93827000000E+00 0.  1.
     999902    2    1    2    0    0 -0.76060710497E-02 -0.16572505850E-01 -0.15945480428E-01  0.10197068992E+01  0.10194191491E+01 0.  0.
     999903    2    3    3    0    0  0.23352632129E-01 -0.10772431923E+00  0.67261748629E-01  0.13055531630E+00  0.19252880401E-01 0.  0.
         14    1    1    2    0    0  0.76060710497E-02  0.16572505850E-01  0.15945480428E-01  0.24223100814E-01  0.00000000000E+00 0. -1.
     999901    1    3    3    0    0 -0.30958703179E-01  0.91151813382E-01 -0.83207229057E-01  0.88915158289E+00  0.88000000000E+00 0.  1.
        -11    1    4    4    0    0 -0.12308229780E-02 -0.36508438516E-01  0.23161123425E-01  0.43255979557E-01  0.51100000000E-03 0.  1.
         11    1    4    4    0    0  0.24583455107E-01 -0.71215880716E-01  0.44100625204E-01  0.87299336742E-01  0.51100000000E-03 0. -1.
</event>
<event>
 8    1  0.1111182E+005  0.1043930E+01  0.7957747E-01            NaN
         13   -1    0    0    0    0  0.00000000000E+00  0.00000000000E+00  0.74505805969E-08  0.10566000000E+00  0.10566000000E+00 0.  1.
     999900   -1    0    0    0    0 -0.00000000000E+00 -0.00000000000E+00 -0.74505805969E-08  0.93827000000E+00  0.93827000000E+00 0. -1.
     999902    2    1    2    0    0  0.21798970610E-01 -0.39868404420E-02  0.70559624755E-02  0.10206732457E+01  0.10204082505E+01 0.  0.
     999903    2    3    3    0    0 -0.12610812578E+00  0.11888770343E-01 -0.75276865334E-03  0.12815460693E+00  0.19453389683E-01 0.  0.
         14    1    1    2    0    0 -0.21798970610E-01  0.39868404420E-02 -0.70559624755E-02  0.23256754348E-01  0.00000000000E+00 0.  1.
     999901    1    3    3    0    0  0.14790709639E+00 -0.15875610785E-01  0.78087311289E-02  0.89251863872E+00  0.88000000000E+00 0. -1.
        -11    1    4    4    0    0 -0.79429268873E-01  0.16836814198E-01  0.41923782289E-03  0.81196822274E-01  0.51100000000E-03 0. -1.
         11    1    4    4    0    0 -0.46678856904E-01 -0.49480438555E-02 -0.11720064762E-02  0.46957784659E-01  0.51100000000E-03 0.  1.
</event>
<event>
 8    1  0.1111182E+005  0.1043930E+01  0.7957747E-01            NaN
         13   -1    0    0    0    0  0.00000000000E+00  0.00000000000E+00  0.74505805969E-08  0.10566000000E+00  0.10566000000E+00 0. -1.
     999900   -1    0    0    0    0 -0.00000000000E+00 -0.00000000000E+00 -0.74505805969E-08  0.93827000000E+00  0.93827000000E+00 0. -1.
     999902    2    1    2    0    0  0.11038033859E-01 -0.16087462760E-02  0.21382009000E-01  0.10198132721E+01  0.10195280739E+01 0.  0.
     999903    2    3    3    0    0 -0.22762268095E-01  0.41649840119E-01  0.12197690972E+00  0.13238265522E+00  0.19848699406E-01 0.  0.
         14    1    1    2    0    0 -0.11038033859E-01  0.16087462760E-02 -0.21382009000E-01  0.24116727907E-01  0.00000000000E+00 0.  1.
     999901    1    3    3    0    0  0.33800301954E-01 -0.43258586395E-01 -0.10059490072E+00  0.88743061687E+00  0.88000000000E+00 0. -1.
        -11    1    4    4    0    0 -0.43030135425E-02  0.16915948896E-01  0.24151648280E-01  0.29803162387E-01  0.51100000000E-03 0. -1.
         11    1    4    4    0    0 -0.18459254552E-01  0.24733891223E-01  0.97825261440E-01  0.10257949284E+00  0.51100000000E-03 0.  1.
</event>
<event>
 8    1  0.1111182E+005  0.1043930E+01  0.7957747E-01            NaN
         13   -1    0    0    0    0  0.00000000000E+00  0.00000000000E+00  0.74505805969E-08  0.10566000000E+00  0.10566000000E+00 0. -1.
     999900   -1    0    0    0    0 -0.00000000000E+00 -0.00000000000E+00 -0.74505805969E-08  0.93827000000E+00  0.93827000000E+00 0.  1.
     999902    2    1    2    0    0  0.25117012463E-01 -0.15554231625E-01  0.53916825718E-02  0.10138988715E+01  0.10134540212E+01 0.  0.
     999903    2    3    3    0    0  0.82416573205E-01  0.89527190018E-01  0.24394275533E-01  0.12559349421E+00  0.19262290018E-01 0.  0.
         14    1    1    2    0    0 -0.25117012463E-01  0.15554231625E-01 -0.53916825718E-02  0.30031128474E-01  0.00000000000E+00 0. -1.
     999901    1    3    3    0    0 -0.57299560742E-01 -0.10508142164E+00 -0.19002592961E-01  0.88830537732E+00  0.88000000000E+00 0. -1.
        -11    1    4    4    0    0  0.43705695413E-01  0.36421741849E-01  0.17440453550E-01  0.59507660279E-01  0.51100000000E-03 0.  1.
         11    1    4    4    0    0  0.38710877792E-01  0.53105448169E-01  0.69538219830E-02  0.66085833927E-01  0.51100000000E-03 0. -1.
</event>
<event>
 8    1  0.1111182E+005  0.1043930E+01  0.7957747E-01            NaN
         13   -1    0    0    0    0  0.00000000000E+00  0.00000000000E+00  0.74505805969E-08  0.10566000000E+00  0.10566000000E+00 0.  1.
     999900   -1    0    0    0    0 -0.00000000000E+00 -0.00000000000E+00 -0.74505805969E-08  0.93827000000E+00  0.93827000000E+00 0.  1.
     999902    2    1    2    0    0  0.19816113707E-01  0.29613520955E-02 -0.10077445142E-01  0.10215022745E+01  0.10212560374E+01 0.  0.
     999903    2    3    3    0    0  0.89217619091E-01 -0.96645091056E-01  0.89474668096E-02  0.13296417196E+00  0.17301927079E-01 0.  0.
         14    1    1    2    0    0 -0.19816113707E-01 -0.29613520955E-02  0.10077445142E-01  0.22427725459E-01  0.00000000000E+00 0.  1.
     999901    1    3    3    0    0 -0.69401505384E-01  0.99606443151E-01 -0.19024911952E-01  0.88853810258E+00  0.88000000000E+00 0.  1.
        -11    1    4    4    0    0  0.38499403936E-01 -0.33580678930E-01  0.98426688204E-02  0.52028889584E-01  0.51100000000E-03 0.  1.
         11    1    4    4    0    0  0.50718215155E-01 -0.63064412126E-01 -0.89520201081E-03  0.80935282374E-01  0.51100000000E-03 0. -1.
</event>
<event>
 8    1  0.1111182E+005  0.1043930E+01  0.7957747E-01            NaN
         13   -1    0    0    0    0  0.00000000000E+00  0.00000000000E+00  0.74505805969E-08  0.10566000000E+00  0.10566000000E+00 0.  1.
     999900   -1    0    0    0    0 -0.00000000000E+00 -0.00000000000E+00 -0.74505805969E-08  0.93827000000E+00  0.93827000000E+00 0.  1.
     999902    2    1    2    0    0  0.61432889910E-02  0.17698829276E-01 -0.17703225293E-01  0.10181541830E+01  0.10178278575E+01 0.  0.
     999903    2    3    3    0    0 -0.78515959285E-01 -0.96221993957E-01  0.11414585995E-01  0.12630610779E+00  0.19987798973E-01 0.  0.
         14    1    1    2    0    0 -0.61432889910E-02 -0.17698829276E-01  0.17703225293E-01  0.25775817022E-01  0.00000000000E+00 0.  1.
     999901    1    3    3    0    0  0.84659248276E-01  0.11392082323E+00 -0.29117811288E-01  0.89184807519E+00  0.88000000000E+00 0.  1.
        -11    1    4    4    0    0 -0.70553489102E-01 -0.76752269429E-01  0.52760187420E-02  0.10438775398E+00  0.51100000000E-03 0. -1.
         11    1    4    4    0    0 -0.79624701835E-02 -0.19469724528E-01  0.61385672530E-02  0.21918353805E-01  0.51100000000E-03 0.  1.
</event>
<event>
 8    1  0.1111182E+005  0.1043930E+01  0.7957747E-01            NaN
         13   -1    0    0    0    0  0.00000000000E+00  0.00000000000E+00  0.74505805969E-08  0.10566000000E+00  0.10566000000E+00 0.  1.
     999900   -1    0    0    0    0 -0.00000000000E+00 -0.00000000000E+00 -0.74505805969E-08  0.93827000000E+00  0.93827000000E+00 0.  1.
     999902    2    1    2    0    0 -0.92142441877E-02  0.41499062483E-02  0.14617576077E-01  0.10261593065E+01  0.10260054214E+01 0.  0.
     999903    2    3    3    0    0  0.60437997491E-01 -0.16456500099E-01  0.12032260640E+00  0.13686204898E+00  0.18169284661E-01 0.  0.
         14    1    1    2    0    0  0.92142441877E-02 -0.41499062483E-02 -0.14617576077E-01  0.17770693521E-01  0.00000000000E+00 0. -1.
     999901    1    3    3    0    0 -0.69652241679E-01  0.20606406348E-01 -0.10570503032E+00  0.88929725750E+00  0.88000000000E+00 0.  1.
        -11    1    4    4    0    0  0.25841803587E-01 -0.29064144105E-02  0.66980259564E-01  0.71853060823E-01  0.51100000000E-03 0. -1.
         11    1    4    4    0    0  0.34596193904E-01 -0.13550085689E-01  0.53342346836E-01  0.65008988161E-01  0.51100000000E-03 0.  1.
</event>
<event>
 8    1  0.1111182E+005  0.1043930E+01  0.7957747E-01            NaN
         13   -1    0    0    0    0  0.00000000000E+00  0.00000000000E+00  0.74505805969E-08  0.10566000000E+00  0.10566000000E+00 0. -1.
     999900   -1    0    0    0    0 -0.00000000000E+00 -0.00000000000E+00 -0.74505805969E-08  0.93827000000E+00  0.93827000000E+00 0.  1.
     999902    2    1    2    0    0 -0.14358571342E-01 -0.17074228003E-02  0.18373667396E-01  0.10205489068E+01  0.10202810376E+01 0.  0.
     999903    2    3    3    0    0 -0.85404248832E-01  0.96917098540E-01 -0.13615418237E-01  0.13161832120E+00  0.21241307698E-01 0.  0.
         14    1    1    2    0    0  0.14358571342E-01  0.17074228003E-02 -0.18373667396E-01  0.23381093157E-01  0.00000000000E+00 0.  1.
     999901    1    3    3    0    0  0.71045677490E-01 -0.98624521340E-01  0.31989085633E-01  0.88893058565E+00  0.88000000000E+00 0. -1.
        -11    1    4    4    0    0 -0.55809790958E-01  0.50214615841E-01 -0.13753762661E-01  0.76326060550E-01  0.51100000000E-03 0. -1.
         11    1    4    4    0    0 -0.29594457875E-01  0.46702482699E-01  0.13834442414E-03  0.55292260646E-01  0.51100000000E-03 0.  1.
</event>
<event>
 8    1  0.1111182E+005  0.1043930E+01  0.7957747E-01            NaN
         13   -1    0    0    0    0  0.00000000000E+00  0.00000000000E+00  0.74505805969E-08  0.10566000000E+00  0.10566000000E+00 0. -1.
     999900   -1    0    0    0    0 -0.00000000000E+00 -0.00000000000E+00 -0.74505805969E-08  0.93827000000E+00  0.93827000000E+00 0.  1.
     999902    2    1    2    0    0  0.20984295250E-01 -0.87638905635E-02 -0.39393098518E-02  0.10208504726E+01  0.10205895466E+01 0.  0.
     999903    2    3    3    0    0  0.55696437270E-01 -0.47543395016E-02 -0.11861361756E+00  0.13272255038E+00  0.20527743135E-01 0.  0.
         14    1    1    2    0    0 -0.20984295250E-01  0.87638905635E-02  0.39393098518E-02  0.23079527444E-01  0.00000000000E+00 0. -1.
     999901    1    3    3    0    0 -0.34712142021E-01 -0.40095510619E-02  0.11467430771E+00  0.88812792218E+00  0.88000000000E+00 0. -1.
        -11    1    4    4    0    0  0.29943944871E-01  0.40177190314E-02 -0.79729644348E-01  0.85263469373E-01  0.51100000000E-03 0.  1.
         11    1    4    4    0    0  0.25752492399E-01 -0.87720585330E-02 -0.38883973217E-01  0.47459081005E-01  0.51100000000E-03 0. -1.
</event>
<event>
 8    1  0.1111182E+005  0.1043930E+01  0.7957747E-01            NaN
         13   -1    0    0    0    0  0.00000000000E+00  0.00000000000E+00  0.74505805969E-08  0.10566000000E+00  0.10566000000E+00 0. -1.
     999900   -1    0    0    0    0 -0.00000000000E+00 -0.00000000000E+00 -0.74505805969E-08  0.93827000000E+00  0.93827000000E+00 0. -1.
     999902    2    1    2    0    0 -0.20577513912E-01 -0.13237917516E-01  0.15633726824E-02  0.10194122376E+01  0.10191173581E+01 0.  0.
     999903    2    3    3    0    0 -0.28694358503E-01 -0.12511871852E+00 -0.24444739733E-01  0.13191033974E+00  0.18020335622E-01 0.  0.
         14    1    1    2    0    0  0.20577513912E-01  0.13237917516E-01 -0.15633726824E-02  0.24517762400E-01  0.00000000000E+00 0.  1.
     999901    1    3    3    0    0  0.81168445913E-02  0.11188080100E+00  0.26008112416E-01  0.88750189786E+00  0.88000000000E+00 0.  1.
        -11    1    4    4    0    0 -0.23096102895E-01 -0.10487015094E+00 -0.13539250521E-01  0.10823470309E+00  0.51100000000E-03 0.  1.
         11    1    4    4    0    0 -0.55982556084E-02 -0.20248567577E-01 -0.10905489212E-01  0.23675636649E-01  0.51100000000E-03 0. -1.
</event>
<event>
 8    1  0.1111182E+005  0.1043930E+01  0.7957747E-01            NaN
         13   -1    0    0    0    0  0.00000000000E+00  0.00000000000E+00  0.74505805969E-08  0.10566000000E+00  0.10566000000E+00 0.  1.
     999900   -1    0    0    0    0 -0.00000000000E+00 -0.00000000000E+00 -0.74505805969E-08  0.93827000000E+00  0.93827000000E+00 0.  1.
     999902    2    1    2    0    0 -0.17602193435E-01  0.73462226449E-03 -0.16334375526E-01  0.10199052480E+01  0.10196222468E+01 0.  0.
     999903    2    3    3    0    0 -0.10084965458E+00  0.56989036555E-02  0.80473344486E-01  0.13067720161E+00  0.19935935313E-01 0.  0.
         14    1    1    2    0    0  0.17602193435E-01 -0.73462226449E-03  0.16334375526E-01  0.24024751974E-01  0.00000000000E+00 0.  1.
     999901    1    3    3    0    0  0.83247461143E-01 -0.49642813910E-02 -0.96807720012E-01  0.88922804641E+00  0.88000000000E+00 0.  1.
        -11    1    4    4    0    0 -0.71576747115E-01 -0.24674671134E-02  0.48115531037E-01  0.86282585552E-01  0.51100000000E-03 0. -1.
         11    1    4    4    0    0 -0.29272907463E-01  0.81663707689E-02  0.32357813449E-01  0.44394616059E-01  0.51100000000E-03 0.  1.
</event>
<event>
 8    1  0.1111182E+005  0.1043930E+01  0.7957747E-01            NaN
         13   -1    0    0    0    0  0.00000000000E+00  0.00000000000E+00  0.74505805969E-08  0.10566000000E+00  0.10566000000E+00 0. -1.
     999900   -1    0    0    0    0 -0.00000000000E+00 -0.00000000000E+00 -0.74505805969E-08  0.93827000000E+00  0.93827000000E+00 0.  1.
     999902    2    1    2    0    0  0.52906525877E-02  0.12680990479E-01 -0.19910447243E-01  0.10197385876E+01  0.10194515990E+01 0.  0.
     999903    2    3    3    0    0 -0.13672946263E-01  0.95080105998E-01  0.84441734108E-01  0.12954837755E+00  0.20620369805E-01 0.  0.
         14    1    1    2    0    0 -0.52906525877E-02 -0.12680990479E-01  0.19910447243E-01  0.24191412397E-01  0.00000000000E+00 0. -1.
     999901    1    3    3    0    0  0.18963598850E-01 -0.82399115519E-01 -0.10435218135E+00  0.89019021005E+00  0.88000000000E+00 0.  1.
        -11    1    4    4    0    0 -0.15625431686E-01  0.47769692653E-01  0.50784627636E-01  0.71452341996E-01  0.51100000000E-03 0. -1.
         11    1    4    4    0    0  0.19524854232E-02  0.47310413345E-01  0.33657106472E-01  0.58096035556E-01  0.51100000000E-03 0.  1.
</event>
<event>
 8    1  0.1111182E+005  0.1043930E+01  0.7957747E-01            NaN
         13   -1    0    0    0    0  0.00000000000E+00  0.00000000000E+00  0.74505805969E-08  0.10566000000E+00  0.10566000000E+00 0.  1.
     999900   -1    0    0    0    0 -0.00000000000E+00 -0.00000000000E+00 -0.74505805969E-08  0.93827000000E+00  0.93827000000E+00 0.  1.
     999902    2    1    2    0    0  0.10780228940E-02  0.23749065790E-01  0.12589499739E-02  0.10201231687E+01  0.10198453384E+01 0.  0.
     999903    2    3    3    0    0 -0.39321159342E-01  0.44668933159E-01  0.11561648887E+00  0.13155838131E+00  0.19974184165E-01 0.  0.
         14    1    1    2    0    0 -0.10780228940E-02 -0.23749065790E-01 -0.12589499739E-02  0.23806831253E-01  0.00000000000E+00 0.  1.
     999901    1    3    3    0    0  0.40399182236E-01 -0.20919867369E-01 -0.11435753889E+00  0.88856478744E+00  0.88000000000E+00 0.  1.
        -11    1    4    4    0    0 -0.27864685562E-01  0.19552754805E-01  0.75923169151E-01  0.83206608252E-01  0.51100000000E-03 0. -1.
         11    1    4    4    0    0 -0.11456473780E-01  0.25116178355E-01  0.39693319715E-01  0.48351773056E-01  0.51100000000E-03 0.  1.
</event>
<event>
 8    1  0.1111182E+005  0.1043930E+01  0.7957747E-01            NaN
         13   -1    0    0    0    0  0.00000000000E+00  0.00000000000E+00  0.74505805969E-08  0.10566000000E+00  0.10566000000E+00 0.  1.
     999900   -1    0    0    0    0 -0.00000000000E+00 -0.00000000000E+00 -0.74505805969E-08  0.93827000000E+00  0.93827000000E+00 0.  1.
     999902    2    1    2    0    0  0.20254215113E-01 -0.62196253222E-02 -0.73206388501E-02  0.10215132937E+01  0.10212673012E+01 0.  0.
     999903    2    3    3    0    0 -0.84041193500E-01 -0.90805123423E-01 -0.37200904355E-01  0.13082531857E+00  0.20563658440E-01 0.  0.
         14    1    1    2    0    0 -0.20254215113E-01  0.62196253222E-02  0.73206388501E-02  0.22416706319E-01  0.00000000000E+00 0.  1.
     999901    1    3    3    0    0  0.10429540861E+00  0.84585498101E-01  0.29880265505E-01  0.89068797511E+00  0.88000000000E+00 0.  1.
        -11    1    4    4    0    0 -0.78634468829E-01 -0.77493767450E-01 -0.28507064593E-01  0.11402446025E+00  0.51100000000E-03 0.  1.
         11    1    4    4    0    0 -0.54067246709E-02 -0.13311355973E-01 -0.86938397618E-02  0.16800858321E-01  0.51100000000E-03 0. -1.
</event>
<event>
 8    1  0.1111182E+005  0.1043930E+01  0.7957747E-01            NaN
         13   -1    0    0    0    0  0.00000000000E+00  0.00000000000E+00  0.74505805969E-08  0.10566000000E+00  0.10566000000E+00 0.  1.
     999900   -1    0    0    0    0 -0.00000000000E+00 -0.00000000000E+00 -0.74505805969E-08  0.93827000000E+00  0.93827000000E+00 0.  1.
     999902    2    1    2    0    0 -0.48305596081E-02 -0.20742158669E-01  0.90539084258E-02  0.10207881610E+01  0.10205258081E+01 0.  0.
     999903    2    3    3    0    0 -0.86545068361E-01 -0.92270616857E-01  0.37951550139E-01  0.13364180617E+00  0.20393543242E-01 0.  0.
         14    1    1    2    0    0  0.48305596081E-02  0.20742158669E-01 -0.90539084258E-02  0.23141838954E-01  0.00000000000E+00 0. -1.
     999901    1    3    3    0    0  0.81714508753E-01  0.71528458188E-01 -0.28897641713E-01  0.88714635488E+00  0.88000000000E+00 0.  1.
        -11    1    4    4    0    0 -0.20659700068E-01 -0.35895783571E-01  0.11642960733E-01  0.43024994372E-01  0.51100000000E-03 0.  1.
         11    1    4    4    0    0 -0.65885368293E-01 -0.56374833286E-01  0.26308589406E-01  0.90616811799E-01  0.51100000000E-03 0. -1.
</event>
<event>
 8    1  0.1111182E+005  0.1043930E+01  0.7957747E-01            NaN
         13   -1    0    0    0    0  0.00000000000E+00  0.00000000000E+00  0.74505805969E-08  0.10566000000E+00  0.10566000000E+00 0.  1.
     999900   -1    0    0    0    0 -0.00000000000E+00 -0.00000000000E+00 -0.74505805969E-08  0.93827000000E+00  0.93827000000E+00 0. -1.
     999902    2    1    2    0    0  0.70864577373E-02 -0.14539092820E-01 -0.10009225948E-01  0.10249092822E+01  0.10247327695E+01 0.  0.
     999903    2    3    3    0    0  0.62133172826E-01  0.10007407130E+00 -0.61218413476E-01  0.13429786345E+00  0.20319229017E-01 0.  0.
         14    1    1    2    0    0 -0.70864577373E-02  0.14539092820E-01  0.10009225948E-01  0.19020717845E-01  0.00000000000E+00 0. -1.
     999901    1    3    3    0    0 -0.55046715089E-01 -0.11461316412E+00  0.51209187528E-01  0.89061141870E+00  0.88000000000E+00 0.  1.
        -11    1    4    4    0    0  0.21217944673E-01  0.36431346609E-01 -0.33013405937E-01  0.53549885942E-01  0.51100000000E-03 0. -1.
         11    1    4    4    0    0  0.40915228154E-01  0.63642724692E-01 -0.28205007538E-01  0.80747977512E-01  0.51100000000E-03 0.  1.
</event>
<event>
 8    1  0.1111182E+005  0.1043930E+01  0.7957747E-01            NaN
         13   -1    0    0    0    0  0.00000000000E+00  0.00000000000E+00  0.74505805969E-08  0.10566000000E+00  0.10566000000E+00 0. -1.
     999900   -1    0    0    0    0 -0.00000000000E+00 -0.00000000000E+00 -0.74505805969E-08  0.93827000000E+00  0.93827000000E+00 0. -1.
     999902    2    1    2    0    0  0.57395219004E-02  0.22488733991E-01 -0.36943645955E-02  0.10204282214E+01  0.10201575473E+01 0.  0.
     999903    2    3    3    0    0  0.52998744661E-01 -0.13819859942E-01  0.11627248325E+00  0.13029126973E+00  0.21369818505E-01 0.  0.
         14    1    1    2    0    0 -0.57395219004E-02 -0.22488733991E-01  0.36943645955E-02  0.23501778612E-01  0.00000000000E+00 0. -1.
     999901    1    3    3    0    0 -0.47259222760E-01  0.36308593933E-01 -0.11996684784E+00  0.89013695166E+00  0.88000000000E+00 0. -1.
        -11    1    4    4    0    0  0.23097205393E-01 -0.50074045064E-02  0.74541204847E-01  0.78199791162E-01  0.51100000000E-03 0.  1.
         11    1    4    4    0    0  0.29901539268E-01 -0.88124554359E-02  0.41731278399E-01  0.52091478566E-01  0.51100000000E-03 0. -1.
</event>
<event>
 8    1  0.1111182E+005  0.1043930E+01  0.7957747E-01            NaN
         13   -1    0    0    0    0  0.00000000000E+00  0.00000000000E+00  0.74505805969E-08  0.10566000000E+00  0.10566000000E+00 0. -1.
     999900   -1    0    0    0    0 -0.00000000000E+00 -0.00000000000E+00 -0.74505805969E-08  0.93827000000E+00  0.93827000000E+00 0.  1.
     999902    2    1    2    0    0 -0.18847196909E-01 -0.14122195161E-01 -0.50072981915E-02  0.10198524947E+01  0.10195682344E+01 0.  0.
     999903    2    3    3    0    0 -0.10271732806E-01  0.73651593665E-02 -0.12910043003E+00  0.13084498607E+00  0.17138707036E-01 0.  0.
         14    1    1    2    0    0  0.18847196909E-01  0.14122195161E-01  0.50072981915E-02  0.24077505325E-01  0.00000000000E+00 0. -1.
     999901    1    3    3    0    0 -0.85754641029E-02 -0.21487354527E-01  0.12409313184E+00  0.88900750861E+00  0.88000000000E+00 0. -1.
        -11    1    4    4    0    0  0.28721656929E-04  0.18174449867E-02 -0.90208140880E-01  0.90227898863E-01  0.51100000000E-03 0. -1.
         11    1    4    4    0    0 -0.10300454463E-01  0.55477143798E-02 -0.38892289147E-01  0.40617087206E-01  0.51100000000E-03 0.  1.
</event>
<event>
 8    1  0.1111182E+005  0.1043930E+01  0.7957747E-01            NaN
         13   -1    0    0    0    0  0.00000000000E+00  0.00000000000E+00  0.74505805969E-08  0.10566000000E+00  0.10566000000E+00 0.  1.
     999900   -1    0    0    0    0 -0.00000000000E+00 -0.00000000000E+00 -0.74505805969E-08  0.93827000000E+00  0.93827000000E+00 0.  1.
     999902    2    1    2    0    0 -0.18657626941E-02 -0.66082994300E-02 -0.23019801466E-01  0.10199078862E+01  0.10196249479E+01 0.  0.
     999903    2    3    3    0    0  0.19094775967E-01  0.44011829565E-01  0.11629218639E+00  0.12726598062E+00  0.19264101218E-01 0.  0.
         14    1    1    2    0    0  0.18657626941E-02  0.66082994300E-02  0.23019801466E-01  0.24022113798E-01  0.00000000000E+00 0.  1.
     999901    1    3    3    0    0 -0.20960538661E-01 -0.50620128995E-01 -0.13931198786E+00  0.89264190558E+00  0.88000000000E+00 0.  1.
        -11    1    4    4    0    0  0.10394483071E-01  0.47748976070E-02  0.28300268532E-01  0.30528859223E-01  0.51100000000E-03 0. -1.
         11    1    4    4    0    0  0.87002928954E-02  0.39236931958E-01  0.87991917863E-01  0.96737121397E-01  0.51100000000E-03 0.  1.
</event>
<event>
 8    1  0.1111182E+005  0.1043930E+01  0.7957747E-01            NaN
         13   -1    0    0    0    0  0.00000000000E+00  0.00000000000E+00  0.74505805969E-08  0.10566000000E+00  0.10566000000E+00 0.  1.
     999900   -1    0    0    0    0 -0.00000000000E+00 -0.00000000000E+00 -0.74505805969E-08  0.93827000000E+00  0.93827000000E+00 0.  1.
     999902    2    1    2    0    0 -0.15735261614E-01  0.13633817738E-01 -0.13598885504E-01  0.10190621667E+01  0.10187587008E+01 0.  0.
     999903    2    3    3    0    0 -0.42748285516E-01  0.60019565243E-01 -0.10826609716E+00  0.13235859621E+00  0.19169926129E-01 0.  0.
         14    1    1    2    0    0  0.15735261614E-01 -0.13633817738E-01  0.13598885504E-01  0.24867833262E-01  0.00000000000E+00 0.  1.
     999901    1    3    3    0    0  0.27013023902E-01 -0.46385747505E-01  0.94667211660E-01  0.88670357053E+00  0.88000000000E+00 0. -1.
        -11    1    4    4    0    0 -0.18468867882E-01  0.37920161232E-01 -0.71918915484E-01  0.83376430927E-01  0.51100000000E-03 0.  1.
         11    1    4    4    0    0 -0.24279417634E-01  0.22099404011E-01 -0.36347181680E-01  0.48982165278E-01  0.51100000000E-03 0. -1.
</event>
<event>
 8    1  0.1111182E+005  0.1043930E+01  0.7957747E-01            NaN
         13   -1    0    0    0    0  0.00000000000E+00  0.00000000000E+00  0.74505805969E-08  0.10566000000E+00  0.10566000000E+00 0. -1.
     999900   -1    0    0    0    0 -0.00000000000E+00 -0.00000000000E+00 -0.74505805969E-08  0.93827000000E+00  0.93827000000E+00 0.  1.
     999902    2    1    2    0    0  0.17430962720E-01  0.39848712092E-02  0.16039464737E-01  0.10199095485E+01  0.10196266499E+01 0.  0.
     999903    2    3    3    0    0  0.70936098086E-01  0.10696174329E+00 -0.20802124205E-01  0.13152655771E+00  0.19843449127E-01 0.  0.
         14    1    1    2    0    0 -0.17430962720E-01 -0.39848712092E-02 -0.16039464737E-01  0.24020451472E-01  0.00000000000E+00 0.  1.
     999901    1    3    3    0    0 -0.53505135366E-01 -0.10297687208E+00  0.36841588942E-01  0.88838299082E+00  0.88000000000E+00 0. -1.
        -11    1    4    4    0    0  0.74999086027E-02  0.10576136280E-01  0.38479829099E-02  0.13534082205E-01  0.51100000000E-03 0.  1.
         11    1    4    4    0    0  0.63436189483E-01  0.96385607009E-01 -0.24650107115E-01  0.11799247551E+00  0.51100000000E-03 0. -1.
</event>
<event>
 8    1  0.1111182E+005  0.1043930E+01  0.7957747E-01            NaN
         13   -1    0    0    0    0  0.00000000000E+00  0.00000000000E+00  0.74505805969E-08  0.10566000000E+00  0.10566000000E+00 0.  1.
     999900   -1    0    0    0    0 -0.00000000000E+00 -0.00000000000E+00 -0.74505805969E-08  0.93827000000E+00  0.93827000000E+00 0.  1.
     999902    2    1    2    0    0  0.57054099863E-02  0.15317404447E-01  0.22223397369E-01  0.10163427933E+01  0.10159683162E+01 0.  0.
     999903    2    3    3    0    0  0.47161189147E-01 -0.41264412855E-01  0.11113922638E+00  0.12908515975E+00  0.19599012614E-01 0.  0.
         14    1    1    2    0    0 -0.57054099863E-02 -0.15317404447E-01 -0.22223397369E-01  0.27587206686E-01  0.00000000000E+00 0. -1.
     999901    1    3    3    0    0 -0.41455779160E-01  0.56581817302E-01 -0.88915829015E-01  0.88725763357E+00  0.88000000000E+00 0.  1.
        -11    1    4    4    0    0  0.35232022927E-01 -0.29348054523E-01  0.61893564349E-01  0.77030371755E-01  0.51100000000E-03 0. -1.
         11    1    4    4    0    0  0.11929166220E-01 -0.11916358332E-01  0.49245662035E-01  0.52054787992E-01  0.51100000000E-03 0.  1.
</event>
<event>
 8    1  0.1111182E+005  0.1043930E+01  0.7957747E-01            NaN
         13   -1    0    0    0    0  0.00000000000E+00  0.00000000000E+00  0.74505805969E-08  0.10566000000E+00  0.10566000000E+00 0.  1.
     999900   -1    0    0    0    0 -0.00000000000E+00 -0.00000000000E+00 -0.74505805969E-08  0.93827000000E+00  0.93827000000E+00 0.  1.
     999902    2    1    2    0    0  0.14066011268E-01  0.31151588600E-03 -0.18433981369E-01  0.10207403173E+01  0.10204768660E+01 0.  0.
     999903    2    3    3    0    0  0.39946796070E-01  0.10542505815E+00 -0.66975918831E-01  0.13277917429E+00  0.20840969726E-01 0.  0.
         14    1    1    2    0    0 -0.14066011268E-01 -0.31151588600E-03  0.18433981369E-01  0.23189682711E-01  0.00000000000E+00 0.  1.
     999901    1    3    3    0    0 -0.25880784802E-01 -0.10511354226E+00  0.48541937462E-01  0.88796114300E+00  0.88000000000E+00 0.  1.
        -11    1    4    4    0    0  0.33114402799E-01  0.62622233144E-01 -0.35709052355E-01  0.79331616004E-01  0.51100000000E-03 0.  1.
         11    1    4    4    0    0  0.68323932710E-02  0.42802825005E-01 -0.31266866476E-01  0.53447558283E-01  0.51100000000E-03 0. -1.
</event>
<event>
 8    1  0.1111182E+005  0.1043930E+01  0.7957747E-01            NaN
         13   -1    0    0    0    0  0.00000000000E+00  0.00000000000E+00  0.74505805969E-08  0.10566000000E+00  0.10566000000E+00 0.  1.
     999900   -1    0    0    0    0 -0.00000000000E+00 -0.00000000000E+00 -0.74505805969E-08  0.93827000000E+00  0.93827000000E+00 0.  1.
     999902    2    1    2    0    0 -0.22210989078E-01 -0.65211479960E-02  0.26076701417E-02  0.10206350789E+01  0.10203692032E+01 0.  0.
     999903    2    3    3    0    0  0.98514537806E-01  0.72784592314E-01 -0.32035188417E-01  0.12818665967E+00  0.20071257601E-01 0.  0.
         14    1    1    2    0    0  0.22210989078E-01  0.65211479960E-02 -0.26076701417E-02  0.23294921132E-01  0.00000000000E+00 0. -1.
     999901    1    3    3    0    0 -0.12072552688E+00 -0.79305740310E-01  0.34642858558E-01  0.89244841920E+00  0.88000000000E+00 0. -1.
        -11    1    4    4    0    0  0.82411352750E-01  0.66499058169E-01 -0.32847283924E-01  0.11087362618E+00  0.51100000000E-03 0. -1.
         11    1    4    4    0    0  0.16103185056E-01  0.62855341456E-02  0.81209550782E-03  0.17313033488E-01  0.51100000000E-03 0.  1.
</event>
<event>
 7    1  0.1280333E+005  0.1043930E+01  0.7957747E-01            NaN
         13   -1    0    0    0    0  0.00000000000E+00  0.00000000000E+00  0.74505805969E-08  0.10566000000E+00  0.10566000000E+00 0. -1.
     999900   -1    0    0    0    0 -0.00000000000E+00 -0.00000000000E+00 -0.74505805969E-08  0.93827000000E+00  0.93827000000E+00 0.  1.
     999903    2    1    2    0    0  0.68859663682E-01  0.71836901642E-01 -0.35297431999E-01  0.10736526471E+00  0.19472997755E-01 0.  0.
         14    1    1    2    0    0 -0.28973485224E-01 -0.35922025049E-01  0.29756964812E-01  0.54912035880E-01  0.00000000000E+00 0. -1.
     999901    1    1    2    0    0 -0.39886178457E-01 -0.35914876593E-01  0.55404671866E-02  0.88165269941E+00  0.88000000000E+00 0. -1.
        -11    1    3    3    0    0  0.13505793639E-01  0.26804269823E-01 -0.95241963382E-02  0.31493599024E-01  0.51100000000E-03 0. -1.
         11    1    3    3    0    0  0.55353870043E-01  0.45032631819E-01 -0.25773235661E-01  0.75871665691E-01  0.51100000000E-03 0.  1.
</event>
<event>
 8    1  0.1111182E+005  0.1043930E+01  0.7957747E-01            NaN
         13   -1    0    0    0    0  0.00000000000E+00  0.00000000000E+00  0.74505805969E-08  0.10566000000E+00  0.10566000000E+00 0. -1.
     999900   -1    0    0    0    0 -0.00000000000E+00 -0.00000000000E+00 -0.74505805969E-08  0.93827000000E+00  0.93827000000E+00 0. -1.
     999902    2    1    2    0    0  0.88709342907E-02  0.12136311725E-01  0.17881956778E-01  0.10205687518E+01  0.10203013424E+01 0.  0.
     999903    2    3    3    0    0  0.51246372606E-01 -0.83475076427E-01 -0.82101913602E-01  0.12875375440E+00  0.15573245186E-01 0.  0.
         14    1    1    2    0    0 -0.88709342907E-02 -0.12136311725E-01 -0.17881956778E-01  0.23361248162E-01  0.00000000000E+00 0.  1.
     999901    1    3    3    0    0 -0.42375438315E-01  0.95611388152E-01  0.99983870380E-01  0.89181499744E+00  0.88000000000E+00 0.  1.
        -11    1    4    4    0    0  0.16140492530E-01 -0.22050750196E-01 -0.31870131857E-01  0.41984729473E-01  0.51100000000E-03 0.  1.
         11    1    4    4    0    0  0.35105880076E-01 -0.61424326231E-01 -0.50231781745E-01  0.86769024929E-01  0.51100000000E-03 0. -1.
</event>
<event>
 8    1  0.1111182E+005  0.1043930E+01  0.7957747E-01            NaN
         13   -1    0    0    0    0  0.00000000000E+00  0.00000000000E+00  0.74505805969E-08  0.10566000000E+00  0.10566000000E+00 0. -1.
     999900   -1    0    0    0    0 -0.00000000000E+00 -0.00000000000E+00 -0.74505805969E-08  0.93827000000E+00  0.93827000000E+00 0. -1.
     999902    2    1    2    0    0 -0.56819992878E-02  0.21022167347E-01 -0.10285138195E-01  0.10198467962E+01  0.10195623998E+01 0.  0.
     999903    2    3    3    0    0 -0.34400797600E-01  0.93595690862E-01  0.83187680506E-01  0.13146126420E+00  0.20452519991E-01 0.  0.
         14    1    1    2    0    0  0.56819992878E-02 -0.21022167347E-01  0.10285138195E-01  0.24083203765E-01  0.00000000000E+00 0. -1.
     999901    1    3    3    0    0  0.28718798312E-01 -0.72573523515E-01 -0.93472818701E-01  0.88838553203E+00  0.88000000000E+00 0. -1.
        -11    1    4    4    0    0 -0.28835218532E-01  0.49754288473E-01  0.44309699317E-01  0.72598688858E-01  0.51100000000E-03 0.  1.
         11    1    4    4    0    0 -0.55655790680E-02  0.43841402389E-01  0.38877981188E-01  0.58862575343E-01  0.51100000000E-03 0. -1.
</event>
<event>
 8    1  0.1111182E+005  0.1043930E+01  0.7957747E-01            NaN
         13   -1    0    0    0    0  0.00000000000E+00  0.00000000000E+00  0.74505805969E-08  0.10566000000E+00  0.10566000000E+00 0. -1.
     999900   -1    0    0    0    0 -0.00000000000E+00 -0.00000000000E+00 -0.74505805969E-08  0.93827000000E+00  0.93827000000E+00 0.  1.
     999902    2    1    2    0    0 -0.16642928689E-01  0.15204661497E-01  0.55468333032E-02  0.10207150013E+01  0.10204509678E+01 0.  0.
     999903    2    3    3    0    0  0.12035375128E+00  0.36159412815E-01  0.24540114424E-01  0.12966621660E+00  0.20459274881E-01 0.  0.
         14    1    1    2    0    0  0.16642928689E-01 -0.15204661497E-01 -0.55468333032E-02  0.23214998735E-01  0.00000000000E+00 0. -1.
     999901    1    3    3    0    0 -0.13699667997E+00 -0.20954751318E-01 -0.18993281120E-01  0.89104878467E+00  0.88000000000E+00 0.  1.
        -11    1    4    4    0    0  0.85315094107E-01  0.34001066485E-01  0.13288997335E-01  0.92798687361E-01  0.51100000000E-03 0.  1.
         11    1    4    4    0    0  0.35038657174E-01  0.21583463296E-02  0.11251117088E-01  0.36867529239E-01  0.51100000000E-03 0. -1.
</event>
<event>
 8    1  0.1111182E+005  0.1043930E+01  0.7957747E-01            NaN
         13   -1    0    0    0    0  0.00000000000E+00  0.00000000000E+00  0.74505805969E-08  0.10566000000E+00  0.10566000000E+00 0. -1.
     999900   -1    0    0    0    0 -0.00000000000E+00 -0.00000000000E+00 -0.74505805969E-08  0.93827000000E+00  0.93827000000E+00 0. -1.
     999902    2    1    2    0    0 -0.16981582726E-01 -0.13641489957E-02 -0.15552761947E-01  0.10208621987E+01  0.10206015409E+01 0.  0.
     999903    2    3    3    0    0  0.10679989547E+00  0.49060557269E-01  0.48061160496E-01  0.12849947170E+00  0.19725190154E-01 0.  0.
         14    1    1    2    0    0  0.16981582726E-01  0.13641489957E-02  0.15552761947E-01  0.23067801337E-01  0.00000000000E+00 0.  1.
     999901    1    3    3    0    0 -0.12378147820E+00 -0.50424706265E-01 -0.63613922443E-01  0.89236272696E+00  0.88000000000E+00 0. -1.
        -11    1    4    4    0    0  0.47159713603E-01  0.11334863579E-01  0.17057846257E-01  0.51417399384E-01  0.51100000000E-03 0.  1.
         11    1    4    4    0    0  0.59640181867E-01  0.37725693690E-01  0.31003314239E-01  0.77082072315E-01  0.51100000000E-03 0. -1.
</event>
<event>
 8    1  0.1111182E+005  0.1043930E+01  0.7957747E-01            NaN
         13   -1    0    0    0    0  0.00000000000E+00  0.00000000000E+00  0.74505805969E-08  0.10566000000E+00  0.10566000000E+00 0.  1.
     999900   -1    0    0    0    0 -0.00000000000E+00 -0.00000000000E+00 -0.74505805969E-08  0.93827000000E+00  0.93827000000E+00 0. -1.
     999902    2    1    2    0    0 -0.84470371042E-02 -0.19951338787E-01 -0.10772953576E-01  0.10197336184E+01  0.10194465104E+01 0.  0.
     999903    2    3    3    0    0 -0.23415496801E-01  0.95175317749E-01  0.79336422813E-01  0.12754647346E+00  0.19162680086E-01 0.  0.
         14    1    1    2    0    0  0.84470371042E-02  0.19951338787E-01  0.10772953576E-01  0.24196381630E-01  0.00000000000E+00 0.  1.
     999901    1    3    3    0    0  0.14968459697E-01 -0.11512665654E+00 -0.90109376389E-01  0.89218714491E+00  0.88000000000E+00 0. -1.
        -11    1    4    4    0    0 -0.87539326841E-02  0.42637058523E-01  0.23418065968E-01  0.49428908866E-01  0.51100000000E-03 0. -1.
         11    1    4    4    0    0 -0.14661564117E-01  0.52538259226E-01  0.55918356845E-01  0.78117564594E-01  0.51100000000E-03 0.  1.
</event>
<event>
 8    1  0.1111182E+005  0.1043930E+01  0.7957747E-01            NaN
         13   -1    0    0    0    0  0.00000000000E+00  0.00000000000E+00  0.74505805969E-08  0.10566000000E+00  0.10566000000E+00 0. -1.
     999900   -1    0    0    0    0 -0.00000000000E+00 -0.00000000000E+00 -0.74505805969E-08  0.93827000000E+00  0.93827000000E+00 0.  1.
     999902    2    1    2    0    0  0.78080274959E-03  0.15304028941E-01  0.18988279982E-01  0.10195296367E+01  0.10192376084E+01 0.  0.
     999903    2    3    3    0    0 -0.10178499141E+00  0.31215128284E-02 -0.75819672383E-01  0.12843104297E+00  0.19390249096E-01 0.  0.
         14    1    1    2    0    0 -0.78080274959E-03 -0.15304028941E-01 -0.18988279982E-01  0.24400363346E-01  0.00000000000E+00 0.  1.
     999901    1    3    3    0    0  0.10256579416E+00  0.12182516113E-01  0.94807952365E-01  0.89109859368E+00  0.88000000000E+00 0. -1.
        -11    1    4    4    0    0 -0.56351397731E-01  0.11342978143E-01 -0.41468097626E-01  0.70880232936E-01  0.51100000000E-03 0. -1.
         11    1    4    4    0    0 -0.45433593678E-01 -0.82214653145E-02 -0.34351574758E-01  0.57550810036E-01  0.51100000000E-03 0.  1.
</event>
<event>
 8    1  0.1111182E+005  0.1043930E+01  0.7957747E-01            NaN
         13   -1    0    0    0    0  0.00000000000E+00  0.00000000000E+00  0.74505805969E-08  0.10566000000E+00  0.10566000000E+00 0. -1.
     999900   -1    0    0    0    0 -0.00000000000E+00 -0.00000000000E+00 -0.74505805969E-08  0.93827000000E+00  0.93827000000E+00 0. -1.
     999902    2    1    2    0    0  0.15725174400E-01  0.17446537453E-01  0.21769017731E-02  0.10203418318E+01  0.10200691408E+01 0.  0.
     999903    2    3    3    0    0  0.91337783272E-02 -0.10709941351E+00  0.68542412565E-01  0.12907334168E+00  0.20202844676E-01 0.  0.
         14    1    1    2    0    0 -0.15725174400E-01 -0.17446537453E-01 -0.21769017731E-02  0.23588168227E-01  0.00000000000E+00 0. -1.
     999901    1    3    3    0    0  0.65913960724E-02  0.12454595096E+00 -0.66365510792E-01  0.89126849009E+00  0.88000000000E+00 0. -1.
        -11    1    4    4    0    0  0.67422496632E-02 -0.57911800869E-01  0.48735873575E-01  0.75991322561E-01  0.51100000000E-03 0. -1.
         11    1    4    4    0    0  0.23915286639E-02 -0.49187612638E-01  0.19806538990E-01  0.53082019123E-01  0.51100000000E-03 0.  1.
</event>
<event>
 8    1  0.1111182E+005  0.1043930E+01  0.7957747E-01            NaN
         13   -1    0    0    0    0  0.00000000000E+00  0.00000000000E+00  0.74505805969E-08  0.10566000000E+00  0.10566000000E+00 0.  1.
     999900   -1    0    0    0    0 -0.00000000000E+00 -0.00000000000E+00 -0.74505805969E-08  0.93827000000E+00  0.93827000000E+00 0. -1.
     999902    2    1    2    0    0  0.10226869565E-01  0.14250229629E-02 -0.21811657885E-01  0.10197976986E+01  0.10195121275E+01 0.  0.
     999903    2    3    3    0    0  0.87384150661E-02  0.91596962027E-01  0.87665891552E-01  0.12844001061E+00  0.18578601506E-01 0.  0.
         14    1    1    2    0    0 -0.10226869565E-01 -0.14250229629E-02  0.21811657885E-01  0.24132301408E-01  0.00000000000E+00 0.  1.
     999901    1    3    3    0    0  0.14884544987E-02 -0.90171939064E-01 -0.10947754944E+00  0.89135768798E+00  0.88000000000E+00 0. -1.
        -11    1    4    4    0    0  0.11659222638E-02  0.59464112078E-01  0.45500515369E-01  0.74885900007E-01  0.51100000000E-03 0. -1.
         11    1    4    4    0    0  0.75724928023E-02  0.32132849949E-01  0.42165376182E-01  0.53554110605E-01  0.51100000000E-03 0.  1.
</event>
<event>
 8    1  0.1111182E+005  0.1043930E+01  0.7957747E-01            NaN
         13   -1    0    0    0    0  0.00000000000E+00  0.00000000000E+00  0.74505805969E-08  0.10566000000E+00  0.10566000000E+00 0.  1.
     999900   -1    0    0    0    0 -0.00000000000E+00 -0.00000000000E+00 -0.74505805969E-08  0.93827000000E+00  0.93827000000E+00 0. -1.
     999902    2    1    2    0    0 -0.10356373608E-01 -0.10380965762E-01 -0.26353126001E-01  0.10137719799E+01  0.10133233053E+01 0.  0.
     999903    2    3    3    0    0 -0.55109597812E-02 -0.44620187724E-01  0.11194018875E+00  0.12230081199E+00  0.20138295008E-01 0.  0.
         14    1    1    2    0    0  0.10356373608E-01  0.10380965762E-01  0.26353126001E-01  0.30158020069E-01  0.00000000000E+00 0.  1.
     999901    1    3    3    0    0 -0.48454138270E-02  0.34239221962E-01 -0.13829331476E+00  0.89147116794E+00  0.88000000000E+00 0. -1.
        -11    1    4    4    0    0 -0.73420859721E-02 -0.34639520698E-01  0.62572002174E-01  0.71897977703E-01  0.51100000000E-03 0.  1.
         11    1    4    4    0    0  0.18311261909E-02 -0.99806670258E-02  0.49368186580E-01  0.50402834292E-01  0.51100000000E-03 0. -1.
</event>
<event>
 8    1  0.1111182E+005  0.1043930E+01  0.7957747E-01            NaN
         13   -1    0    0    0    0  0.00000000000E+00  0.00000000000E+00  0.74505805969E-08  0.10566000000E+00  0.10566000000E+00 0. -1.
     999900   -1    0    0    0    0 -0.00000000000E+00 -0.00000000000E+00 -0.74505805969E-08  0.93827000000E+00  0.93827000000E+00 0. -1.
     999902    2    1    2    0    0  0.10460933708E-01 -0.94682493539E-03  0.20588065632E-01  0.10208173182E+01  0.10205556335E+01 0.  0.
     999903    2    3    3    0    0 -0.35978545613E-01 -0.11530586713E+00 -0.43358240219E-01  0.12990556852E+00  0.20140034665E-01 0.  0.
         14    1    1    2    0    0 -0.10460933708E-01  0.94682493539E-03 -0.20588065632E-01  0.23112681756E-01  0.00000000000E+00 0.  1.
     999901    1    3    3    0    0  0.46439479321E-01  0.11435904220E+00  0.63946305851E-01  0.89091174973E+00  0.88000000000E+00 0.  1.
        -11    1    4    4    0    0 -0.36231528007E-01 -0.92801542249E-01 -0.31651124455E-01  0.10453183566E+00  0.51100000000E-03 0.  1.
         11    1    4    4    0    0  0.25298239475E-03 -0.22504324886E-01 -0.11707115765E-01  0.25373732859E-01  0.51100000000E-03 0. -1.
</event>
<event>
 8    1  0.1111182E+005  0.1043930E+01  0.7957747E-01            NaN
         13   -1    0    0    0    0  0.00000000000E+00  0.00000000000E+00  0.74505805969E-08  0.10566000000E+00  0.10566000000E+00 0.  1.
     999900   -1    0    0    0    0 -0.00000000000E+00 -0.00000000000E+00 -0.74505805969E-08  0.93827000000E+00  0.93827000000E+00 0.  1.
     999902    2    1    2    0    0  0.82327323853E-02 -0.26511800174E-02  0.21664644006E-01  0.10206026890E+01  0.10203360649E+01 0.  0.
     999903    2    3    3    0    0  0.10433667909E+00  0.76800998909E-01  0.13905576980E-01  0.13177828542E+00  0.19687950619E-01 0.  0.
         14    1    1    2    0    0 -0.82327323853E-02  0.26511800174E-02 -0.21664644006E-01  0.23327310987E-01  0.00000000000E+00 0. -1.
     999901    1    3    3    0    0 -0.96103946702E-01 -0.79452178927E-01  0.77590670254E-02  0.88882440360E+00  0.88000000000E+00 0.  1.
        -11    1    4    4    0    0  0.23664111876E-01  0.27698177664E-01  0.90720319902E-03  0.36445347788E-01  0.51100000000E-03 0. -1.
         11    1    4    4    0    0  0.80672567211E-01  0.49102821246E-01  0.12998373781E-01  0.95332937627E-01  0.51100000000E-03 0.  1.
</event>
<event>
 8    1  0.1111182E+005  0.1043930E+01  0.7957747E-01            NaN
         13   -1    0    0    0    0  0.00000000000E+00  0.00000000000E+00  0.74505805969E-08  0.10566000000E+00  0.10566000000E+00 0. -1.
     999900   -1    0    0    0    0 -0.00000000000E+00 -0.00000000000E+00 -0.74505805969E-08  0.93827000000E+00  0.93827000000E+00 0.  1.
     999902    2    1    2    0    0  0.17403720286E-01 -0.15354611324E-01  0.52835647673E-02  0.10201272769E+01  0.10198495436E+01 0.  0.
     999903    2    3    3    0    0 -0.74025664192E-01 -0.10194686598E+00  0.27636908278E-01  0.13088196608E+00  0.22210986074E-01 0.  0.
         14    1    1    2    0    0 -0.17403720286E-01  0.15354611324E-01 -0.52835647673E-02  0.23802723066E-01  0.00000000000E+00 0. -1.
     999901    1    3    3    0    0  0.91429384478E-01  0.86592254659E-01 -0.22353343511E-01  0.88924531086E+00  0.88000000000E+00 0.  1.
        -11    1    4    4    0    0 -0.39847888270E-01 -0.64250510708E-01  0.68557477150E-02  0.75916037328E-01  0.51100000000E-03 0.  1.
         11    1    4    4    0    0 -0.34177775922E-01 -0.37696355275E-01  0.20781160563E-01  0.54965928750E-01  0.51100000000E-03 0. -1.
</event>
<event>
 8    1  0.1111182E+005  0.1043930E+01  0.7957747E-01            NaN
         13   -1    0    0    0    0  0.00000000000E+00  0.00000000000E+00  0.74505805969E-08  0.10566000000E+00  0.10566000000E+00 0.  1.
     999900   -1    0    0    0    0 -0.00000000000E+00 -0.00000000000E+00 -0.74505805969E-08  0.93827000000E+00  0.93827000000E+00 0. -1.
     999902    2    1    2    0    0 -0.82987245717E-02 -0.21114479965E-01 -0.13489623860E-01  0.10175356816E+01  0.10171932969E+01 0.  0.
     999903    2    3    3    0    0  0.43229347463E-01 -0.10522087589E+00  0.57951901656E-01  0.12914786107E+00  0.19507380854E-01 0.  0.
         14    1    1    2    0    0  0.82987245717E-02  0.21114479965E-01  0.13489623860E-01  0.26394318434E-01  0.00000000000E+00 0. -1.
     999901    1    3    3    0    0 -0.51528072035E-01  0.84106395924E-01 -0.71441525515E-01  0.88838782050E+00  0.88000000000E+00 0. -1.
        -11    1    4    4    0    0  0.20585986596E-01 -0.49734508498E-01  0.16583216974E-01  0.56325557129E-01  0.51100000000E-03 0. -1.
         11    1    4    4    0    0  0.22643360867E-01 -0.55486367391E-01  0.41368684681E-01  0.72822303938E-01  0.51100000000E-03 0.  1.
</event>
<event>
 8    1  0.1111182E+005  0.1043930E+01  0.7957747E-01            NaN
         13   -1    0    0    0    0  0.00000000000E+00  0.00000000000E+00  0.74505805969E-08  0.10566000000E+00  0.10566000000E+00 0.  1.
     999900   -1    0    0    0    0 -0.00000000000E+00 -0.00000000000E+00 -0.74505805969E-08  0.93827000000E+00  0.93827000000E+00 0. -1.
     999902    2    1    2    0    0 -0.94058624782E-02 -0.10364514192E-01  0.16837037357E-01  0.10220352693E+01  0.10218007206E+01 0.  0.
     999903    2    3    3    0    0 -0.35960231513E-01 -0.11675260316E+00  0.52578803185E-01  0.13451003939E+00  0.20102526145E-01 0.  0.
         14    1    1    2    0    0  0.94058624782E-02  0.10364514192E-01 -0.16837037357E-01  0.21894730653E-01  0.00000000000E+00 0. -1.
     999901    1    3    3    0    0  0.26554369035E-01  0.10638808897E+00 -0.35741765828E-01  0.88752522996E+00  0.88000000000E+00 0.  1.
        -11    1    4    4    0    0 -0.23903608039E-01 -0.77064363255E-01  0.44845958101E-01  0.92313160709E-01  0.51100000000E-03 0.  1.
         11    1    4    4    0    0 -0.12056623475E-01 -0.39688239903E-01  0.77328450839E-02  0.42196878679E-01  0.51100000000E-03 0. -1.
</event>
<event>
 8    1  0.1111182E+005  0.1043930E+01  0.7957747E-01            NaN
         13   -1    0    0    0    0  0.00000000000E+00  0.00000000000E+00  0.74505805969E-08  0.10566000000E+00  0.10566000000E+00 0. -1.
     999900   -1    0    0    0    0 -0.00000000000E+00 -0.00000000000E+00 -0.74505805969E-08  0.93827000000E+00  0.93827000000E+00 0. -1.
     999902    2    1    2    0    0  0.44102055846E-02 -0.22307378190E-01 -0.13406360689E-01  0.10175330392E+01  0.10171905850E+01 0.  0.
     999903    2    3    3    0    0  0.64948480271E-01  0.10047291832E+00  0.33318704114E-01  0.12572413833E+00  0.19578317341E-01 0.  0.
         14    1    1    2    0    0 -0.44102055846E-02  0.22307378190E-01  0.13406360689E-01  0.26396960847E-01  0.00000000000E+00 0. -1.
     999901    1    3    3    0    0 -0.60538274687E-01 -0.12278029651E+00 -0.46725064804E-01  0.89180890083E+00  0.88000000000E+00 0. -1.
        -11    1    4    4    0    0  0.22769213425E-01  0.53209975820E-01  0.16045813267E-01  0.60062199853E-01  0.51100000000E-03 0.  1.
         11    1    4    4    0    0  0.42179266846E-01  0.47262942495E-01  0.17272890848E-01  0.65661938474E-01  0.51100000000E-03 0. -1.
</event>
<event>
 8    1  0.1111182E+005  0.1043930E+01  0.7957747E-01            NaN
         13   -1    0    0    0    0  0.00000000000E+00  0.00000000000E+00  0.74505805969E-08  0.10566000000E+00  0.10566000000E+00 0. -1.
     999900   -1    0    0    0    0 -0.00000000000E+00 -0.00000000000E+00 -0.74505805969E-08  0.93827000000E+00  0.93827000000E+00 0.  1.
     999902    2    1    2    0    0  0.62817408307E-02  0.85523068400E-02  0.21746964431E-01  0.10197322174E+01  0.10194450758E+01 0.  0.
     999903    2    3    3    0    0  0.10296102231E+00  0.69853035232E-01 -0.34597397043E-01  0.13053069366E+00  0.18996406482E-01 0.  0.
         14    1    1    2    0    0 -0.62817408307E-02 -0.85523068400E-02 -0.21746964431E-01  0.24197782587E-01  0.00000000000E+00 0.  1.
     999901    1    3    3    0    0 -0.96679281482E-01 -0.61300728392E-01  0.56344361474E-01  0.88920152375E+00  0.88000000000E+00 0. -1.
        -11    1    4    4    0    0  0.48507454158E-01  0.27493142148E-01 -0.24102283735E-01  0.60745593884E-01  0.51100000000E-03 0. -1.
         11    1    4    4    0    0  0.54453568154E-01  0.42359893084E-01 -0.10495113308E-01  0.69785099779E-01  0.51100000000E-03 0.  1.
</event>
<event>
 7    1  0.1111182E+005  0.1043930E+01  0.7957747E-01            NaN
         13   -1    0    0    0    0  0.00000000000E+00  0.00000000000E+00  0.74505805969E-08  0.10566000000E+00  0.10566000000E+00 0.  1.
     999900   -1    0    0    0    0 -0.00000000000E+00 -0.00000000000E+00 -0.74505805969E-08  0.93827000000E+00  0.93827000000E+00 0.  1.
     999903    2    1    2    0    0 -0.77055320903E-01 -0.13522623607E-02  0.30860504507E-01  0.85266313706E-01  0.19458222466E-01 0.  0.
         14    1    1    2    0    0  0.15038350066E-01  0.70916695996E-01 -0.12424071712E-01  0.73550576487E-01  0.00000000000E+00 0.  1.
     999901    1    1    2    0    0  0.62016970837E-01 -0.69564433635E-01 -0.18436432794E-01  0.88511310981E+00  0.88000000000E+00 0.  1.
        -11    1    3    3    0    0 -0.33901027613E-01 -0.98296777262E-02  0.16773092030E-01  0.39083244167E-01  0.51100000000E-03 0. -1.
         11    1    3    3    0    0 -0.43154293291E-01  0.84774153655E-02  0.14087412477E-01  0.46183069538E-01  0.51100000000E-03 0.  1.
</event>
<event>
 8    1  0.1125834E+005  0.1043930E+01  0.7957747E-01            NaN
         13   -1    0    0    0    0  0.00000000000E+00  0.00000000000E+00  0.74505805969E-08  0.10566000000E+00  0.10566000000E+00 0. -1.
     999900   -1    0    0    0    0 -0.00000000000E+00 -0.00000000000E+00 -0.74505805969E-08  0.93827000000E+00  0.93827000000E+00 0.  1.
     999902    2    1    2    0    0 -0.18746659712E-01 -0.17344118279E-01 -0.23760365315E-02  0.10182804145E+01  0.10179573180E+01 0.  0.
     999903    2    3    3    0    0 -0.14291596794E-01  0.28501748913E-01 -0.12278141144E+00  0.12888784341E+00  0.22807931770E-01 0.  0.
         14    1    1    2    0    0  0.18746659712E-01  0.17344118279E-01  0.23760365315E-02  0.25649585548E-01  0.00000000000E+00 0. -1.
     999901    1    3    3    0    0 -0.44550629177E-02 -0.45845867192E-01  0.12040537491E+00  0.88939257105E+00  0.88000000000E+00 0. -1.
        -11    1    4    4    0    0  0.18162955594E-02  0.21564418232E-01 -0.66397479449E-01  0.69837020708E-01  0.51100000000E-03 0.  1.
         11    1    4    4    0    0 -0.16107892353E-01  0.69373306810E-02 -0.56383931995E-01  0.59050822697E-01  0.51100000000E-03 0. -1.
</event>
<event>
 8    1  0.1111182E+005  0.1043930E+01  0.7957747E-01            NaN
         13   -1    0    0    0    0  0.00000000000E+00  0.00000000000E+00  0.74505805969E-08  0.10566000000E+00  0.10566000000E+00 0. -1.
     999900   -1    0    0    0    0 -0.00000000000E+00 -0.00000000000E+00 -0.74505805969E-08  0.93827000000E+00  0.93827000000E+00 0. -1.
     999902    2    1    2    0    0  0.15338035126E-01  0.70703646572E-02 -0.16382098837E-01  0.10204009001E+01  0.10201295891E+01 0.  0.
     999903    2    3    3    0    0 -0.32181989229E-03  0.91384008698E-01 -0.94705506906E-01  0.13277002084E+00  0.17538665357E-01 0.  0.
         14    1    1    2    0    0 -0.15338035126E-01 -0.70703646572E-02  0.16382098837E-01  0.23529099860E-01  0.00000000000E+00 0.  1.
     999901    1    3    3    0    0  0.15659855019E-01 -0.84313644041E-01  0.78323408069E-01  0.88763087930E+00  0.88000000000E+00 0.  1.
        -11    1    4    4    0    0  0.71730504295E-02  0.53444734934E-01 -0.48642275036E-01  0.72623167009E-01  0.51100000000E-03 0.  1.
         11    1    4    4    0    0 -0.74948703218E-02  0.37939273763E-01 -0.46063231870E-01  0.60146853834E-01  0.51100000000E-03 0. -1.
</event>
<event>
 8    1  0.1111182E+005  0.1043930E+01  0.7957747E-01            NaN
         13   -1    0    0    0    0  0.00000000000E+00  0.00000000000E+00  0.74505805969E-08  0.10566000000E+00  0.10566000000E+00 0. -1.
     999900   -1    0    0    0    0 -0.00000000000E+00 -0.00000000000E+00 -0.74505805969E-08  0.93827000000E+00  0.93827000000E+00 0. -1.
     999902    2    1    2    0    0  0.16285007853E-01  0.17502516363E-01  0.27463418039E-02  0.10198658783E+01  0.10195819377E+01 0.  0.
     999903    2    3    3    0    0 -0.10494825654E+00 -0.20234131078E-02 -0.70847509191E-01  0.12829713658E+00  0.20556141257E-01 0.  0.
         14    1    1    2    0    0 -0.16285007853E-01 -0.17502516363E-01 -0.27463418039E-02  0.24064121698E-01  0.00000000000E+00 0.  1.
     999901    1    3    3    0    0  0.12123326440E+00  0.19525929470E-01  0.73593850995E-01  0.89156874173E+00  0.88000000000E+00 0.  1.
        -11    1    4    4    0    0 -0.76327485161E-01  0.74535212469E-02 -0.48130071781E-01  0.90543939061E-01  0.51100000000E-03 0. -1.
         11    1    4    4    0    0 -0.28620771381E-01 -0.94769343547E-02 -0.22717437409E-01  0.37753197516E-01  0.51100000000E-03 0.  1.
</event>
<event>
 8    1  0.1111182E+005  0.1043930E+01  0.7957747E-01            NaN
         13   -1    0    0    0    0  0.00000000000E+00  0.00000000000E+00  0.74505805969E-08  0.10566000000E+00  0.10566000000E+00 0. -1.
     999900   -1    0    0    0    0 -0.00000000000E+00 -0.00000000000E+00 -0.74505805969E-08  0.93827000000E+00  0.93827000000E+00 0. -1.
     999902    2    1    2    0    0 -0.10855453441E-01  0.62906551600E-02 -0.19928356539E-01  0.10203810593E+01  0.10201092852E+01 0.  0.
     999903    2    3    3    0    0 -0.82822201716E-03 -0.12315890522E+00 -0.42480244781E-01  0.13056853880E+00  0.86469787395E-02 0.  0.
         14    1    1    2    0    0  0.10855453441E-01 -0.62906551600E-02  0.19928356539E-01  0.23548940658E-01  0.00000000000E+00 0. -1.
     999901    1    3    3    0    0 -0.10027231423E-01  0.12944956038E+00  0.22551888242E-01  0.88981252054E+00  0.88000000000E+00 0. -1.
        -11    1    4    4    0    0  0.28668099376E-02 -0.17624485561E-01 -0.63410726678E-02  0.18955511444E-01  0.51100000000E-03 0.  1.
         11    1    4    4    0    0 -0.36950319547E-02 -0.10553441966E+00 -0.36139172113E-01  0.11161302736E+00  0.51100000000E-03 0. -1.
</event>
<event>
 8    1  0.1111182E+005  0.1043930E+01  0.7957747E-01            NaN
         13   -1    0    0    0    0  0.00000000000E+00  0.00000000000E+00  0.74505805969E-08  0.10566000000E+00  0.10566000000E+00 0.  1.
     999900   -1    0    0    0    0 -0.00000000000E+00 -0.00000000000E+00 -0.74505805969E-08  0.93827000000E+00  0.93827000000E+00 0.  1.
     999902    2    1    2    0    0 -0.14174773247E-01 -0.49945383735E-02  0.14346803202E-01  0.10231525995E+01  0.10229416119E+01 0.  0.
     999903    2    3    3    0    0  0.88117418809E-01 -0.18801906074E-01 -0.92542766461E-01  0.13069547667E+00  0.19973803538E-01 0.  0.
         14    1    1    2    0    0  0.14174773247E-01  0.49945383735E-02 -0.14346803202E-01  0.20777400518E-01  0.00000000000E+00 0. -1.
     999901    1    3    3    0    0 -0.10229219206E+00  0.13807367701E-01  0.10688956966E+00  0.89245712281E+00  0.88000000000E+00 0. -1.
        -11    1    4    4    0    0  0.40371580126E-01 -0.18596798574E-01 -0.47463198440E-01  0.65028622361E-01  0.51100000000E-03 0.  1.
         11    1    4    4    0    0  0.47745838683E-01 -0.20510749997E-03 -0.45079568021E-01  0.65666854307E-01  0.51100000000E-03 0. -1.
</event>
<event>
 8    1  0.1111182E+005  0.1043930E+01  0.7957747E-01            NaN
         13   -1    0    0    0    0  0.00000000000E+00  0.00000000000E+00  0.74505805969E-08  0.10566000000E+00  0.10566000000E+00 0. -1.
     999900   -1    0    0    0    0 -0.00000000000E+00 -0.00000000000E+00 -0.74505805969E-08  0.93827000000E+00  0.93827000000E+00 0.  1.
     999902    2    1    2    0    0  0.21162963528E-01  0.10563273053E-01  0.10961093592E-01  0.10178608739E+01  0.10175269821E+01 0.  0.
     999903    2    3    3    0    0  0.40524527968E-01  0.12078668741E+00 -0.18813097332E-01  0.13027393523E+00  0.19639357121E-01 0.  0.
         14    1    1    2    0    0 -0.21162963528E-01 -0.10563273053E-01 -0.10961093592E-01  0.26069126100E-01  0.00000000000E+00 0.  1.
     999901    1    3    3    0    0 -0.19361564440E-01 -0.11022341435E+00  0.29774190923E-01  0.88758693867E+00  0.88000000000E+00 0.  1.
        -11    1    4    4    0    0  0.87247528875E-02  0.51147139851E-01 -0.13019187070E-01  0.53496837111E-01  0.51100000000E-03 0.  1.
         11    1    4    4    0    0  0.31799775081E-01  0.69639547555E-01 -0.57939102615E-02  0.76777098121E-01  0.51100000000E-03 0. -1.
</event>
<event>
 7    1  0.1111182E+005  0.1043930E+01  0.7957747E-01            NaN
         13   -1    0    0    0    0  0.00000000000E+00  0.00000000000E+00  0.74505805969E-08  0.10566000000E+00  0.10566000000E+00 0. -1.
     999900   -1    0    0    0    0 -0.00000000000E+00 -0.00000000000E+00 -0.74505805969E-08  0.93827000000E+00  0.93827000000E+00 0.  1.
     999902    2    1    2    0    0 -0.15115024795E-01 -0.17687305347E-01 -0.12053488711E-02  0.10206328411E+01  0.10203669138E+01 0.  0.
         14    1    1    2    0    0  0.15115024795E-01  0.17687305347E-01  0.12053488711E-02  0.23297158859E-01  0.00000000000E+00 0. -1.
     999901    1    3    3    0    0  0.55791041781E-03  0.29298292546E-01  0.11369218681E+00  0.88779762027E+00  0.88000000000E+00 0. -1.
        -11    1    3    3    0    0 -0.24225106008E-01 -0.21455254992E-01 -0.91865377255E-01  0.97399652910E-01  0.51100000000E-03 0.  1.
         11    1    3    3    0    0  0.85521707952E-02 -0.25530342901E-01 -0.23032158430E-01  0.35435567964E-01  0.51100000000E-03 0. -1.
</event>
<event>
 8    1  0.1111182E+005  0.1043930E+01  0.7957747E-01            NaN
         13   -1    0    0    0    0  0.00000000000E+00  0.00000000000E+00  0.74505805969E-08  0.10566000000E+00  0.10566000000E+00 0.  1.
     999900   -1    0    0    0    0 -0.00000000000E+00 -0.00000000000E+00 -0.74505805969E-08  0.93827000000E+00  0.93827000000E+00 0.  1.
     999902    2    1    2    0    0  0.19167323547E-01 -0.23861772794E-02 -0.14332328687E-01  0.10198780608E+01  0.10195944111E+01 0.  0.
     999903    2    3    3    0    0  0.62237308986E-01 -0.63678287539E-02  0.11193226208E+00  0.12981422933E+00  0.20220558081E-01 0.  0.
         14    1    1    2    0    0 -0.19167323547E-01  0.23861772794E-02  0.14332328687E-01  0.24051939205E-01  0.00000000000E+00 0.  1.
     999901    1    3    3    0    0 -0.43069985440E-01  0.39816514745E-02 -0.12626459077E+00  0.89006383146E+00  0.88000000000E+00 0.  1.
        -11    1    4    4    0    0  0.14558272394E-01  0.45138869341E-02  0.40199877290E-01  0.42995461685E-01  0.51100000000E-03 0.  1.
         11    1    4    4    0    0  0.47679036592E-01 -0.10881715688E-01  0.71732384794E-01  0.86818767648E-01  0.51100000000E-03 0. -1.
</event>
<event>
 8    1  0.1111182E+005  0.1043930E+01  0.7957747E-01            NaN
         13   -1    0    0    0    0  0.00000000000E+00  0.00000000000E+00  0.74505805969E-08  0.10566000000E+00  0.10566000000E+00 0. -1.
     999900   -1    0    0    0    0 -0.00000000000E+00 -0.00000000000E+00 -0.74505805969E-08  0.93827000000E+00  0.93827000000E+00 0. -1.
     999902    2    1    2    0    0  0.84574359117E-02 -0.24489065796E-02  0.21643914897E-01  0.10205636905E+01  0.10202961639E+01 0.  0.
     999903    2    3    3    0    0  0.86030645840E-01 -0.36911003054E-01  0.93170901508E-01  0.13359055182E+00  0.20048054243E-01 0.  0.
         14    1    1    2    0    0 -0.84574359117E-02  0.24489065796E-02 -0.21643914897E-01  0.23366309458E-01  0.00000000000E+00 0.  1.
     999901    1    3    3    0    0 -0.77573209928E-01  0.34462096474E-01 -0.71526986611E-01  0.88697313872E+00  0.88000000000E+00 0. -1.
        -11    1    4    4    0    0  0.51584695502E-01 -0.20334830680E-01  0.68330502260E-01  0.87998890953E-01  0.51100000000E-03 0.  1.
         11    1    4    4    0    0  0.34445950338E-01 -0.16576172374E-01  0.24840399248E-01  0.45591660872E-01  0.51100000000E-03 0. -1.
</event>
<event>
 8    1  0.1111182E+005  0.1043930E+01  0.7957747E-01            NaN
         13   -1    0    0    0    0  0.00000000000E+00  0.00000000000E+00  0.74505805969E-08  0.10566000000E+00  0.10566000000E+00 0. -1.
     999900   -1    0    0    0    0 -0.00000000000E+00 -0.00000000000E+00 -0.74505805969E-08  0.93827000000E+00  0.93827000000E+00 0.  1.
     999902    2    1    2    0    0 -0.88633444387E-03 -0.19316060698E-01  0.13753320857E-01  0.10202013333E+01  0.10199253457E+01 0.  0.
     999903    2    3    3    0    0  0.85686110365E-02  0.11969402249E+00 -0.37887991719E-01  0.12774403773E+00  0.21976331434E-01 0.  0.
         14    1    1    2    0    0  0.88633444387E-03  0.19316060698E-01 -0.13753320857E-01  0.23728666719E-01  0.00000000000E+00 0.  1.
     999901    1    3    3    0    0 -0.94549454804E-02 -0.13901008319E+00  0.51641312576E-01  0.89245729555E+00  0.88000000000E+00 0. -1.
        -11    1    4    4    0    0  0.14595013194E-01  0.63288206599E-01 -0.24798502321E-01  0.69524372295E-01  0.51100000000E-03 0. -1.
         11    1    4    4    0    0 -0.60264021572E-02  0.56405815892E-01 -0.13089489399E-01  0.58219665433E-01  0.51100000000E-03 0.  1.
</event>
<event>
 8    1  0.1111182E+005  0.1043930E+01  0.7957747E-01            NaN
         13   -1    0    0    0    0  0.00000000000E+00  0.00000000000E+00  0.74505805969E-08  0.10566000000E+00  0.10566000000E+00 0. -1.
     999900   -1    0    0    0    0 -0.00000000000E+00 -0.00000000000E+00 -0.74505805969E-08  0.93827000000E+00  0.93827000000E+00 0. -1.
     999902    2    1    2    0    0 -0.17889521549E-01  0.12591897262E-03 -0.15306710403E-01  0.10203854418E+01  0.10201137700E+01 0.  0.
     999903    2    3    3    0    0 -0.67777155087E-01 -0.10887218148E+00 -0.22139268954E-01  0.13223227612E+00  0.23416510537E-01 0.  0.
         14    1    1    2    0    0  0.17889521549E-01 -0.12591897262E-03  0.15306710403E-01  0.23544558186E-01  0.00000000000E+00 0.  1.
     999901    1    3    3    0    0  0.49887633538E-01  0.10899810045E+00  0.68325585506E-02  0.88815316570E+00  0.88000000000E+00 0.  1.
        -11    1    4    4    0    0 -0.49672766024E-01 -0.96173395211E-01 -0.18569566174E-01  0.10982620607E+00  0.51100000000E-03 0. -1.
         11    1    4    4    0    0 -0.18104389063E-01 -0.12698786267E-01 -0.35697027797E-02  0.22406070046E-01  0.51100000000E-03 0.  1.
</event>
<event>
 8    1  0.1111182E+005  0.1043930E+01  0.7957747E-01            NaN
         13   -1    0    0    0    0  0.00000000000E+00  0.00000000000E+00  0.74505805969E-08  0.10566000000E+00  0.10566000000E+00 0. -1.
     999900   -1    0    0    0    0 -0.00000000000E+00 -0.00000000000E+00 -0.74505805969E-08  0.93827000000E+00  0.93827000000E+00 0. -1.
     999902    2    1    2    0    0 -0.14945645021E-02  0.13832711118E-01  0.21210419053E-01  0.10185634966E+01  0.10182475814E+01 0.  0.
     999903    2    3    3    0    0 -0.11316817986E+00  0.55996121311E-01 -0.21006635956E-01  0.12950161500E+00  0.19666901108E-01 0.  0.
         14    1    1    2    0    0  0.14945645021E-02 -0.13832711118E-01 -0.21210419053E-01  0.25366503431E-01  0.00000000000E+00 0.  1.
     999901    1    3    3    0    0  0.11167361536E+00 -0.42163410192E-01  0.42217055009E-01  0.88906188157E+00  0.88000000000E+00 0.  1.
        -11    1    4    4    0    0 -0.46121818572E-02  0.76216047001E-02 -0.19874883104E-02  0.91417892381E-02  0.51100000000E-03 0.  1.
         11    1    4    4    0    0 -0.10855599800E+00  0.48374516611E-01 -0.19019147645E-01  0.12035982576E+00  0.51100000000E-03 0. -1.
</event>
<event>
 8    1  0.1111182E+005  0.1043930E+01  0.7957747E-01            NaN
         13   -1    0    0    0    0  0.00000000000E+00  0.00000000000E+00  0.74505805969E-08  0.10566000000E+00  0.10566000000E+00 0. -1.
     999900   -1    0    0    0    0 -0.00000000000E+00 -0.00000000000E+00 -0.74505805969E-08  0.93827000000E+00  0.93827000000E+00 0.  1.
     999902    2    1    2    0    0 -0.12709145953E-01 -0.18450986065E-01  0.76870290779E-02  0.10202434702E+01  0.10199684734E+01 0.  0.
     999903    2    3    3    0    0 -0.14113865501E-01 -0.51976014774E-01 -0.11727516379E+00  0.13078214421E+00  0.21208439168E-01 0.  0.
         14    1    1    2    0    0  0.12709145953E-01  0.18450986065E-01 -0.76870290779E-02  0.23686529794E-01  0.00000000000E+00 0. -1.
     999901    1    3    3    0    0  0.14047195483E-02  0.33525028709E-01  0.12496219287E+00  0.88946132599E+00  0.88000000000E+00 0. -1.
        -11    1    4    4    0    0 -0.11694276508E-02  0.18674369787E-02 -0.74245186983E-02  0.77614097174E-02  0.51100000000E-03 0.  1.
         11    1    4    4    0    0 -0.12944437851E-01 -0.53843451753E-01 -0.10985064509E+00  0.12302073450E+00  0.51100000000E-03 0. -1.
</event>
<event>
 8    1  0.1111182E+005  0.1043930E+01  0.7957747E-01            NaN
         13   -1    0    0    0    0  0.00000000000E+00  0.00000000000E+00  0.74505805969E-08  0.10566000000E+00  0.10566000000E+00 0. -1.
     999900   -1    0    0    0    0 -0.00000000000E+00 -0.00000000000E+00 -0.74505805969E-08  0.93827000000E+00  0.93827000000E+00 0.  1.
     999902    2    1    2    0    0  0.31497279520E-02 -0.98203166571E-02 -0.20871841753E-01  0.10206492529E+01  0.10203837045E+01 0.  0.
     999903    2    3    3    0    0  0.67560326859E-01  0.10651572411E+00 -0.29227605784E-01  0.13061969252E+00  0.17241052350E-01 0.  0.
         14    1    1    2    0    0 -0.31497279520E-02  0.98203166571E-02  0.20871841753E-01  0.23280747058E-01  0.00000000000E+00 0. -1.
     999901    1    3    3    0    0 -0.64410598907E-01 -0.11633604077E+00  0.83557640306E-02  0.89002956042E+00  0.88000000000E+00 0.  1.
        -11    1    4    4    0    0  0.33463781335E-01  0.59260815723E-01 -0.76831514747E-02  0.68490589711E-01  0.51100000000E-03 0.  1.
         11    1    4    4    0    0  0.34096545524E-01  0.47254908387E-01 -0.21544454309E-01  0.62129102809E-01  0.51100000000E-03 0. -1.
</event>
<event>
 8    1  0.1111182E+005  0.1043930E+01  0.7957747E-01            NaN
         13   -1    0    0    0    0  0.00000000000E+00  0.00000000000E+00  0.74505805969E-08  0.10566000000E+00  0.10566000000E+00 0. -1.
     999900   -1    0    0    0    0 -0.00000000000E+00 -0.00000000000E+00 -0.74505805969E-08  0.93827000000E+00  0.93827000000E+00 0.  1.
     999902    2    1    2    0    0  0.22105106633E-01  0.99932708238E-02 -0.16260314116E-02  0.10196165227E+01  0.10193265954E+01 0.  0.
     999903    2    3    3    0    0 -0.10046885614E+00 -0.58357387636E-01 -0.47961807803E-01  0.12729192197E+00  0.20082894351E-01 0.  0.
         14    1    1    2    0    0 -0.22105106633E-01 -0.99932708238E-02  0.16260314116E-02  0.24313477315E-01  0.00000000000E+00 0. -1.
     999901    1    3    3    0    0  0.12257396278E+00  0.68350658460E-01  0.46335776391E-01  0.89232460071E+00  0.88000000000E+00 0. -1.
        -11    1    4    4    0    0 -0.46313597364E-01 -0.28364509697E-01 -0.33175127328E-01  0.63642320082E-01  0.51100000000E-03 0. -1.
         11    1    4    4    0    0 -0.54155258778E-01 -0.29992877939E-01 -0.14786680475E-01  0.63649601891E-01  0.51100000000E-03 0.  1.
</event>
<event>
 8    1  0.1111182E+005  0.1043930E+01  0.7957747E-01            NaN
         13   -1    0    0    0    0  0.00000000000E+00  0.00000000000E+00  0.74505805969E-08  0.10566000000E+00  0.10566000000E+00 0. -1.
     999900   -1    0    0    0    0 -0.00000000000E+00 -0.00000000000E+00 -0.74505805969E-08  0.93827000000E+00  0.93827000000E+00 0. -1.
     999902    2    1    2    0    0 -0.17278113968E-01 -0.23072939503E-01  0.16194082997E-01  0.10108673007E+01  0.10103264609E+01 0.  0.
     999903    2    3    3    0    0  0.52044263346E-01  0.10015556234E+00  0.33429148475E-01  0.11941460812E+00  0.20064861093E-01 0.  0.
         14    1    1    2    0    0  0.17278113968E-01  0.23072939503E-01 -0.16194082997E-01  0.33062699280E-01  0.00000000000E+00 0.  1.
     999901    1    3    3    0    0 -0.69322377314E-01 -0.12322850184E+00 -0.17235065478E-01  0.89145269260E+00  0.88000000000E+00 0.  1.
        -11    1    4    4    0    0  0.38889403407E-01  0.54022137053E-01  0.21870386575E-01  0.70066767580E-01  0.51100000000E-03 0. -1.
         11    1    4    4    0    0  0.13154859939E-01  0.46133425282E-01  0.11558761899E-01  0.49347840540E-01  0.51100000000E-03 0.  1.
</event>
<event>
 8    1  0.1111182E+005  0.1043930E+01  0.7957747E-01            NaN
         13   -1    0    0    0    0  0.00000000000E+00  0.00000000000E+00  0.74505805969E-08  0.10566000000E+00  0.10566000000E+00 0.  1.
     999900   -1    0    0    0    0 -0.00000000000E+00 -0.00000000000E+00 -0.74505805969E-08  0.93827000000E+00  0.93827000000E+00 0.  1.
     999902    2    1    2    0    0  0.66025801130E-02 -0.10404644671E-01  0.20251861166E-01  0.10202237018E+01  0.10199482404E+01 0.  0.
     999903    2    3    3    0    0 -0.62813177161E-01 -0.11298174365E+00  0.17546167778E-01  0.13154607216E+00  0.16915421194E-01 0.  0.
         14    1    1    2    0    0 -0.66025801130E-02  0.10404644671E-01 -0.20251861166E-01  0.23706298225E-01  0.00000000000E+00 0. -1.
     999901    1    3    3    0    0  0.69415757274E-01  0.10257709898E+00  0.27056933879E-02  0.88867762961E+00  0.88000000000E+00 0. -1.
        -11    1    4    4    0    0 -0.45525397977E-01 -0.93760154361E-01  0.17502213235E-01  0.10568877422E+00  0.51100000000E-03 0.  1.
         11    1    4    4    0    0 -0.17287779184E-01 -0.19221589292E-01  0.43954542899E-04  0.25857297945E-01  0.51100000000E-03 0. -1.
</event>
<event>
 8    1  0.1111182E+005  0.1043930E+01  0.7957747E-01            NaN
         13   -1    0    0    0    0  0.00000000000E+00  0.00000000000E+00  0.74505805969E-08  0.10566000000E+00  0.10566000000E+00 0. -1.
     999900   -1    0    0    0    0 -0.00000000000E+00 -0.00000000000E+00 -0.74505805969E-08  0.93827000000E+00  0.93827000000E+00 0. -1.
     999902    2    1    2    0    0  0.20665391786E-01  0.10016329587E-01 -0.27361946018E-02  0.10208026993E+01  0.10205406797E+01 0.  0.
     999903    2    3    3    0    0  0.84979651925E-01  0.91108104831E-01 -0.43689666590E-01  0.13379120732E+00  0.21658074276E-01 0.  0.
         14    1    1    2    0    0 -0.20665391786E-01 -0.10016329587E-01  0.27361946018E-02  0.23127300685E-01  0.00000000000E+00 0. -1.
     999901    1    3    3    0    0 -0.64314260139E-01 -0.81091775244E-01  0.40953471988E-01  0.88701149200E+00  0.88000000000E+00 0.  1.
        -11    1    4    4    0    0  0.58346254348E-01  0.67445379436E-01 -0.21234272266E-01  0.91675078638E-01  0.51100000000E-03 0.  1.
         11    1    4    4    0    0  0.26633397577E-01  0.23662725395E-01 -0.22455394324E-01  0.42116128679E-01  0.51100000000E-03 0. -1.
</event>
<event>
 8    1  0.1111182E+005  0.1043930E+01  0.7957747E-01            NaN
         13   -1    0    0    0    0  0.00000000000E+00  0.00000000000E+00  0.74505805969E-08  0.10566000000E+00  0.10566000000E+00 0. -1.
     999900   -1    0    0    0    0 -0.00000000000E+00 -0.00000000000E+00 -0.74505805969E-08  0.93827000000E+00  0.93827000000E+00 0.  1.
     999902    2    1    2    0    0  0.17220262737E-01 -0.15159831782E-01 -0.31174375332E-02  0.10207766770E+01  0.10205140606E+01 0.  0.
     999903    2    3    3    0    0  0.63989051073E-01  0.11988009049E-01  0.11259917329E+00  0.13155529916E+00  0.19746186751E-01 0.  0.
         14    1    1    2    0    0 -0.17220262737E-01  0.15159831782E-01  0.31174375332E-02  0.23153322983E-01  0.00000000000E+00 0. -1.
     999901    1    3    3    0    0 -0.46768788336E-01 -0.27147840831E-01 -0.11571661083E+00  0.88922137786E+00  0.88000000000E+00 0.  1.
        -11    1    4    4    0    0  0.31777475079E-01 -0.39814370444E-02  0.55428242115E-01  0.64017270391E-01  0.51100000000E-03 0. -1.
         11    1    4    4    0    0  0.32211575994E-01  0.15969446093E-01  0.57170931179E-01  0.67538028765E-01  0.51100000000E-03 0.  1.
</event>
<event>
 8    1  0.1111182E+005  0.1043930E+01  0.7957747E-01            NaN
         13   -1    0    0    0    0  0.00000000000E+00  0.00000000000E+00  0.74505805969E-08  0.10566000000E+00  0.10566000000E+00 0.  1.
     999900   -1    0    0    0    0 -0.00000000000E+00 -0.00000000000E+00 -0.74505805969E-08  0.93827000000E+00  0.93827000000E+00 0.  1.
     999902    2    1    2    0    0  0.37687857701E-02  0.26092490339E-02 -0.24849165837E-01  0.10186615816E+01  0.10183481354E+01 0.  0.
     999903    2    3    3    0    0  0.48250438869E-01 -0.98705217442E-01  0.61483319313E-01  0.12754063773E+00  0.20386047105E-01 0.  0.
         14    1    1    2    0    0 -0.37687857701E-02 -0.26092490339E-02  0.24849165837E-01  0.25268418421E-01  0.00000000000E+00 0.  1.
     999901    1    3    3    0    0 -0.44481653099E-01  0.10131446648E+00 -0.86332485151E-01  0.89112094385E+00  0.88000000000E+00 0.  1.
        -11    1    4    4    0    0  0.49689317975E-02 -0.30880327470E-01  0.16947377693E-01  0.35577515927E-01  0.51100000000E-03 0.  1.
         11    1    4    4    0    0  0.43281507071E-01 -0.67824889971E-01  0.44535941621E-01  0.91963121799E-01  0.51100000000E-03 0. -1.
</event>
<event>
 8    1  0.1111182E+005  0.1043930E+01  0.7957747E-01            NaN
         13   -1    0    0    0    0  0.00000000000E+00  0.00000000000E+00  0.74505805969E-08  0.10566000000E+00  0.10566000000E+00 0. -1.
     999900   -1    0    0    0    0 -0.00000000000E+00 -0.00000000000E+00 -0.74505805969E-08  0.93827000000E+00  0.93827000000E+00 0.  1.
     999902    2    1    2    0    0 -0.23196240573E-01  0.87544242980E-02 -0.17219325586E-01  0.10137437333E+01  0.10132942051E+01 0.  0.
     999903    2    3    3    0    0 -0.82276800398E-01 -0.49100669243E-01  0.75712161617E-01  0.12499518301E+00  0.26666772479E-01 0.  0.
         14    1    1    2    0    0  0.23196240573E-01 -0.87544242980E-02  0.17219325586E-01  0.30186266665E-01  0.00000000000E+00 0. -1.
     999901    1    3    3    0    0  0.59080559825E-01  0.57855093541E-01 -0.92931487203E-01  0.88874855033E+00  0.88000000000E+00 0.  1.
        -11    1    4    4    0    0 -0.34342678329E-01 -0.35781051425E-01  0.40666748473E-01  0.64138512208E-01  0.51100000000E-03 0. -1.
         11    1    4    4    0    0 -0.47934122068E-01 -0.13319617818E-01  0.35045413143E-01  0.60856670798E-01  0.51100000000E-03 0.  1.
</event>
<event>
 8    1  0.1111182E+005  0.1043930E+01  0.7957747E-01            NaN
         13   -1    0    0    0    0  0.00000000000E+00  0.00000000000E+00  0.74505805969E-08  0.10566000000E+00  0.10566000000E+00 0.  1.
     999900   -1    0    0    0    0 -0.00000000000E+00 -0.00000000000E+00 -0.74505805969E-08  0.93827000000E+00  0.93827000000E+00 0. -1.
     999902    2    1    2    0    0  0.16676583841E-01  0.16081140611E-01 -0.31817889657E-02  0.10205454899E+01  0.10202775415E+01 0.  0.
     999903    2    3    3    0    0  0.53726001746E-01 -0.93392102642E-01 -0.70732098461E-01  0.13042184979E+00  0.19956478909E-01 0.  0.
         14    1    1    2    0    0 -0.16676583841E-01 -0.16081140611E-01  0.31817889657E-02  0.23384510108E-01  0.00000000000E+00 0. -1.
     999901    1    3    3    0    0 -0.37049417905E-01  0.10947324325E+00  0.67550309496E-01  0.89012364010E+00  0.88000000000E+00 0.  1.
        -11    1    4    4    0    0  0.33664219121E-01 -0.40854516451E-01 -0.39839999260E-01  0.66256002185E-01  0.51100000000E-03 0.  1.
         11    1    4    4    0    0  0.20061782626E-01 -0.52537586191E-01 -0.30892099201E-01  0.64165847606E-01  0.51100000000E-03 0. -1.
</event>
<event>
 8    1  0.1111182E+005  0.1043930E+01  0.7957747E-01            NaN
         13   -1    0    0    0    0  0.00000000000E+00  0.00000000000E+00  0.74505805969E-08  0.10566000000E+00  0.10566000000E+00 0.  1.
     999900   -1    0    0    0    0 -0.00000000000E+00 -0.00000000000E+00 -0.74505805969E-08  0.93827000000E+00  0.93827000000E+00 0.  1.
     999902    2    1    2    0    0  0.39304069380E-02  0.22488234696E-01  0.45332190423E-03  0.10210963779E+01  0.10208410447E+01 0.  0.
     999903    2    3    3    0    0  0.11177239552E+00 -0.31795226747E-01  0.57289417234E-01  0.13103630664E+00  0.19606924422E-01 0.  0.
         14    1    1    2    0    0 -0.39304069380E-02 -0.22488234696E-01 -0.45332190423E-03  0.22833622122E-01  0.00000000000E+00 0. -1.
     999901    1    3    3    0    0 -0.10784198858E+00  0.54283461443E-01 -0.56836095330E-01  0.89006007124E+00  0.88000000000E+00 0.  1.
        -11    1    4    4    0    0  0.82539637816E-01 -0.14463297660E-01  0.38819408928E-01  0.92353594519E-01  0.51100000000E-03 0.  1.
         11    1    4    4    0    0  0.29232757705E-01 -0.17331929086E-01  0.18470008306E-01  0.38682712117E-01  0.51100000000E-03 0. -1.
</event>
<event>
 8    1  0.1111182E+005  0.1043930E+01  0.7957747E-01            NaN
         13   -1    0    0    0    0  0.00000000000E+00  0.00000000000E+00  0.74505805969E-08  0.10566000000E+00  0.10566000000E+00 0. -1.
     999900   -1    0    0    0    0 -0.00000000000E+00 -0.00000000000E+00 -0.74505805969E-08  0.93827000000E+00  0.93827000000E+00 0. -1.
     999902    2    1    2    0    0  0.13477288514E-02 -0.31934261378E-02  0.23759999619E-01  0.10199185043E+01  0.10196358191E+01 0.  0.
     999903    2    3    3    0    0  0.38728587458E-01 -0.12311406774E+00  0.79137808867E-03  0.13070208158E+00  0.20625971174E-01 0.  0.
         14    1    1    2    0    0 -0.13477288514E-02  0.31934261378E-02 -0.23759999619E-01  0.24011495693E-01  0.00000000000E+00 0.  1.
     999901    1    3    3    0    0 -0.37380858607E-01  0.11992064161E+00  0.22968621530E-01  0.88921642273E+00  0.88000000000E+00 0.  1.
        -11    1    4    4    0    0  0.20474615331E-01 -0.83938512613E-01 -0.73732532973E-02  0.86715106861E-01  0.51100000000E-03 0. -1.
         11    1    4    4    0    0  0.18253972127E-01 -0.39175555131E-01  0.81646313860E-02  0.43986974719E-01  0.51100000000E-03 0.  1.
</event>
<event>
 8    1  0.1111182E+005  0.1043930E+01  0.7957747E-01            NaN
         13   -1    0    0    0    0  0.00000000000E+00  0.00000000000E+00  0.74505805969E-08  0.10566000000E+00  0.10566000000E+00 0.  1.
     999900   -1    0    0    0    0 -0.00000000000E+00 -0.00000000000E+00 -0.74505805969E-08  0.93827000000E+00  0.93827000000E+00 0. -1.
     999902    2    1    2    0    0 -0.19513441607E-01  0.50949491286E-02 -0.11430289542E-01  0.10207484464E+01  0.10204851818E+01 0.  0.
     999903    2    3    3    0    0  0.10907196680E+00  0.22898651180E-01 -0.63403930996E-01  0.12970835834E+00  0.19574411633E-01 0.  0.
         14    1    1    2    0    0  0.19513441607E-01 -0.50949491286E-02  0.11430289542E-01  0.23181553637E-01  0.00000000000E+00 0.  1.
     999901    1    3    3    0    0 -0.12858540840E+00 -0.17803702051E-01  0.51973641454E-01  0.89104008802E+00  0.88000000000E+00 0. -1.
        -11    1    4    4    0    0  0.83577408772E-01  0.25398555386E-01 -0.52040435095E-01  0.10167958437E+00  0.51100000000E-03 0.  1.
         11    1    4    4    0    0  0.25494558023E-01 -0.24999042062E-02 -0.11363495902E-01  0.28028773964E-01  0.51100000000E-03 0. -1.
</event>
<event>
 8    1  0.1111182E+005  0.1043930E+01  0.7957747E-01            NaN
         13   -1    0    0    0    0  0.00000000000E+00  0.00000000000E+00  0.74505805969E-08  0.10566000000E+00  0.10566000000E+00 0. -1.
     999900   -1    0    0    0    0 -0.00000000000E+00 -0.00000000000E+00 -0.74505805969E-08  0.93827000000E+00  0.93827000000E+00 0. -1.
     999902    2    1    2    0    0 -0.29394383128E-02 -0.70848142479E-02  0.22773900116E-01  0.10198990737E+01  0.10196159253E+01 0.  0.
     999903    2    3    3    0    0 -0.39303634120E-01 -0.79390171125E-01  0.97393542375E-01  0.13304028544E+00  0.19147859602E-01 0.  0.
         14    1    1    2    0    0  0.29394383128E-02  0.70848142479E-02 -0.22773900116E-01  0.24030926262E-01  0.00000000000E+00 0.  1.
     999901    1    3    3    0    0  0.36364195807E-01  0.72305356877E-01 -0.74619642259E-01  0.88685878830E+00  0.88000000000E+00 0. -1.
        -11    1    4    4    0    0 -0.17433550244E-01 -0.26468902329E-01  0.23020830346E-01  0.39175900952E-01  0.51100000000E-03 0. -1.
         11    1    4    4    0    0 -0.21870083876E-01 -0.52921268796E-01  0.74372712029E-01  0.93864384488E-01  0.51100000000E-03 0.  1.
</event>
<event>
 8    1  0.1111182E+005  0.1043930E+01  0.7957747E-01            NaN
         13   -1    0    0    0    0  0.00000000000E+00  0.00000000000E+00  0.74505805969E-08  0.10566000000E+00  0.10566000000E+00 0.  1.
     999900   -1    0    0    0    0 -0.00000000000E+00 -0.00000000000E+00 -0.74505805969E-08  0.93827000000E+00  0.93827000000E+00 0. -1.
     999902    2    1    2    0    0  0.90824236328E-02 -0.22748545861E-01 -0.20838401134E-02  0.10193468930E+01  0.10190504204E+01 0.  0.
     999903    2    3    3    0    0 -0.27100049120E-01  0.28222967646E-02 -0.12510240433E+00  0.12968594276E+00  0.20626540121E-01 0.  0.
         14    1    1    2    0    0 -0.90824236328E-02  0.22748545861E-01  0.20838401134E-02  0.24583106953E-01  0.00000000000E+00 0. -1.
     999901    1    3    3    0    0  0.36182472753E-01 -0.25570842625E-01  0.12301856422E+00  0.88966095029E+00  0.88000000000E+00 0.  1.
        -11    1    4    4    0    0  0.33383625857E-02 -0.92359703295E-03 -0.12836806885E-01  0.13305729151E-01  0.51100000000E-03 0.  1.
         11    1    4    4    0    0 -0.30438411706E-01  0.37458937975E-02 -0.11226559745E+00  0.11638021361E+00  0.51100000000E-03 0. -1.
</event>
<event>
 8    1  0.1111182E+005  0.1043930E+01  0.7957747E-01            NaN
         13   -1    0    0    0    0  0.00000000000E+00  0.00000000000E+00  0.74505805969E-08  0.10566000000E+00  0.10566000000E+00 0. -1.
     999900   -1    0    0    0    0 -0.00000000000E+00 -0.00000000000E+00 -0.74505805969E-08  0.93827000000E+00  0.93827000000E+00 0.  1.
     999902    2    1    2    0    0  0.16696629211E-01  0.30206987543E-02 -0.16410266414E-01  0.10203249393E+01  0.10200518530E+01 0.  0.
     999903    2    3    3    0    0 -0.40156672386E-02 -0.86754178025E-01 -0.97032597002E-01  0.13184956657E+00  0.20653579216E-01 0.  0.
         14    1    1    2    0    0 -0.16696629211E-01 -0.30206987543E-02  0.16410266414E-01  0.23605060724E-01  0.00000000000E+00 0. -1.
     999901    1    3    3    0    0  0.20712296450E-01  0.89774876779E-01  0.80622330587E-01  0.88847537271E+00  0.88000000000E+00 0.  1.
        -11    1    4    4    0    0 -0.11194420069E-01 -0.71814598006E-01 -0.78599647277E-01  0.10705520632E+00  0.51100000000E-03 0.  1.
         11    1    4    4    0    0  0.71787528309E-02 -0.14939580019E-01 -0.18432949725E-01  0.24794360244E-01  0.51100000000E-03 0. -1.
</event>
<event>
 8    1  0.1111182E+005  0.1043930E+01  0.7957747E-01            NaN
         13   -1    0    0    0    0  0.00000000000E+00  0.00000000000E+00  0.74505805969E-08  0.10566000000E+00  0.10566000000E+00 0. -1.
     999900   -1    0    0    0    0 -0.00000000000E+00 -0.00000000000E+00 -0.74505805969E-08  0.93827000000E+00  0.93827000000E+00 0. -1.
     999902    2    1    2    0    0 -0.12276778554E-01 -0.66337634358E-02 -0.18813844356E-01  0.10205059344E+01  0.10202370682E+01 0.  0.
     999903    2    3    3    0    0  0.34798889610E-02 -0.12373372961E+00  0.37277218599E-01  0.13083920918E+00  0.20178259670E-01 0.  0.
         14    1    1    2    0    0  0.12276778554E-01  0.66337634358E-02  0.18813844356E-01  0.23424065583E-01  0.00000000000E+00 0.  1.
     999901    1    3    3    0    0 -0.15756667515E-01  0.11709996617E+00 -0.56091062955E-01  0.88966672524E+00  0.88000000000E+00 0. -1.
        -11    1    4    4    0    0 -0.54009428567E-02 -0.38237947868E-01  0.18643737923E-01  0.42885439553E-01  0.51100000000E-03 0.  1.
         11    1    4    4    0    0  0.88808318177E-02 -0.85495781738E-01  0.18633480676E-01  0.87953769628E-01  0.51100000000E-03 0. -1.
</event>
<event>
 8    1  0.1111182E+005  0.1043930E+01  0.7957747E-01            NaN
         13   -1    0    0    0    0  0.00000000000E+00  0.00000000000E+00  0.74505805969E-08  0.10566000000E+00  0.10566000000E+00 0.  1.
     999900   -1    0    0    0    0 -0.00000000000E+00 -0.00000000000E+00 -0.74505805969E-08  0.93827000000E+00  0.93827000000E+00 0.  1.
     999902    2    1    2    0    0  0.15129688274E-01  0.24376502354E-04 -0.19328498533E-01  0.10193841466E+01  0.10190885828E+01 0.  0.
     999903    2    3    3    0    0  0.22021595922E-01 -0.53147891788E-01  0.11326904141E+00  0.12783667393E+00  0.14236936883E-01 0.  0.
         14    1    1    2    0    0 -0.15129688274E-01 -0.24376502354E-04  0.19328498533E-01  0.24545853357E-01  0.00000000000E+00 0.  1.
     999901    1    3    3    0    0 -0.68919076479E-02  0.53172268290E-01 -0.13259753994E+00  0.89154747271E+00  0.88000000000E+00 0.  1.
        -11    1    4    4    0    0  0.59076931998E-02 -0.28078391405E-01  0.65799249285E-01  0.71785090585E-01  0.51100000000E-03 0.  1.
         11    1    4    4    0    0  0.16113902722E-01 -0.25069500383E-01  0.47469792121E-01  0.56051583344E-01  0.51100000000E-03 0. -1.
</event>
<event>
 8    1  0.1111182E+005  0.1043930E+01  0.7957747E-01            NaN
         13   -1    0    0    0    0  0.00000000000E+00  0.00000000000E+00  0.74505805969E-08  0.10566000000E+00  0.10566000000E+00 0.  1.
     999900   -1    0    0    0    0 -0.00000000000E+00 -0.00000000000E+00 -0.74505805969E-08  0.93827000000E+00  0.93827000000E+00 0.  1.
     999902    2    1    2    0    0  0.13280242332E-02  0.22315190162E-01 -0.67678809846E-02  0.10205732970E+01  0.10203059929E+01 0.  0.
     999903    2    3    3    0    0 -0.44364819889E-01  0.75392843569E-01  0.97345079106E-01  0.13167252543E+00  0.14466216601E-01 0.  0.
         14    1    1    2    0    0 -0.13280242332E-02 -0.22315190162E-01  0.67678809846E-02  0.23356702964E-01  0.00000000000E+00 0. -1.
     999901    1    3    3    0    0  0.45692844122E-01 -0.53077653407E-01 -0.10411296009E+00  0.88890077160E+00  0.88000000000E+00 0.  1.
        -11    1    4    4    0    0 -0.27731261094E-01  0.36074996290E-01  0.56945922024E-01  0.72893945944E-01  0.51100000000E-03 0. -1.
         11    1    4    4    0    0 -0.16633558795E-01  0.39317847279E-01  0.40399157082E-01  0.58778579490E-01  0.51100000000E-03 0.  1.
</event>
<event>
 8    1  0.1111182E+005  0.1043930E+01  0.7957747E-01            NaN
         13   -1    0    0    0    0  0.00000000000E+00  0.00000000000E+00  0.74505805969E-08  0.10566000000E+00  0.10566000000E+00 0. -1.
     999900   -1    0    0    0    0 -0.00000000000E+00 -0.00000000000E+00 -0.74505805969E-08  0.93827000000E+00  0.93827000000E+00 0.  1.
     999902    2    1    2    0    0  0.11479057383E-02  0.51212602089E-03 -0.22272872081E-01  0.10216216878E+01  0.10213780947E+01 0.  0.
     999903    2    3    3    0    0 -0.12031606878E+00 -0.11119989824E-01 -0.51140606529E-01  0.13273353441E+00  0.20080312229E-01 0.  0.
         14    1    1    2    0    0 -0.11479057383E-02 -0.51212602089E-03  0.22272872081E-01  0.22308312159E-01  0.00000000000E+00 0. -1.
     999901    1    3    3    0    0  0.12146397452E+00  0.11632115845E-01  0.28867734447E-01  0.88888815343E+00  0.88000000000E+00 0.  1.
        -11    1    4    4    0    0 -0.11202833536E-01  0.14550162395E-03 -0.11586822935E-01  0.16125763135E-01  0.51100000000E-03 0.  1.
         11    1    4    4    0    0 -0.10911323524E+00 -0.11265491448E-01 -0.39553783593E-01  0.11660777127E+00  0.51100000000E-03 0. -1.
</event>
<event>
 8    1  0.1111182E+005  0.1043930E+01  0.7957747E-01            NaN
         13   -1    0    0    0    0  0.00000000000E+00  0.00000000000E+00  0.74505805969E-08  0.10566000000E+00  0.10566000000E+00 0. -1.
     999900   -1    0    0    0    0 -0.00000000000E+00 -0.00000000000E+00 -0.74505805969E-08  0.93827000000E+00  0.93827000000E+00 0. -1.
     999902    2    1    2    0    0  0.14312727241E-01  0.86764639786E-02  0.16940342969E-01  0.10201159200E+01  0.10198379184E+01 0.  0.
     999903    2    3    3    0    0  0.24913678532E-02  0.13007591250E+00  0.24256796842E-02  0.13158440893E+00  0.19560747066E-01 0.  0.
         14    1    1    2    0    0 -0.14312727241E-01 -0.86764639786E-02 -0.16940342969E-01  0.23814080040E-01  0.00000000000E+00 0.  1.
     999901    1    3    3    0    0  0.11821359388E-01 -0.12139944852E+00  0.14514663285E-01  0.88853151103E+00  0.88000000000E+00 0.  1.
        -11    1    4    4    0    0  0.71083579878E-02  0.48364646098E-01  0.80627187566E-02  0.49547313754E-01  0.51100000000E-03 0. -1.
         11    1    4    4    0    0 -0.46169901346E-02  0.81711266401E-01 -0.56370390724E-02  0.82037095178E-01  0.51100000000E-03 0.  1.
</event>
<event>
 8    1  0.1111182E+005  0.1043930E+01  0.7957747E-01            NaN
         13   -1    0    0    0    0  0.00000000000E+00  0.00000000000E+00  0.74505805969E-08  0.10566000000E+00  0.10566000000E+00 0.  1.
     999900   -1    0    0    0    0 -0.00000000000E+00 -0.00000000000E+00 -0.74505805969E-08  0.93827000000E+00  0.93827000000E+00 0.  1.
     999902    2    1    2    0    0  0.19593350178E-01 -0.83015568377E-02 -0.95928958414E-02  0.10205882163E+01  0.10203212574E+01 0.  0.
     999903    2    3    3    0    0 -0.12083018360E+00  0.64469427167E-02  0.37364121744E-01  0.12809662047E+00  0.19265779039E-01 0.  0.
         14    1    1    2    0    0 -0.19593350178E-01  0.83015568377E-02  0.95928958414E-02  0.23341783731E-01  0.00000000000E+00 0.  1.
     999901    1    3    3    0    0  0.14042353378E+00 -0.14748499554E-01 -0.46957017585E-01  0.89249159580E+00  0.88000000000E+00 0.  1.
        -11    1    4    4    0    0 -0.47759368054E-01  0.75843053722E-02  0.66193147827E-02  0.48811426675E-01  0.51100000000E-03 0. -1.
         11    1    4    4    0    0 -0.73070815546E-01 -0.11373626555E-02  0.30744806961E-01  0.79285193790E-01  0.51100000000E-03 0.  1.
</event>
<event>
 8    1  0.1980596E+005  0.1043930E+01  0.7957747E-01            NaN
         13   -1    0    0    0    0  0.00000000000E+00  0.00000000000E+00  0.74505805969E-08  0.10566000000E+00  0.10566000000E+00 0.  1.
     999900   -1    0    0    0    0 -0.00000000000E+00 -0.00000000000E+00 -0.74505805969E-08  0.93827000000E+00  0.93827000000E+00 0.  1.
     999902    2    1    2    0    0  0.63358269623E-02 -0.48146974143E-02  0.22529411233E-01  0.10200365200E+01  0.10197566395E+01 0.  0.
     999903    2    3    3    0    0 -0.91066054916E-01  0.65124759150E-01  0.64847850236E-01  0.13089676473E+00  0.19860984979E-01 0.  0.
         14    1    1    2    0    0 -0.63358269623E-02  0.48146974143E-02 -0.22529411233E-01  0.23893479969E-01  0.00000000000E+00 0. -1.
     999901    1    3    3    0    0  0.97401881878E-01 -0.69939456564E-01 -0.42318439002E-01  0.88913975530E+00  0.88000000000E+00 0.  1.
        -11    1    4    4    0    0 -0.36083493990E-01  0.37771599007E-01  0.27834744965E-01  0.59192452039E-01  0.51100000000E-03 0.  1.
         11    1    4    4    0    0 -0.54982560925E-01  0.27353160143E-01  0.37013105271E-01  0.71704312691E-01  0.51100000000E-03 0. -1.
</event>
<event>
 8    1  0.1111182E+005  0.1043930E+01  0.7957747E-01            NaN
         13   -1    0    0    0    0  0.00000000000E+00  0.00000000000E+00  0.74505805969E-08  0.10566000000E+00  0.10566000000E+00 0.  1.
     999900   -1    0    0    0    0 -0.00000000000E+00 -0.00000000000E+00 -0.74505805969E-08  0.93827000000E+00  0.93827000000E+00 0.  1.
     999902    2    1    2    0    0  0.12971798071E-01 -0.81379961445E-02 -0.18042075493E-01  0.10202654481E+01  0.10199909674E+01 0.  0.
     999903    2    3    3    0    0  0.40161681829E-01  0.12146922385E+00 -0.14462899097E-01  0.13034964777E+00  0.20349992448E-01 0.  0.
         14    1    1    2    0    0 -0.12971798071E-01  0.81379961445E-02  0.18042075493E-01  0.23664551856E-01  0.00000000000E+00 0.  1.
     999901    1    3    3    0    0 -0.27189883759E-01 -0.12960722000E+00 -0.35791763962E-02  0.88991580038E+00  0.88000000000E+00 0.  1.
        -11    1    4    4    0    0  0.12960431878E-01  0.71314386861E-01 -0.77376254393E-02  0.72896135263E-01  0.51100000000E-03 0. -1.
         11    1    4    4    0    0  0.27201249951E-01  0.50154836991E-01 -0.67252736580E-02  0.57453512506E-01  0.51100000000E-03 0.  1.
</event>
<event>
 8    1  0.1111182E+005  0.1043930E+01  0.7957747E-01            NaN
         13   -1    0    0    0    0  0.00000000000E+00  0.00000000000E+00  0.74505805969E-08  0.10566000000E+00  0.10566000000E+00 0.  1.
     999900   -1    0    0    0    0 -0.00000000000E+00 -0.00000000000E+00 -0.74505805969E-08  0.93827000000E+00  0.93827000000E+00 0. -1.
     999902    2    1    2    0    0  0.14902322076E-01 -0.16934526398E-01  0.15084030810E-01  0.10167935785E+01  0.10164314024E+01 0.  0.
     999903    2    3    3    0    0 -0.54968675380E-01 -0.10055318192E+00  0.56144080488E-01  0.12912248876E+00  0.19696742441E-01 0.  0.
         14    1    1    2    0    0 -0.14902322076E-01  0.16934526398E-01 -0.15084030810E-01  0.27136421523E-01  0.00000000000E+00 0. -1.
     999901    1    3    3    0    0  0.69870997456E-01  0.83618655522E-01 -0.41060049678E-01  0.88767108972E+00  0.88000000000E+00 0. -1.
        -11    1    4    4    0    0 -0.12311975191E-01 -0.23126492505E-01  0.22489228554E-01  0.34531810127E-01  0.51100000000E-03 0. -1.
         11    1    4    4    0    0 -0.42656700190E-01 -0.77426689415E-01  0.33654851934E-01  0.94590678635E-01  0.51100000000E-03 0.  1.
</event>
<event>
 8    1  0.1111182E+005  0.1043930E+01  0.7957747E-01            NaN
         13   -1    0    0    0    0  0.00000000000E+00  0.00000000000E+00  0.74505805969E-08  0.10566000000E+00  0.10566000000E+00 0.  1.
     999900   -1    0    0    0    0 -0.00000000000E+00 -0.00000000000E+00 -0.74505805969E-08  0.93827000000E+00  0.93827000000E+00 0.  1.
     999902    2    1    2    0    0 -0.18655301398E-01  0.11116165288E-01  0.10736859651E-01  0.10197046093E+01  0.10194168042E+01 0.  0.
     999903    2    3    3    0    0  0.25928402540E-01 -0.12043264794E+00  0.31126183273E-01  0.12857694084E+00  0.19669409821E-01 0.  0.
         14    1    1    2    0    0  0.18655301398E-01 -0.11116165288E-01 -0.10736859651E-01  0.24225390732E-01  0.00000000000E+00 0. -1.
     999901    1    3    3    0    0 -0.44583703938E-01  0.13154881323E+00 -0.20389323623E-01  0.89112766843E+00  0.88000000000E+00 0. -1.
        -11    1    4    4    0    0  0.27661955371E-01 -0.94575284105E-01  0.28182273420E-01  0.10248985215E+00  0.51100000000E-03 0.  1.
         11    1    4    4    0    0 -0.17335528311E-02 -0.25857363835E-01  0.29439098535E-02  0.26087088687E-01  0.51100000000E-03 0. -1.
</event>
<event>
 8    1  0.1111182E+005  0.1043930E+01  0.7957747E-01            NaN
         13   -1    0    0    0    0  0.00000000000E+00  0.00000000000E+00  0.74505805969E-08  0.10566000000E+00  0.10566000000E+00 0. -1.
     999900   -1    0    0    0    0 -0.00000000000E+00 -0.00000000000E+00 -0.74505805969E-08  0.93827000000E+00  0.93827000000E+00 0. -1.
     999902    2    1    2    0    0 -0.23417045560E-01  0.57487727716E-03 -0.61349733808E-03  0.10204978664E+01  0.10202288128E+01 0.  0.
     999903    2    3    3    0    0  0.73651227398E-01 -0.83582321904E-01  0.61997579998E-01  0.12896837681E+00  0.19458531759E-01 0.  0.
         14    1    1    2    0    0  0.23417045560E-01 -0.57487727716E-03  0.61349733808E-03  0.23432133612E-01  0.00000000000E+00 0. -1.
     999901    1    3    3    0    0 -0.97068272958E-01  0.84157199181E-01 -0.62611077336E-01  0.89152948958E+00  0.88000000000E+00 0. -1.
        -11    1    4    4    0    0  0.67018473924E-02 -0.97487407431E-02  0.14025295665E-01  0.18355455430E-01  0.51100000000E-03 0. -1.
         11    1    4    4    0    0  0.66949380006E-01 -0.73833581161E-01  0.47972284333E-01  0.11061292138E+00  0.51100000000E-03 0.  1.
</event>
<event>
 8    1  0.1111182E+005  0.1043930E+01  0.7957747E-01            NaN
         13   -1    0    0    0    0  0.00000000000E+00  0.00000000000E+00  0.74505805969E-08  0.10566000000E+00  0.10566000000E+00 0. -1.
     999900   -1    0    0    0    0 -0.00000000000E+00 -0.00000000000E+00 -0.74505805969E-08  0.93827000000E+00  0.93827000000E+00 0.  1.
     999902    2    1    2    0    0  0.23596877692E-01  0.39647002575E-02 -0.62352389305E-02  0.10192033001E+01  0.10189033110E+01 0.  0.
     999903    2    3    3    0    0  0.10493264824E+00 -0.56645727188E-01 -0.53804040340E-01  0.13210019312E+00  0.18329953353E-01 0.  0.
         14    1    1    2    0    0 -0.23596877692E-01 -0.39647002575E-02  0.62352389305E-02  0.24726699931E-01  0.00000000000E+00 0.  1.
     999901    1    3    3    0    0 -0.81335770552E-01  0.60610427446E-01  0.47568801410E-01  0.88710310695E+00  0.88000000000E+00 0. -1.
        -11    1    4    4    0    0  0.37987402994E-01 -0.30058106102E-01 -0.25079617863E-01  0.54550718436E-01  0.51100000000E-03 0.  1.
         11    1    4    4    0    0  0.66945245250E-01 -0.26587621086E-01 -0.28724422477E-01  0.77549474687E-01  0.51100000000E-03 0. -1.
</event>
<event>
 8    1  0.1111182E+005  0.1043930E+01  0.7957747E-01            NaN
         13   -1    0    0    0    0  0.00000000000E+00  0.00000000000E+00  0.74505805969E-08  0.10566000000E+00  0.10566000000E+00 0. -1.
     999900   -1    0    0    0    0 -0.00000000000E+00 -0.00000000000E+00 -0.74505805969E-08  0.93827000000E+00  0.93827000000E+00 0. -1.
     999902    2    1    2    0    0  0.19902594902E-01  0.28262079527E-02  0.12301441933E-01  0.10203625180E+01  0.10200903107E+01 0.  0.
     999903    2    3    3    0    0 -0.21064920647E-01 -0.75378557686E-01  0.10351952160E+00  0.13125337914E+00  0.19634162686E-01 0.  0.
         14    1    1    2    0    0 -0.19902594902E-01 -0.28262079527E-02 -0.12301441933E-01  0.23567482022E-01  0.00000000000E+00 0.  1.
     999901    1    3    3    0    0  0.40967515549E-01  0.78204765638E-01 -0.91218079666E-01  0.88910913883E+00  0.88000000000E+00 0. -1.
        -11    1    4    4    0    0 -0.71411059897E-02 -0.35680735970E-01  0.63493521405E-01  0.73183322524E-01  0.51100000000E-03 0.  1.
         11    1    4    4    0    0 -0.13923814657E-01 -0.39697821715E-01  0.40026000193E-01  0.58070056621E-01  0.51100000000E-03 0. -1.
</event>
<event>
 8    1  0.1111182E+005  0.1043930E+01  0.7957747E-01            NaN
         13   -1    0    0    0    0  0.00000000000E+00  0.00000000000E+00  0.74505805969E-08  0.10566000000E+00  0.10566000000E+00 0. -1.
     999900   -1    0    0    0    0 -0.00000000000E+00 -0.00000000000E+00 -0.74505805969E-08  0.93827000000E+00  0.93827000000E+00 0.  1.
     999902    2    1    2    0    0 -0.17370679334E-01 -0.15623291711E-01 -0.14858796082E-02  0.10205198402E+01  0.10202512968E+01 0.  0.
     999903    2    3    3    0    0 -0.44662356873E-01 -0.11829425245E+00 -0.37351436502E-01  0.13340513508E+00  0.20335780595E-01 0.  0.
         14    1    1    2    0    0  0.17370679334E-01  0.15623291711E-01  0.14858796082E-02  0.23410159816E-01  0.00000000000E+00 0.  1.
     999901    1    3    3    0    0  0.27291677540E-01  0.10267096074E+00  0.35865556893E-01  0.88711470510E+00  0.88000000000E+00 0. -1.
        -11    1    4    4    0    0 -0.38466833055E-01 -0.83874379339E-01 -0.20251858485E-01  0.94472258616E-01  0.51100000000E-03 0.  1.
         11    1    4    4    0    0 -0.61955238185E-02 -0.34419873111E-01 -0.17099578016E-01  0.38932876463E-01  0.51100000000E-03 0. -1.
</event>
<event>
 8    1  0.1111182E+005  0.1043930E+01  0.7957747E-01            NaN
         13   -1    0    0    0    0  0.00000000000E+00  0.00000000000E+00  0.74505805969E-08  0.10566000000E+00  0.10566000000E+00 0. -1.
     999900   -1    0    0    0    0 -0.00000000000E+00 -0.00000000000E+00 -0.74505805969E-08  0.93827000000E+00  0.93827000000E+00 0. -1.
     999902    2    1    2    0    0 -0.30349510714E-02 -0.10170604635E-01 -0.24097494279E-01  0.10175986241E+01  0.10172578918E+01 0.  0.
     999903    2    3    3    0    0 -0.83136996318E-01  0.64643505578E-01  0.66489978476E-01  0.12618425414E+00  0.20273277596E-01 0.  0.
         14    1    1    2    0    0  0.30349510714E-02  0.10170604635E-01  0.24097494279E-01  0.26331375908E-01  0.00000000000E+00 0. -1.
     999901    1    3    3    0    0  0.80102045247E-01 -0.74814110213E-01 -0.90587472755E-01  0.89141436995E+00  0.88000000000E+00 0.  1.
        -11    1    4    4    0    0 -0.14448003542E-01  0.21630675235E-01  0.13065373573E-01  0.29113502453E-01  0.51100000000E-03 0.  1.
         11    1    4    4    0    0 -0.68688992776E-01  0.43012830343E-01  0.53424604903E-01  0.97070751685E-01  0.51100000000E-03 0. -1.
</event>
<event>
 8    1  0.1111182E+005  0.1043930E+01  0.7957747E-01            NaN
         13   -1    0    0    0    0  0.00000000000E+00  0.00000000000E+00  0.74505805969E-08  0.10566000000E+00  0.10566000000E+00 0. -1.
     999900   -1    0    0    0    0 -0.00000000000E+00 -0.00000000000E+00 -0.74505805969E-08  0.93827000000E+00  0.93827000000E+00 0.  1.
     999902    2    1    2    0    0  0.11206869592E-01 -0.18766466104E-01 -0.10061554377E-01  0.10198673931E+01  0.10195834887E+01 0.  0.
     999903    2    3    3    0    0 -0.18858117353E-01  0.12110424345E+00  0.28509484984E-01  0.12747989656E+00  0.20407521191E-01 0.  0.
         14    1    1    2    0    0 -0.11206869592E-01  0.18766466104E-01  0.10061554377E-01  0.24062606936E-01  0.00000000000E+00 0.  1.
     999901    1    3    3    0    0  0.30064986945E-01 -0.13987070956E+00 -0.38571039361E-01  0.89238749650E+00  0.88000000000E+00 0.  1.
        -11    1    4    4    0    0 -0.18693573102E-01  0.62353858638E-01  0.20087394180E-01  0.68126484485E-01  0.51100000000E-03 0.  1.
         11    1    4    4    0    0 -0.16454425054E-03  0.58750384816E-01  0.84220908041E-02  0.59353412078E-01  0.51100000000E-03 0. -1.
</event>
<event>
 8    1  0.1111182E+005  0.1043930E+01  0.7957747E-01            NaN
         13   -1    0    0    0    0  0.00000000000E+00  0.00000000000E+00  0.74505805969E-08  0.10566000000E+00  0.10566000000E+00 0.  1.
     999900   -1    0    0    0    0 -0.00000000000E+00 -0.00000000000E+00 -0.74505805969E-08  0.93827000000E+00  0.93827000000E+00 0.  1.
     999902    2    1    2    0    0 -0.10244328738E-01  0.33492049265E-03 -0.20290278299E-01  0.10211977798E+01  0.10209447348E+01 0.  0.
     999903    2    3    3    0    0  0.13925162590E-01 -0.71258204715E-01 -0.11026536004E+00  0.13338853493E+00  0.19037062142E-01 0.  0.
         14    1    1    2    0    0  0.10244328738E-01 -0.33492049265E-03  0.20290278299E-01  0.22732220228E-01  0.00000000000E+00 0.  1.
     999901    1    3    3    0    0 -0.24169491328E-01  0.71593125208E-01  0.89975081738E-01  0.88780924484E+00  0.88000000000E+00 0. -1.
        -11    1    4    4    0    0  0.28555430575E-02 -0.54030215706E-01 -0.86324842439E-01  0.10188060600E+00  0.51100000000E-03 0.  1.
         11    1    4    4    0    0  0.11069619533E-01 -0.17227989009E-01 -0.23940517598E-01  0.31507928934E-01  0.51100000000E-03 0. -1.
</event>
<event>
 8    1  0.1111182E+005  0.1043930E+01  0.7957747E-01            NaN
         13   -1    0    0    0    0  0.00000000000E+00  0.00000000000E+00  0.74505805969E-08  0.10566000000E+00  0.10566000000E+00 0.  1.
     999900   -1    0    0    0    0 -0.00000000000E+00 -0.00000000000E+00 -0.74505805969E-08  0.93827000000E+00  0.93827000000E+00 0. -1.
     999902    2    1    2    0    0 -0.20416423771E-02  0.61492673880E-02 -0.22673954435E-01  0.10203484393E+01  0.10200759029E+01 0.  0.
     999903    2    3    3    0    0  0.89870375472E-01 -0.38659710849E-01  0.81103463283E-01  0.12837006742E+00  0.18161630529E-01 0.  0.
         14    1    1    2    0    0  0.20416423771E-02 -0.61492673880E-02  0.22673954435E-01  0.23581560651E-01  0.00000000000E+00 0.  1.
     999901    1    3    3    0    0 -0.91912017849E-01  0.44808978237E-01 -0.10377741772E+00  0.89197837193E+00  0.88000000000E+00 0. -1.
        -11    1    4    4    0    0  0.28883655784E-01 -0.13122029639E-01  0.15827368525E-01  0.35457297539E-01  0.51100000000E-03 0.  1.
         11    1    4    4    0    0  0.60986719687E-01 -0.25537681210E-01  0.65276094758E-01  0.92912769885E-01  0.51100000000E-03 0. -1.
</event>
<event>
 8    1  0.1111182E+005  0.1043930E+01  0.7957747E-01            NaN
         13   -1    0    0    0    0  0.00000000000E+00  0.00000000000E+00  0.74505805969E-08  0.10566000000E+00  0.10566000000E+00 0. -1.
     999900   -1    0    0    0    0 -0.00000000000E+00 -0.00000000000E+00 -0.74505805969E-08  0.93827000000E+00  0.93827000000E+00 0.  1.
     999902    2    1    2    0    0  0.22050509754E-01  0.81031460130E-02  0.43875145666E-02  0.10200315432E+01  0.10197515446E+01 0.  0.
     999903    2    3    3    0    0  0.12834893411E+00  0.19915945065E-01  0.23142046967E-01  0.13335762917E+00  0.19457881819E-01 0.  0.
         14    1    1    2    0    0 -0.22050509754E-01 -0.81031460130E-02 -0.43875145666E-02  0.23898456849E-01  0.00000000000E+00 0.  1.
     999901    1    3    3    0    0 -0.10629842436E+00 -0.11812799052E-01 -0.18754532400E-01  0.88667391398E+00  0.88000000000E+00 0.  1.
        -11    1    4    4    0    0  0.78465643693E-01  0.20154746733E-01  0.90458913879E-02  0.81517852818E-01  0.51100000000E-03 0. -1.
         11    1    4    4    0    0  0.49883290421E-01 -0.23880166879E-03  0.14096155579E-01  0.51839776355E-01  0.51100000000E-03 0.  1.
</event>
<event>
 8    1  0.1111182E+005  0.1043930E+01  0.7957747E-01            NaN
         13   -1    0    0    0    0  0.00000000000E+00  0.00000000000E+00  0.74505805969E-08  0.10566000000E+00  0.10566000000E+00 0. -1.
     999900   -1    0    0    0    0 -0.00000000000E+00 -0.00000000000E+00 -0.74505805969E-08  0.93827000000E+00  0.93827000000E+00 0. -1.
     999902    2    1    2    0    0  0.64226371602E-02  0.18975773123E-01 -0.63198549131E-02  0.10229235534E+01  0.10227078396E+01 0.  0.
     999903    2    3    3    0    0  0.12067020214E+00 -0.39986036761E-01 -0.34541857441E-01  0.13313398131E+00  0.19270086760E-01 0.  0.
         14    1    1    2    0    0 -0.64226371602E-02 -0.18975773123E-01  0.63198549131E-02  0.21006446626E-01  0.00000000000E+00 0. -1.
     999901    1    3    3    0    0 -0.11424756498E+00  0.58961809884E-01  0.28222002528E-01  0.88978957206E+00  0.88000000000E+00 0. -1.
        -11    1    4    4    0    0  0.64539644818E-01 -0.31304638684E-01 -0.20962272424E-01  0.74733019092E-01  0.51100000000E-03 0. -1.
         11    1    4    4    0    0  0.56130557321E-01 -0.86813980767E-02 -0.13579585017E-01  0.58400962218E-01  0.51100000000E-03 0.  1.
</event>
<event>
 7    1  0.1127304E+005  0.1043930E+01  0.7957747E-01            NaN
         13   -1    0    0    0    0  0.00000000000E+00  0.00000000000E+00  0.74505805969E-08  0.10566000000E+00  0.10566000000E+00 0. -1.
     999900   -1    0    0    0    0 -0.00000000000E+00 -0.00000000000E+00 -0.74505805969E-08  0.93827000000E+00  0.93827000000E+00 0. -1.
     999903    2    1    2    0    0  0.25567485528E-01  0.83264245773E-01 -0.37079960143E-01  0.96860335032E-01  0.20502929493E-01 0.  0.
         14    1    1    2    0    0 -0.17960511918E-01  0.50266328113E-01  0.19380021588E-01  0.56787929766E-01  0.00000000000E+00 0. -1.
     999901    1    1    2    0    0 -0.76069736107E-02 -0.13353057389E+00  0.17699938556E-01  0.89028173520E+00  0.88000000000E+00 0.  1.
        -11    1    3    3    0    0  0.92083513320E-02  0.61771500247E-01 -0.25201390486E-01  0.67348965697E-01  0.51100000000E-03 0.  1.
         11    1    3    3    0    0  0.16359134196E-01  0.21492745526E-01 -0.11878569658E-01  0.29511369335E-01  0.51100000000E-03 0. -1.
</event>
<event>
 8    1  0.1111182E+005  0.1043930E+01  0.7957747E-01            NaN
         13   -1    0    0    0    0  0.00000000000E+00  0.00000000000E+00  0.74505805969E-08  0.10566000000E+00  0.10566000000E+00 0. -1.
     999900   -1    0    0    0    0 -0.00000000000E+00 -0.00000000000E+00 -0.74505805969E-08  0.93827000000E+00  0.93827000000E+00 0. -1.
     999902    2    1    2    0    0  0.16273306325E-01 -0.16124105667E-01 -0.61892431475E-02  0.10201999765E+01  0.10199239570E+01 0.  0.
     999903    2    3    3    0    0 -0.97714284659E-01  0.54391286382E-01  0.58712018218E-01  0.12768792333E+00  0.18724615353E-01 0.  0.
         14    1    1    2    0    0 -0.16273306325E-01  0.16124105667E-01  0.61892431475E-02  0.23730023452E-01  0.00000000000E+00 0. -1.
     999901    1    3    3    0    0  0.11398759098E+00 -0.70515392049E-01 -0.64901261365E-01  0.89251205322E+00  0.88000000000E+00 0. -1.
        -11    1    4    4    0    0 -0.32388794981E-01  0.91773867833E-02  0.21586210788E-01  0.39993550551E-01  0.51100000000E-03 0. -1.
         11    1    4    4    0    0 -0.65325489678E-01  0.45213899599E-01  0.37125807430E-01  0.87694372778E-01  0.51100000000E-03 0.  1.
</event>
<event>
 8    1  0.1111182E+005  0.1043930E+01  0.7957747E-01            NaN
         13   -1    0    0    0    0  0.00000000000E+00  0.00000000000E+00  0.74505805969E-08  0.10566000000E+00  0.10566000000E+00 0.  1.
     999900   -1    0    0    0    0 -0.00000000000E+00 -0.00000000000E+00 -0.74505805969E-08  0.93827000000E+00  0.93827000000E+00 0. -1.
     999902    2    1    2    0    0  0.97000605539E-02  0.12308129447E-01 -0.17121389256E-01  0.10207195886E+01  0.10204556607E+01 0.  0.
     999903    2    3    3    0    0 -0.35089053114E-01 -0.22552172779E-01 -0.12492930306E+00  0.13232561542E+00  0.12763055603E-01 0.  0.
         14    1    1    2    0    0 -0.97000605539E-02 -0.12308129447E-01  0.17121389256E-01  0.23210411356E-01  0.00000000000E+00 0.  1.
     999901    1    3    3    0    0  0.44789113668E-01  0.34860302227E-01  0.10780791381E+00  0.88839397322E+00  0.88000000000E+00 0.  1.
        -11    1    4    4    0    0 -0.23725925770E-01 -0.20478860010E-01 -0.10094652501E+00  0.10570130223E+00  0.51100000000E-03 0.  1.
         11    1    4    4    0    0 -0.11363127344E-01 -0.20733127696E-02 -0.23982778054E-01  0.26624313195E-01  0.51100000000E-03 0. -1.
</event>
<event>
 8    1  0.1111182E+005  0.1043930E+01  0.7957747E-01            NaN
         13   -1    0    0    0    0  0.00000000000E+00  0.00000000000E+00  0.74505805969E-08  0.10566000000E+00  0.10566000000E+00 0.  1.
     999900   -1    0    0    0    0 -0.00000000000E+00 -0.00000000000E+00 -0.74505805969E-08  0.93827000000E+00  0.93827000000E+00 0.  1.
     999902    2    1    2    0    0 -0.20704855445E-01  0.19738750461E-01  0.11014849376E-02  0.10153026952E+01  0.10148990296E+01 0.  0.
     999903    2    3    3    0    0  0.10795772751E+00  0.53974690115E-02  0.57017740980E-01  0.12407524936E+00  0.21439242400E-01 0.  0.
         14    1    1    2    0    0  0.20704855445E-01 -0.19738750461E-01 -0.11014849376E-02  0.28627304761E-01  0.00000000000E+00 0. -1.
     999901    1    3    3    0    0 -0.12866258296E+00  0.14341281450E-01 -0.55916256042E-01  0.89122744588E+00  0.88000000000E+00 0.  1.
        -11    1    4    4    0    0  0.24778415547E-01 -0.66164790201E-02  0.18490120120E-01  0.31621090030E-01  0.51100000000E-03 0. -1.
         11    1    4    4    0    0  0.83179311966E-01  0.12013948032E-01  0.38527620860E-01  0.92454159326E-01  0.51100000000E-03 0.  1.
</event>
<event>
 8    1  0.1111182E+005  0.1043930E+01  0.7957747E-01            NaN
         13   -1    0    0    0    0  0.00000000000E+00  0.00000000000E+00  0.74505805969E-08  0.10566000000E+00  0.10566000000E+00 0.  1.
     999900   -1    0    0    0    0 -0.00000000000E+00 -0.00000000000E+00 -0.74505805969E-08  0.93827000000E+00  0.93827000000E+00 0.  1.
     999902    2    1    2    0    0  0.15991030875E-01  0.11045871711E-01 -0.74290169586E-02  0.10231233990E+01  0.10229118120E+01 0.  0.
     999903    2    3    3    0    0  0.85122366015E-01 -0.32987504782E-01 -0.97916999601E-01  0.13469436150E+00  0.14860670999E-01 0.  0.
         14    1    1    2    0    0 -0.15991030875E-01 -0.11045871711E-01  0.74290169586E-02  0.20806600954E-01  0.00000000000E+00 0.  1.
     999901    1    3    3    0    0 -0.69131335140E-01  0.44033376494E-01  0.90487982642E-01  0.88842903754E+00  0.88000000000E+00 0. -1.
        -11    1    4    4    0    0  0.47891310530E-01 -0.20263760701E-01 -0.66014419660E-01  0.84037862574E-01  0.51100000000E-03 0. -1.
         11    1    4    4    0    0  0.37231055485E-01 -0.12723744081E-01 -0.31902579940E-01  0.50656498930E-01  0.51100000000E-03 0.  1.
</event>
<event>
 8    1  0.1111182E+005  0.1043930E+01  0.7957747E-01            NaN
         13   -1    0    0    0    0  0.00000000000E+00  0.00000000000E+00  0.74505805969E-08  0.10566000000E+00  0.10566000000E+00 0. -1.
     999900   -1    0    0    0    0 -0.00000000000E+00 -0.00000000000E+00 -0.74505805969E-08  0.93827000000E+00  0.93827000000E+00 0. -1.
     999902    2    1    2    0    0  0.19813333042E-01  0.98459852730E-02  0.10106378623E-01  0.10196061335E+01  0.10193159554E+01 0.  0.
     999903    2    3    3    0    0  0.22974391834E-01  0.16568417600E-01 -0.12465025497E+00  0.12931711657E+00  0.19567713994E-01 0.  0.
         14    1    1    2    0    0 -0.19813333042E-01 -0.98459852730E-02 -0.10106378623E-01  0.24323866492E-01  0.00000000000E+00 0.  1.
     999901    1    3    3    0    0 -0.31610587915E-02 -0.67224323271E-02  0.13475663359E+00  0.89028901694E+00  0.88000000000E+00 0.  1.
        -11    1    4    4    0    0 -0.17063809210E-03  0.39236058360E-02 -0.49751400581E-01  0.49908784606E-01  0.51100000000E-03 0. -1.
         11    1    4    4    0    0  0.23145029926E-01  0.12644811764E-01 -0.74898854390E-01  0.79408331961E-01  0.51100000000E-03 0.  1.
</event>
<event>
 8    1  0.1111182E+005  0.1043930E+01  0.7957747E-01            NaN
         13   -1    0    0    0    0  0.00000000000E+00  0.00000000000E+00  0.74505805969E-08  0.10566000000E+00  0.10566000000E+00 0.  1.
     999900   -1    0    0    0    0 -0.00000000000E+00 -0.00000000000E+00 -0.74505805969E-08  0.93827000000E+00  0.93827000000E+00 0. -1.
     999902    2    1    2    0    0  0.64336631327E-02  0.58547505355E-02  0.22685191936E-01  0.10196341555E+01  0.10193446537E+01 0.  0.
     999903    2    3    3    0    0  0.95365264875E-01 -0.79153455849E-01  0.37266040758E-01  0.13095658403E+00  0.20026627018E-01 0.  0.
         14    1    1    2    0    0 -0.64336631327E-02 -0.58547505355E-02 -0.22685191936E-01  0.24295844466E-01  0.00000000000E+00 0. -1.
     999901    1    3    3    0    0 -0.88931601742E-01  0.85008206384E-01 -0.14580848822E-01  0.88867757150E+00  0.88000000000E+00 0.  1.
        -11    1    4    4    0    0  0.68446603333E-01 -0.46343213829E-01  0.19403245110E-01  0.84908056259E-01  0.51100000000E-03 0. -1.
         11    1    4    4    0    0  0.26918661542E-01 -0.32810242020E-01  0.17862795648E-01  0.46048527772E-01  0.51100000000E-03 0.  1.
</event>
<event>
 8    1  0.1111182E+005  0.1043930E+01  0.7957747E-01            NaN
         13   -1    0    0    0    0  0.00000000000E+00  0.00000000000E+00  0.74505805969E-08  0.10566000000E+00  0.10566000000E+00 0. -1.
     999900   -1    0    0    0    0 -0.00000000000E+00 -0.00000000000E+00 -0.74505805969E-08  0.93827000000E+00  0.93827000000E+00 0. -1.
     999902    2    1    2    0    0  0.12599671443E-01  0.15552276922E-01  0.12449525366E-01  0.10203584977E+01  0.10200861964E+01 0.  0.
     999903    2    3    3    0    0 -0.56681697747E-01 -0.36386121755E-01  0.11019076016E+00  0.13072326103E+00  0.20243582529E-01 0.  0.
         14    1    1    2    0    0 -0.12599671443E-01 -0.15552276922E-01 -0.12449525366E-01  0.23571502281E-01  0.00000000000E+00 0.  1.
     999901    1    3    3    0    0  0.69281369190E-01  0.51938398677E-01 -0.97741234798E-01  0.88963523669E+00  0.88000000000E+00 0.  1.
        -11    1    4    4    0    0 -0.32255755751E-01 -0.31092298247E-01  0.62814230393E-01  0.77156033142E-01  0.51100000000E-03 0.  1.
         11    1    4    4    0    0 -0.24425941996E-01 -0.52938235079E-02  0.47376529771E-01  0.53567227890E-01  0.51100000000E-03 0. -1.
</event>
<event>
 8    1  0.1111182E+005  0.1043930E+01  0.7957747E-01            NaN
         13   -1    0    0    0    0  0.00000000000E+00  0.00000000000E+00  0.74505805969E-08  0.10566000000E+00  0.10566000000E+00 0. -1.
     999900   -1    0    0    0    0 -0.00000000000E+00 -0.00000000000E+00 -0.74505805969E-08  0.93827000000E+00  0.93827000000E+00 0.  1.
     999902    2    1    2    0    0 -0.14740837112E-01  0.11043819233E-01  0.14813340507E-01  0.10202933065E+01  0.10200194792E+01 0.  0.
     999903    2    3    3    0    0  0.11862947150E+00  0.46838786051E-01  0.10032559893E-01  0.12951175376E+00  0.20144942706E-01 0.  0.
         14    1    1    2    0    0  0.14740837112E-01 -0.11043819233E-01 -0.14813340507E-01  0.23636693487E-01  0.00000000000E+00 0.  1.
     999901    1    3    3    0    0 -0.13337030861E+00 -0.35794966818E-01  0.47807806141E-02  0.89078155276E+00  0.88000000000E+00 0. -1.
        -11    1    4    4    0    0  0.83532801468E-01  0.32050283446E-01  0.16201450806E-01  0.90926881170E-01  0.51100000000E-03 0. -1.
         11    1    4    4    0    0  0.35096670030E-01  0.14788502605E-01 -0.61688909124E-02  0.38584872587E-01  0.51100000000E-03 0.  1.
</event>
<event>
 8    1  0.1111182E+005  0.1043930E+01  0.7957747E-01            NaN
         13   -1    0    0    0    0  0.00000000000E+00  0.00000000000E+00  0.74505805969E-08  0.10566000000E+00  0.10566000000E+00 0. -1.
     999900   -1    0    0    0    0 -0.00000000000E+00 -0.00000000000E+00 -0.74505805969E-08  0.93827000000E+00  0.93827000000E+00 0. -1.
     999902    2    1    2    0    0 -0.11479309797E-01 -0.15915484024E-01  0.13764809597E-01  0.10199602864E+01  0.10196785958E+01 0.  0.
     999903    2    3    3    0    0 -0.65933928627E-01 -0.11059319611E+00 -0.25234245338E-01  0.13235108134E+00  0.17375374121E-01 0.  0.
         14    1    1    2    0    0  0.11479309797E-01  0.15915484024E-01 -0.13764809597E-01  0.23969713565E-01  0.00000000000E+00 0.  1.
     999901    1    3    3    0    0  0.54454618829E-01  0.94677712083E-01  0.38999054935E-01  0.88760920509E+00  0.88000000000E+00 0.  1.
        -11    1    4    4    0    0 -0.17050838319E-01 -0.43562457727E-01 -0.12419365770E-01  0.48403724833E-01  0.51100000000E-03 0. -1.
         11    1    4    4    0    0 -0.48883090308E-01 -0.67030738380E-01 -0.12814879568E-01  0.83947356511E-01  0.51100000000E-03 0.  1.
</event>
<event>
 8    1  0.1111182E+005  0.1043930E+01  0.7957747E-01            NaN
         13   -1    0    0    0    0  0.00000000000E+00  0.00000000000E+00  0.74505805969E-08  0.10566000000E+00  0.10566000000E+00 0.  1.
     999900   -1    0    0    0    0 -0.00000000000E+00 -0.00000000000E+00 -0.74505805969E-08  0.93827000000E+00  0.93827000000E+00 0. -1.
     999902    2    1    2    0    0 -0.18877475258E-01 -0.61998216318E-02 -0.12745530959E-01  0.10203239537E+01  0.10200508444E+01 0.  0.
     999903    2    3    3    0    0 -0.30862131606E-01 -0.69669484768E-01  0.10377233841E+00  0.13029673843E+00  0.20055761011E-01 0.  0.
         14    1    1    2    0    0  0.18877475258E-01  0.61998216318E-02  0.12745530959E-01  0.23606046255E-01  0.00000000000E+00 0.  1.
     999901    1    3    3    0    0  0.11984656348E-01  0.63469663137E-01 -0.11651786937E+00  0.89002721532E+00  0.88000000000E+00 0. -1.
        -11    1    4    4    0    0 -0.20812786725E-01 -0.23338146410E-01  0.44616043091E-01  0.54485719150E-01  0.51100000000E-03 0.  1.
         11    1    4    4    0    0 -0.10049344881E-01 -0.46331338358E-01  0.59156295320E-01  0.75811019276E-01  0.51100000000E-03 0. -1.
</event>
<event>
 8    1  0.1111182E+005  0.1043930E+01  0.7957747E-01            NaN
         13   -1    0    0    0    0  0.00000000000E+00  0.00000000000E+00  0.74505805969E-08  0.10566000000E+00  0.10566000000E+00 0.  1.
     999900   -1    0    0    0    0 -0.00000000000E+00 -0.00000000000E+00 -0.74505805969E-08  0.93827000000E+00  0.93827000000E+00 0. -1.
     999902    2    1    2    0    0 -0.29951152317E-02  0.29458974400E-01  0.23629081744E-02  0.10142250303E+01  0.10137899323E+01 0.  0.
     999903    2    3    3    0    0  0.37928502524E-01 -0.11048384718E+00 -0.27826047877E-01  0.12171726629E+00  0.19888493687E-01 0.  0.
         14    1    1    2    0    0  0.29951152317E-02 -0.29458974400E-01 -0.23629081744E-02  0.29704969668E-01  0.00000000000E+00 0.  1.
     999901    1    3    3    0    0 -0.40923617755E-01  0.13994282158E+00  0.30188956051E-01  0.89250776404E+00  0.88000000000E+00 0.  1.
        -11    1    4    4    0    0  0.33791665249E-01 -0.81830996755E-01 -0.27684388072E-01  0.92762466193E-01  0.51100000000E-03 0.  1.
         11    1    4    4    0    0  0.41368372744E-02 -0.28652850429E-01 -0.14165980451E-03  0.28954800100E-01  0.51100000000E-03 0. -1.
</event>
<event>
 7    1  0.1111182E+005  0.1043930E+01  0.7957747E-01            NaN
         13   -1    0    0    0    0  0.00000000000E+00  0.00000000000E+00  0.74505805969E-08  0.10566000000E+00  0.10566000000E+00 0. -1.
     999900   -1    0    0    0    0 -0.00000000000E+00 -0.00000000000E+00 -0.74505805969E-08  0.93827000000E+00  0.93827000000E+00 0. -1.
     999902    2    1    2    0    0 -0.32040026096E-02 -0.23327634152E-01 -0.29318557779E-02  0.10202015376E+01  0.10199255549E+01 0.  0.
         14    1    1    2    0    0  0.32040026096E-02  0.23327634152E-01  0.29318557779E-02  0.23728462364E-01  0.00000000000E+00 0.  1.
     999901    1    3    3    0    0  0.73692154260E-01  0.30415497443E-01 -0.49011264323E-01  0.88496199925E+00  0.88000000000E+00 0. -1.
        -11    1    3    3    0    0 -0.34696720305E-01 -0.23640632076E-01 -0.23774923585E-01  0.48251942938E-01  0.51100000000E-03 0.  1.
         11    1    3    3    0    0 -0.42199436564E-01 -0.30102499519E-01  0.69854332130E-01  0.86987595449E-01  0.51100000000E-03 0. -1.
</event>
<event>
 8    1  0.1111182E+005  0.1043930E+01  0.7957747E-01            NaN
         13   -1    0    0    0    0  0.00000000000E+00  0.00000000000E+00  0.74505805969E-08  0.10566000000E+00  0.10566000000E+00 0. -1.
     999900   -1    0    0    0    0 -0.00000000000E+00 -0.00000000000E+00 -0.74505805969E-08  0.93827000000E+00  0.93827000000E+00 0. -1.
     999902    2    1    2    0    0  0.11272469345E-01 -0.10480940311E-01 -0.17485613461E-01  0.10206348212E+01  0.10203689396E+01 0.  0.
     999903    2    3    3    0    0 -0.10079619048E-01  0.76681083216E-01  0.10023343042E+00  0.12827228096E+00  0.20626445253E-01 0.  0.
         14    1    1    2    0    0 -0.11272469345E-01  0.10480940311E-01  0.17485613461E-01  0.23295178752E-01  0.00000000000E+00 0. -1.
     999901    1    3    3    0    0  0.21352088393E-01 -0.87162023528E-01 -0.11771904388E+00  0.89236254029E+00  0.88000000000E+00 0. -1.
        -11    1    4    4    0    0  0.59330000803E-02  0.22559709656E-01  0.34236442818E-01  0.41431100970E-01  0.51100000000E-03 0. -1.
         11    1    4    4    0    0 -0.16012619128E-01  0.54121373561E-01  0.65996987605E-01  0.86841179986E-01  0.51100000000E-03 0.  1.
</event>
<event>
 8    1  0.1111182E+005  0.1043930E+01  0.7957747E-01            NaN
         13   -1    0    0    0    0  0.00000000000E+00  0.00000000000E+00  0.74505805969E-08  0.10566000000E+00  0.10566000000E+00 0. -1.
     999900   -1    0    0    0    0 -0.00000000000E+00 -0.00000000000E+00 -0.74505805969E-08  0.93827000000E+00  0.93827000000E+00 0. -1.
     999902    2    1    2    0    0  0.16775278786E-01  0.48834184674E-03 -0.13781071121E-01  0.10222144209E+01  0.10219837356E+01 0.  0.
     999903    2    3    3    0    0 -0.12691618069E-01 -0.11035624050E+00 -0.70135664964E-01  0.13298404593E+00  0.20643836510E-01 0.  0.
         14    1    1    2    0    0 -0.16775278786E-01 -0.48834184674E-03  0.13781071121E-01  0.21715579139E-01  0.00000000000E+00 0. -1.
     999901    1    3    3    0    0  0.29466896855E-01  0.11084458235E+00  0.56354593843E-01  0.88923037493E+00  0.88000000000E+00 0.  1.
        -11    1    4    4    0    0 -0.78408253394E-02 -0.10602922885E+00 -0.67583765341E-01  0.12598215100E+00  0.51100000000E-03 0. -1.
         11    1    4    4    0    0 -0.48507927296E-02 -0.43270116545E-02 -0.25518996225E-02  0.70018949326E-02  0.51100000000E-03 0.  1.
</event>
<event>
 8    1  0.1111182E+005  0.1043930E+01  0.7957747E-01            NaN
         13   -1    0    0    0    0  0.00000000000E+00  0.00000000000E+00  0.74505805969E-08  0.10566000000E+00  0.10566000000E+00 0. -1.
     999900   -1    0    0    0    0 -0.00000000000E+00 -0.00000000000E+00 -0.74505805969E-08  0.93827000000E+00  0.93827000000E+00 0. -1.
     999902    2    1    2    0    0  0.58455854118E-02  0.20638031852E-01  0.33932936587E-02  0.10222133320E+01  0.10219826234E+01 0.  0.
     999903    2    3    3    0    0  0.22537230942E-01  0.60827010470E-01 -0.11488913786E+00  0.13323386168E+00  0.18544430934E-01 0.  0.
         14    1    1    2    0    0 -0.58455854118E-02 -0.20638031852E-01 -0.33932936587E-02  0.21716668009E-01  0.00000000000E+00 0. -1.
     999901    1    3    3    0    0 -0.16691645530E-01 -0.40188978617E-01  0.11828243152E+00  0.88897947031E+00  0.88000000000E+00 0.  1.
        -11    1    4    4    0    0  0.12781046530E-01  0.39171687114E-01 -0.54388343537E-01  0.68235835566E-01  0.51100000000E-03 0. -1.
         11    1    4    4    0    0  0.97561844117E-02  0.21655323356E-01 -0.60500794322E-01  0.64998026112E-01  0.51100000000E-03 0.  1.
</event>
<event>
 8    1  0.1111182E+005  0.1043930E+01  0.7957747E-01            NaN
         13   -1    0    0    0    0  0.00000000000E+00  0.00000000000E+00  0.74505805969E-08  0.10566000000E+00  0.10566000000E+00 0. -1.
     999900   -1    0    0    0    0 -0.00000000000E+00 -0.00000000000E+00 -0.74505805969E-08  0.93827000000E+00  0.93827000000E+00 0. -1.
     999902    2    1    2    0    0 -0.10058474477E-01  0.14343045911E-01 -0.16352632111E-01  0.10199653500E+01  0.10196837797E+01 0.  0.
     999903    2    3    3    0    0 -0.73645954219E-01 -0.97224341974E-01  0.37277311957E-01  0.12902942604E+00  0.19562605982E-01 0.  0.
         14    1    1    2    0    0  0.10058474477E-01 -0.14343045911E-01  0.16352632111E-01  0.23964650045E-01  0.00000000000E+00 0. -1.
     999901    1    3    3    0    0  0.63587479741E-01  0.11156738788E+00 -0.53629944068E-01  0.89093592391E+00  0.88000000000E+00 0. -1.
        -11    1    4    4    0    0 -0.52114507833E-01 -0.81616251231E-01  0.27181942029E-01  0.10057958782E+00  0.51100000000E-03 0. -1.
         11    1    4    4    0    0 -0.21531446385E-01 -0.15608090743E-01  0.10095369928E-01  0.28449838226E-01  0.51100000000E-03 0.  1.
</event>
<event>
 8    1  0.1111182E+005  0.1043930E+01  0.7957747E-01            NaN
         13   -1    0    0    0    0  0.00000000000E+00  0.00000000000E+00  0.74505805969E-08  0.10566000000E+00  0.10566000000E+00 0.  1.
     999900   -1    0    0    0    0 -0.00000000000E+00 -0.00000000000E+00 -0.74505805969E-08  0.93827000000E+00  0.93827000000E+00 0. -1.
     999902    2    1    2    0    0 -0.12061363710E-01 -0.11361366347E-02 -0.20481217995E-01  0.10201340425E+01  0.10198564689E+01 0.  0.
     999903    2    3    3    0    0 -0.84213366201E-01  0.33800570117E-01  0.90541026792E-01  0.12954298948E+00  0.18690612740E-01 0.  0.
         14    1    1    2    0    0  0.12061363710E-01  0.11361366347E-02  0.20481217995E-01  0.23795957463E-01  0.00000000000E+00 0. -1.
     999901    1    3    3    0    0  0.72152002491E-01 -0.34936706752E-01 -0.11102224479E+00  0.89059105305E+00  0.88000000000E+00 0. -1.
        -11    1    4    4    0    0 -0.49231375720E-01  0.25650154179E-01  0.44517864446E-01  0.71160102168E-01  0.51100000000E-03 0. -1.
         11    1    4    4    0    0 -0.34981990481E-01  0.81504159377E-02  0.46023162346E-01  0.58382887315E-01  0.51100000000E-03 0.  1.
</event>
<event>
 8    1  0.1111182E+005  0.1043930E+01  0.7957747E-01            NaN
         13   -1    0    0    0    0  0.00000000000E+00  0.00000000000E+00  0.74505805969E-08  0.10566000000E+00  0.10566000000E+00 0. -1.
     999900   -1    0    0    0    0 -0.00000000000E+00 -0.00000000000E+00 -0.74505805969E-08  0.93827000000E+00  0.93827000000E+00 0.  1.
     999902    2    1    2    0    0  0.77547033889E-02  0.29296301174E-02 -0.21362939266E-01  0.10210150850E+01  0.10207579098E+01 0.  0.
     999903    2    3    3    0    0  0.53865291394E-01 -0.97323848040E-01 -0.70021589563E-01  0.13278954465E+00  0.18884892081E-01 0.  0.
         14    1    1    2    0    0 -0.77547033889E-02 -0.29296301174E-02  0.21362939266E-01  0.22914915041E-01  0.00000000000E+00 0. -1.
     999901    1    3    3    0    0 -0.46110588006E-01  0.10025347816E+00  0.48658650297E-01  0.88822554031E+00  0.88000000000E+00 0. -1.
        -11    1    4    4    0    0  0.41833571820E-01 -0.57146092580E-01 -0.46062969805E-01  0.84485394813E-01  0.51100000000E-03 0. -1.
         11    1    4    4    0    0  0.12031719574E-01 -0.40177755461E-01 -0.23958619757E-01  0.48304149837E-01  0.51100000000E-03 0.  1.
</event>
<event>
 8    1  0.1111182E+005  0.1043930E+01  0.7957747E-01            NaN
         13   -1    0    0    0    0  0.00000000000E+00  0.00000000000E+00  0.74505805969E-08  0.10566000000E+00  0.10566000000E+00 0.  1.
     999900   -1    0    0    0    0 -0.00000000000E+00 -0.00000000000E+00 -0.74505805969E-08  0.93827000000E+00  0.93827000000E+00 0.  1.
     999902    2    1    2    0    0  0.75524623422E-02  0.20714404487E-01  0.81245292306E-02  0.10204324636E+01  0.10201618884E+01 0.  0.
     999903    2    3    3    0    0 -0.58482645712E-01 -0.10980352843E+00 -0.21441287119E-01  0.12786890633E+00  0.20339461826E-01 0.  0.
         14    1    1    2    0    0 -0.75524623422E-02 -0.20714404487E-01 -0.81245292306E-02  0.23497536379E-01  0.00000000000E+00 0.  1.
     999901    1    3    3    0    0  0.66035108054E-01  0.13051793292E+00  0.29565816350E-01  0.89256355729E+00  0.88000000000E+00 0. -1.
        -11    1    4    4    0    0 -0.16405100644E-01 -0.14594206108E-01 -0.35306209607E-02  0.22245102482E-01  0.51100000000E-03 0. -1.
         11    1    4    4    0    0 -0.42077545068E-01 -0.95209322321E-01 -0.17910666159E-01  0.10562380385E+00  0.51100000000E-03 0.  1.
</event>
<event>
 8    1  0.1111182E+005  0.1043930E+01  0.7957747E-01            NaN
         13   -1    0    0    0    0  0.00000000000E+00  0.00000000000E+00  0.74505805969E-08  0.10566000000E+00  0.10566000000E+00 0. -1.
     999900   -1    0    0    0    0 -0.00000000000E+00 -0.00000000000E+00 -0.74505805969E-08  0.93827000000E+00  0.93827000000E+00 0.  1.
     999902    2    1    2    0    0 -0.76948245574E-02 -0.22185073884E-01 -0.10165941002E-02  0.10204263558E+01  0.10201556383E+01 0.  0.
     999903    2    3    3    0    0 -0.82659158599E-01  0.57539752989E-01 -0.79946212337E-01  0.13014236511E+00  0.20056885491E-01 0.  0.
         14    1    1    2    0    0  0.76948245574E-02  0.22185073884E-01  0.10165941002E-02  0.23503644223E-01  0.00000000000E+00 0.  1.
     999901    1    3    3    0    0  0.74964334042E-01 -0.79724826873E-01  0.78929618237E-01  0.89028399066E+00  0.88000000000E+00 0. -1.
        -11    1    4    4    0    0 -0.36098605608E-01  0.25256454606E-01 -0.47758351029E-01  0.64977834991E-01  0.51100000000E-03 0. -1.
         11    1    4    4    0    0 -0.46560552991E-01  0.32283298383E-01 -0.32187861308E-01  0.65164530121E-01  0.51100000000E-03 0.  1.
</event>
<event>
 8    1  0.1111182E+005  0.1043930E+01  0.7957747E-01            NaN
         13   -1    0    0    0    0  0.00000000000E+00  0.00000000000E+00  0.74505805969E-08  0.10566000000E+00  0.10566000000E+00 0.  1.
     999900   -1    0    0    0    0 -0.00000000000E+00 -0.00000000000E+00 -0.74505805969E-08  0.93827000000E+00  0.93827000000E+00 0.  1.
     999902    2    1    2    0    0  0.26296253030E-01 -0.24035899586E-02 -0.89456075605E-02  0.10160500060E+01  0.10156674262E+01 0.  0.
     999903    2    3    3    0    0 -0.62388518867E-01 -0.74091302606E-01  0.76903122673E-01  0.12454895647E+00  0.14714070594E-01 0.  0.
         14    1    1    2    0    0 -0.26296253030E-01  0.24035899586E-02  0.89456075605E-02  0.27879993952E-01  0.00000000000E+00 0. -1.
     999901    1    3    3    0    0  0.88684771897E-01  0.71687712648E-01 -0.85848730233E-01  0.89150104958E+00  0.88000000000E+00 0. -1.
        -11    1    4    4    0    0 -0.14882701302E-01 -0.22390050974E-01  0.29010888096E-01  0.39556313400E-01  0.51100000000E-03 0. -1.
         11    1    4    4    0    0 -0.47505817565E-01 -0.51701251633E-01  0.47892234577E-01  0.84992643074E-01  0.51100000000E-03 0.  1.
</event>
<event>
 8    1  0.1111182E+005  0.1043930E+01  0.7957747E-01            NaN
         13   -1    0    0    0    0  0.00000000000E+00  0.00000000000E+00  0.74505805969E-08  0.10566000000E+00  0.10566000000E+00 0.  1.
     999900   -1    0    0    0    0 -0.00000000000E+00 -0.00000000000E+00 -0.74505805969E-08  0.93827000000E+00  0.93827000000E+00 0.  1.
     999902    2    1    2    0    0  0.11239113878E-01 -0.53987446093E-02 -0.20138246436E-01  0.10202442850E+01  0.10199693074E+01 0.  0.
     999903    2    3    3    0    0  0.13102974823E-01  0.12742224082E+00 -0.11475794426E-01  0.13023309059E+00  0.20514595362E-01 0.  0.
         14    1    1    2    0    0 -0.11239113878E-01  0.53987446093E-02  0.20138246436E-01  0.23685714970E-01  0.00000000000E+00 0.  1.
     999901    1    3    3    0    0 -0.18638609450E-02 -0.13282098543E+00 -0.86624520091E-02  0.89001119444E+00  0.88000000000E+00 0.  1.
        -11    1    4    4    0    0  0.14364821455E-01  0.57215937190E-01 -0.11007767024E-01  0.60012028960E-01  0.51100000000E-03 0.  1.
         11    1    4    4    0    0 -0.12618466317E-02  0.70206303630E-01 -0.46802740283E-03  0.70221061634E-01  0.51100000000E-03 0. -1.
</event>
<event>
 8    1  0.1111182E+005  0.1043930E+01  0.7957747E-01            NaN
         13   -1    0    0    0    0  0.00000000000E+00  0.00000000000E+00  0.74505805969E-08  0.10566000000E+00  0.10566000000E+00 0. -1.
     999900   -1    0    0    0    0 -0.00000000000E+00 -0.00000000000E+00 -0.74505805969E-08  0.93827000000E+00  0.93827000000E+00 0. -1.
     999902    2    1    2    0    0  0.94623671955E-02 -0.22081436724E-01 -0.10573006325E-03  0.10199063154E+01  0.10196233397E+01 0.  0.
     999903    2    3    3    0    0  0.36240250015E-01 -0.91542993792E-01  0.86444224493E-01  0.13253217927E+00  0.19967452527E-01 0.  0.
         14    1    1    2    0    0 -0.94623671955E-02  0.22081436724E-01  0.10573006325E-03  0.24023684554E-01  0.00000000000E+00 0. -1.
     999901    1    3    3    0    0 -0.26777882820E-01  0.69461557069E-01 -0.86549954556E-01  0.88737413618E+00  0.88000000000E+00 0. -1.
        -11    1    4    4    0    0  0.12396375389E-01 -0.11464485966E-01  0.13762318253E-01  0.21789150648E-01  0.51100000000E-03 0. -1.
         11    1    4    4    0    0  0.23843874626E-01 -0.80078507827E-01  0.72681906240E-01  0.11074302862E+00  0.51100000000E-03 0.  1.
</event>
<event>
 8    1  0.1111182E+005  0.1043930E+01  0.7957747E-01            NaN
         13   -1    0    0    0    0  0.00000000000E+00  0.00000000000E+00  0.74505805969E-08  0.10566000000E+00  0.10566000000E+00 0.  1.
     999900   -1    0    0    0    0 -0.00000000000E+00 -0.00000000000E+00 -0.74505805969E-08  0.93827000000E+00  0.93827000000E+00 0.  1.
     999902    2    1    2    0    0  0.15479309235E-01  0.33649020419E-02  0.17238122626E-01  0.10205187964E+01  0.10202502288E+01 0.  0.
     999903    2    3    3    0    0  0.11119389546E+00  0.69383173506E-02  0.71588418732E-01  0.13365465465E+00  0.18067716497E-01 0.  0.
         14    1    1    2    0    0 -0.15479309235E-01 -0.33649020419E-02 -0.17238122626E-01  0.23411203554E-01  0.00000000000E+00 0.  1.
     999901    1    3    3    0    0 -0.95714586221E-01 -0.35734153086E-02 -0.54350296105E-01  0.88686414179E+00  0.88000000000E+00 0.  1.
        -11    1    4    4    0    0  0.45980870513E-01 -0.53296425248E-02  0.33501850626E-01  0.57142634337E-01  0.51100000000E-03 0.  1.
         11    1    4    4    0    0  0.65213024943E-01  0.12267959875E-01  0.38086568106E-01  0.76512020316E-01  0.51100000000E-03 0. -1.
</event>
<event>
 8    1  0.1111182E+005  0.1043930E+01  0.7957747E-01            NaN
         13   -1    0    0    0    0  0.00000000000E+00  0.00000000000E+00  0.74505805969E-08  0.10566000000E+00  0.10566000000E+00 0. -1.
     999900   -1    0    0    0    0 -0.00000000000E+00 -0.00000000000E+00 -0.74505805969E-08  0.93827000000E+00  0.93827000000E+00 0. -1.
     999902    2    1    2    0    0 -0.16360215858E-01  0.71321784723E-02  0.94260066003E-02  0.10237464861E+01  0.10235475043E+01 0.  0.
     999903    2    3    3    0    0 -0.26306360161E-01  0.12055809795E+00  0.52085951795E-01  0.13538606605E+00  0.19752492026E-01 0.  0.
         14    1    1    2    0    0  0.16360215858E-01 -0.71321784723E-02 -0.94260066003E-02  0.20183513894E-01  0.00000000000E+00 0. -1.
     999901    1    3    3    0    0  0.99461443026E-02 -0.11342591947E+00 -0.42659945194E-01  0.88836042005E+00  0.88000000000E+00 0. -1.
        -11    1    4    4    0    0 -0.15658283253E-01  0.47643260213E-01  0.30073633176E-01  0.58478599603E-01  0.51100000000E-03 0. -1.
         11    1    4    4    0    0 -0.10648076908E-01  0.72914837734E-01  0.22012318618E-01  0.76907466448E-01  0.51100000000E-03 0.  1.
</event>
<event>
 8    1  0.1111182E+005  0.1043930E+01  0.7957747E-01            NaN
         13   -1    0    0    0    0  0.00000000000E+00  0.00000000000E+00  0.74505805969E-08  0.10566000000E+00  0.10566000000E+00 0.  1.
     999900   -1    0    0    0    0 -0.00000000000E+00 -0.00000000000E+00 -0.74505805969E-08  0.93827000000E+00  0.93827000000E+00 0. -1.
     999902    2    1    2    0    0  0.15817278577E-01 -0.12034427879E-01  0.19541729564E-01  0.10160572005E+01  0.10156748209E+01 0.  0.
     999903    2    3    3    0    0 -0.10091931869E+00  0.17967550425E-01 -0.66181561683E-01  0.12371419781E+00  0.20436777608E-01 0.  0.
         14    1    1    2    0    0 -0.15817278577E-01  0.12034427879E-01 -0.19541729564E-01  0.27872799470E-01  0.00000000000E+00 0. -1.
     999901    1    3    3    0    0  0.11673659727E+00 -0.30001978304E-01  0.85723291246E-01  0.89234300272E+00  0.88000000000E+00 0.  1.
        -11    1    4    4    0    0 -0.84891465194E-01  0.12351927352E-01 -0.46030589106E-01  0.97356084692E-01  0.51100000000E-03 0. -1.
         11    1    4    4    0    0 -0.16027853498E-01  0.56156230736E-02 -0.20150972577E-01  0.26358113116E-01  0.51100000000E-03 0.  1.
</event>
<event>
 8    1  0.1111182E+005  0.1043930E+01  0.7957747E-01            NaN
         13   -1    0    0    0    0  0.00000000000E+00  0.00000000000E+00  0.74505805969E-08  0.10566000000E+00  0.10566000000E+00 0.  1.
     999900   -1    0    0    0    0 -0.00000000000E+00 -0.00000000000E+00 -0.74505805969E-08  0.93827000000E+00  0.93827000000E+00 0.  1.
     999902    2    1    2    0    0  0.78631323247E-02 -0.24628517537E-01 -0.27183169976E-02  0.10179341932E+01  0.10176022011E+01 0.  0.
     999903    2    3    3    0    0  0.11541328672E-01 -0.97480930295E-01 -0.84568032866E-01  0.13113073175E+00  0.20193627429E-01 0.  0.
         14    1    1    2    0    0 -0.78631323247E-02  0.24628517537E-01  0.27183169976E-02  0.25995806841E-01  0.00000000000E+00 0. -1.
     999901    1    3    3    0    0 -0.36781963477E-02  0.72852412758E-01  0.81849715868E-01  0.88680346141E+00  0.88000000000E+00 0. -1.
        -11    1    4    4    0    0  0.14836747804E-01 -0.70067573773E-01 -0.52457392046E-01  0.88778562058E-01  0.51100000000E-03 0. -1.
         11    1    4    4    0    0 -0.32954191319E-02 -0.27413356522E-01 -0.32110640820E-01  0.42352169696E-01  0.51100000000E-03 0.  1.
</event>
<event>
 8    1  0.1111182E+005  0.1043930E+01  0.7957747E-01            NaN
         13   -1    0    0    0    0  0.00000000000E+00  0.00000000000E+00  0.74505805969E-08  0.10566000000E+00  0.10566000000E+00 0. -1.
     999900   -1    0    0    0    0 -0.00000000000E+00 -0.00000000000E+00 -0.74505805969E-08  0.93827000000E+00  0.93827000000E+00 0. -1.
     999902    2    1    2    0    0 -0.11149754791E-03 -0.17430069716E-02 -0.22642885830E-01  0.10212198528E+01  0.10209673046E+01 0.  0.
     999903    2    3    3    0    0 -0.28329509000E-01 -0.17694194087E-01 -0.12854736001E+00  0.13427765958E+00  0.19759061564E-01 0.  0.
         14    1    1    2    0    0  0.11149754791E-03  0.17430069716E-02  0.22642885830E-01  0.22710147153E-01  0.00000000000E+00 0. -1.
     999901    1    3    3    0    0  0.28218011452E-01  0.15951187115E-01  0.10590447418E+00  0.88694219326E+00  0.88000000000E+00 0.  1.
        -11    1    4    4    0    0 -0.12569633884E-01  0.27064959181E-02 -0.37296037299E-01  0.39453470510E-01  0.51100000000E-03 0.  1.
         11    1    4    4    0    0 -0.15759875116E-01 -0.20400690005E-01 -0.91251322708E-01  0.94824189073E-01  0.51100000000E-03 0. -1.
</event>
<event>
 8    1  0.1111182E+005  0.1043930E+01  0.7957747E-01            NaN
         13   -1    0    0    0    0  0.00000000000E+00  0.00000000000E+00  0.74505805969E-08  0.10566000000E+00  0.10566000000E+00 0.  1.
     999900   -1    0    0    0    0 -0.00000000000E+00 -0.00000000000E+00 -0.74505805969E-08  0.93827000000E+00  0.93827000000E+00 0.  1.
     999902    2    1    2    0    0 -0.14261211512E-01 -0.15673804888E-01  0.11569952364E-01  0.10197863857E+01  0.10195005436E+01 0.  0.
     999903    2    3    3    0    0 -0.38824926794E-01  0.10877620383E+00 -0.52658677327E-01  0.12837374408E+00  0.19163622107E-01 0.  0.
         14    1    1    2    0    0  0.14261211512E-01  0.15673804888E-01 -0.11569952364E-01  0.24143614294E-01  0.00000000000E+00 0. -1.
     999901    1    3    3    0    0  0.24563715282E-01 -0.12445000871E+00  0.64228629691E-01  0.89141264163E+00  0.88000000000E+00 0. -1.
        -11    1    4    4    0    0 -0.27795207262E-01  0.68678905918E-01 -0.43041119439E-01  0.85686432697E-01  0.51100000000E-03 0.  1.
         11    1    4    4    0    0 -0.11029719533E-01  0.40097297907E-01 -0.96175578879E-02  0.42687311384E-01  0.51100000000E-03 0. -1.
</event>
<event>
 8    1  0.1111182E+005  0.1043930E+01  0.7957747E-01            NaN
         13   -1    0    0    0    0  0.00000000000E+00  0.00000000000E+00  0.74505805969E-08  0.10566000000E+00  0.10566000000E+00 0.  1.
     999900   -1    0    0    0    0 -0.00000000000E+00 -0.00000000000E+00 -0.74505805969E-08  0.93827000000E+00  0.93827000000E+00 0.  1.
     999902    2    1    2    0    0 -0.45541719656E-02  0.92001623234E-02  0.21399285646E-01  0.10201957864E+01  0.10199196683E+01 0.  0.
     999903    2    3    3    0    0 -0.44795686986E-01  0.70088179343E-01 -0.96976050149E-01  0.12927522301E+00  0.19716047405E-01 0.  0.
         14    1    1    2    0    0  0.45541719656E-02 -0.92001623234E-02 -0.21399285646E-01  0.23734213601E-01  0.00000000000E+00 0. -1.
     999901    1    3    3    0    0  0.40241515020E-01 -0.60888017019E-01  0.11837533580E+00  0.89092056339E+00  0.88000000000E+00 0. -1.
        -11    1    4    4    0    0 -0.16639605602E-01  0.28511122515E-01 -0.53430662136E-01  0.62808099469E-01  0.51100000000E-03 0.  1.
         11    1    4    4    0    0 -0.28156081385E-01  0.41577056828E-01 -0.43545388013E-01  0.66467123540E-01  0.51100000000E-03 0. -1.
</event>
<event>
 8    1  0.1111182E+005  0.1043930E+01  0.7957747E-01            NaN
         13   -1    0    0    0    0  0.00000000000E+00  0.00000000000E+00  0.74505805969E-08  0.10566000000E+00  0.10566000000E+00 0.  1.
     999900   -1    0    0    0    0 -0.00000000000E+00 -0.00000000000E+00 -0.74505805969E-08  0.93827000000E+00  0.93827000000E+00 0. -1.
     999902    2    1    2    0    0  0.14641336844E-01 -0.24566929741E-02 -0.18940432934E-01  0.10198645874E+01  0.10195806160E+01 0.  0.
     999903    2    3    3    0    0  0.88242849870E-01 -0.46265334552E-01 -0.86158767005E-01  0.13315455347E+00  0.19481279319E-01 0.  0.
         14    1    1    2    0    0 -0.14641336844E-01  0.24566929741E-02  0.18940432934E-01  0.24065412622E-01  0.00000000000E+00 0.  1.
     999901    1    3    3    0    0 -0.73601513026E-01  0.43808641578E-01  0.67218334070E-01  0.88671003391E+00  0.88000000000E+00 0.  1.
        -11    1    4    4    0    0  0.47342771180E-01 -0.35121825517E-01 -0.46204017392E-01  0.74899619190E-01  0.51100000000E-03 0. -1.
         11    1    4    4    0    0  0.40900078690E-01 -0.11143509035E-01 -0.39954749612E-01  0.58254934281E-01  0.51100000000E-03 0.  1.
</event>
<event>
 8    1  0.1111182E+005  0.1043930E+01  0.7957747E-01            NaN
         13   -1    0    0    0    0  0.00000000000E+00  0.00000000000E+00  0.74505805969E-08  0.10566000000E+00  0.10566000000E+00 0. -1.
     999900   -1    0    0    0    0 -0.00000000000E+00 -0.00000000000E+00 -0.74505805969E-08  0.93827000000E+00  0.93827000000E+00 0.  1.
     999902    2    1    2    0    0 -0.81430648230E-02 -0.18366501656E-01  0.11481661157E-01  0.10207898524E+01  0.10205275383E+01 0.  0.
     999903    2    3    3    0    0  0.11205095425E+00 -0.13751079907E-01 -0.60510736844E-01  0.12969456586E+00  0.20362283558E-01 0.  0.
         14    1    1    2    0    0  0.81430648230E-02  0.18366501656E-01 -0.11481661157E-01  0.23140147595E-01  0.00000000000E+00 0.  1.
     999901    1    3    3    0    0 -0.12019401908E+00 -0.46154217487E-02  0.71992398001E-01  0.89109528655E+00  0.88000000000E+00 0.  1.
        -11    1    4    4    0    0  0.22649967467E-01  0.19206536038E-02 -0.20067995555E-01  0.30326481878E-01  0.51100000000E-03 0. -1.
         11    1    4    4    0    0  0.89400986786E-01 -0.15671733511E-01 -0.40442741289E-01  0.99368083978E-01  0.51100000000E-03 0.  1.
</event>
<event>
 8    1  0.1111182E+005  0.1043930E+01  0.7957747E-01            NaN
         13   -1    0    0    0    0  0.00000000000E+00  0.00000000000E+00  0.74505805969E-08  0.10566000000E+00  0.10566000000E+00 0. -1.
     999900   -1    0    0    0    0 -0.00000000000E+00 -0.00000000000E+00 -0.74505805969E-08  0.93827000000E+00  0.93827000000E+00 0. -1.
     999902    2    1    2    0    0 -0.96628081090E-03 -0.19931871064E-01  0.12749663807E-01  0.10202494783E+01  0.10199746226E+01 0.  0.
     999903    2    3    3    0    0 -0.73811177252E-01 -0.77710101704E-01  0.76655324602E-01  0.13304677518E+00  0.18397168286E-01 0.  0.
         14    1    1    2    0    0  0.96628081090E-03  0.19931871064E-01 -0.12749663807E-01  0.23680521741E-01  0.00000000000E+00 0.  1.
     999901    1    3    3    0    0  0.72844896442E-01  0.57778230640E-01 -0.63905660795E-01  0.88720270308E+00  0.88000000000E+00 0. -1.
        -11    1    4    4    0    0 -0.11989843314E-01 -0.23420018564E-01  0.15619226568E-01  0.30601878567E-01  0.51100000000E-03 0. -1.
         11    1    4    4    0    0 -0.61821333938E-01 -0.54290083140E-01  0.61036098034E-01  0.10244489661E+00  0.51100000000E-03 0.  1.
</event>
<event>
 8    1  0.1111182E+005  0.1043930E+01  0.7957747E-01            NaN
         13   -1    0    0    0    0  0.00000000000E+00  0.00000000000E+00  0.74505805969E-08  0.10566000000E+00  0.10566000000E+00 0.  1.
     999900   -1    0    0    0    0 -0.00000000000E+00 -0.00000000000E+00 -0.74505805969E-08  0.93827000000E+00  0.93827000000E+00 0. -1.
     999902    2    1    2    0    0  0.11038474115E-01 -0.92889674310E-05 -0.20027151929E-01  0.10210622320E+01  0.10208061260E+01 0.  0.
     999903    2    3    3    0    0  0.73342923514E-01  0.71944567658E-01  0.78016362024E-01  0.13051648222E+00  0.19819034842E-01 0.  0.
         14    1    1    2    0    0 -0.11038474115E-01  0.92889674310E-05  0.20027151929E-01  0.22867767960E-01  0.00000000000E+00 0. -1.
     999901    1    3    3    0    0 -0.62304449399E-01 -0.71953856625E-01 -0.98043513953E-01  0.89054574982E+00  0.88000000000E+00 0.  1.
        -11    1    4    4    0    0  0.45703022270E-01  0.57330431278E-01  0.52964756507E-01  0.90449273894E-01  0.51100000000E-03 0. -1.
         11    1    4    4    0    0  0.27639901244E-01  0.14614136380E-01  0.25051605517E-01  0.40067208324E-01  0.51100000000E-03 0.  1.
</event>
<event>
 8    1  0.1111182E+005  0.1043930E+01  0.7957747E-01            NaN
         13   -1    0    0    0    0  0.00000000000E+00  0.00000000000E+00  0.74505805969E-08  0.10566000000E+00  0.10566000000E+00 0. -1.
     999900   -1    0    0    0    0 -0.00000000000E+00 -0.00000000000E+00 -0.74505805969E-08  0.93827000000E+00  0.93827000000E+00 0.  1.
     999902    2    1    2    0    0 -0.72992584290E-02 -0.89727450923E-02  0.22700855747E-01  0.10184522022E+01  0.10181334736E+01 0.  0.
     999903    2    3    3    0    0  0.66212178425E-01 -0.10489097144E+00  0.34136846352E-01  0.13011948337E+00  0.19482998025E-01 0.  0.
         14    1    1    2    0    0  0.72992584290E-02  0.89727450923E-02 -0.22700855747E-01  0.25477797781E-01  0.00000000000E+00 0.  1.
     999901    1    3    3    0    0 -0.73511436854E-01  0.95918226350E-01 -0.11435990604E-01  0.88833271885E+00  0.88000000000E+00 0.  1.
        -11    1    4    4    0    0  0.24202224862E-01 -0.25232858476E-01  0.42144964634E-02  0.35220277350E-01  0.51100000000E-03 0. -1.
         11    1    4    4    0    0  0.42009953563E-01 -0.79658112966E-01  0.29922349888E-01  0.94899206022E-01  0.51100000000E-03 0.  1.
</event>
<event>
 8    1  0.1111182E+005  0.1043930E+01  0.7957747E-01            NaN
         13   -1    0    0    0    0  0.00000000000E+00  0.00000000000E+00  0.74505805969E-08  0.10566000000E+00  0.10566000000E+00 0.  1.
     999900   -1    0    0    0    0 -0.00000000000E+00 -0.00000000000E+00 -0.74505805969E-08  0.93827000000E+00  0.93827000000E+00 0.  1.
     999902    2    1    2    0    0  0.12844372355E-01 -0.11101224864E-01 -0.16823681989E-01  0.10200291345E+01  0.10197490789E+01 0.  0.
     999903    2    3    3    0    0  0.70941747829E-01 -0.97335626940E-01 -0.55046898092E-01  0.13308342515E+00  0.13193983572E-01 0.  0.
         14    1    1    2    0    0 -0.12844372355E-01  0.11101224864E-01  0.16823681989E-01  0.23900865472E-01  0.00000000000E+00 0.  1.
     999901    1    3    3    0    0 -0.58097375474E-01  0.86234402076E-01  0.38223216104E-01  0.88694570938E+00  0.88000000000E+00 0. -1.
        -11    1    4    4    0    0  0.38091555232E-01 -0.47658872662E-01 -0.34433081957E-01  0.70058782300E-01  0.51100000000E-03 0.  1.
         11    1    4    4    0    0  0.32850192598E-01 -0.49676754279E-01 -0.20613816135E-01  0.63024642847E-01  0.51100000000E-03 0. -1.
</event>
<event>
 8    1  0.1111182E+005  0.1043930E+01  0.7957747E-01            NaN
         13   -1    0    0    0    0  0.00000000000E+00  0.00000000000E+00  0.74505805969E-08  0.10566000000E+00  0.10566000000E+00 0. -1.
     999900   -1    0    0    0    0 -0.00000000000E+00 -0.00000000000E+00 -0.74505805969E-08  0.93827000000E+00  0.93827000000E+00 0.  1.
     999902    2    1    2    0    0 -0.17575223937E-01  0.15811455865E-01 -0.47543057241E-02  0.10198158121E+01  0.10195306747E+01 0.  0.
     999903    2    3    3    0    0 -0.58467093606E-02  0.15985681227E-01 -0.12841516341E+00  0.13109223525E+00  0.20124461078E-01 0.  0.
         14    1    1    2    0    0  0.17575223937E-01 -0.15811455865E-01  0.47543057241E-02  0.24114187856E-01  0.00000000000E+00 0.  1.
     999901    1    3    3    0    0 -0.11728514577E-01 -0.17422536146E-03  0.12366085769E+00  0.88872357690E+00  0.88000000000E+00 0. -1.
        -11    1    4    4    0    0 -0.18204631386E-02 -0.44875835419E-02 -0.14941258168E-01  0.15714795854E-01  0.51100000000E-03 0.  1.
         11    1    4    4    0    0 -0.40262462219E-02  0.20473264769E-01 -0.11347390524E+00  0.11537743939E+00  0.51100000000E-03 0. -1.
</event>
<event>
 8    1  0.1111182E+005  0.1043930E+01  0.7957747E-01            NaN
         13   -1    0    0    0    0  0.00000000000E+00  0.00000000000E+00  0.74505805969E-08  0.10566000000E+00  0.10566000000E+00 0.  1.
     999900   -1    0    0    0    0 -0.00000000000E+00 -0.00000000000E+00 -0.74505805969E-08  0.93827000000E+00  0.93827000000E+00 0.  1.
     999902    2    1    2    0    0 -0.10673412761E-01  0.52281524943E-02 -0.20596470660E-01  0.10201503885E+01  0.10198732006E+01 0.  0.
     999903    2    3    3    0    0  0.66223455649E-01  0.81624103842E-01 -0.76864677948E-01  0.13171604604E+00  0.19821646279E-01 0.  0.
         14    1    1    2    0    0  0.10673412761E-01 -0.52281524943E-02  0.20596470660E-01  0.23779611480E-01  0.00000000000E+00 0.  1.
     999901    1    3    3    0    0 -0.76896868410E-01 -0.76395951348E-01  0.56268207287E-01  0.88843434248E+00  0.88000000000E+00 0. -1.
        -11    1    4    4    0    0  0.62002750913E-01  0.68030358004E-01 -0.71269550530E-01  0.11641340423E+00  0.51100000000E-03 0. -1.
         11    1    4    4    0    0  0.42207047355E-02  0.13593745838E-01 -0.55951274176E-02  0.15302641804E-01  0.51100000000E-03 0.  1.
</event>
<event>
 8    1  0.1111182E+005  0.1043930E+01  0.7957747E-01            NaN
         13   -1    0    0    0    0  0.00000000000E+00  0.00000000000E+00  0.74505805969E-08  0.10566000000E+00  0.10566000000E+00 0. -1.
     999900   -1    0    0    0    0 -0.00000000000E+00 -0.00000000000E+00 -0.74505805969E-08  0.93827000000E+00  0.93827000000E+00 0. -1.
     999902    2    1    2    0    0 -0.88351403705E-02 -0.12350110278E-02 -0.22944792044E-01  0.10193119489E+01  0.10190146224E+01 0.  0.
     999903    2    3    3    0    0 -0.29399757734E-01 -0.11924835160E+00 -0.41256266376E-01  0.13100718019E+00  0.19398108934E-01 0.  0.
         14    1    1    2    0    0  0.88351403705E-02  0.12350110278E-02  0.22944792044E-01  0.24618051092E-01  0.00000000000E+00 0. -1.
     999901    1    3    3    0    0  0.20564617363E-01  0.11801334058E+00  0.18311474332E-01  0.88830476872E+00  0.88000000000E+00 0.  1.
        -11    1    4    4    0    0 -0.18964219652E-01 -0.53712493315E-01 -0.10758347156E-01  0.57971343953E-01  0.51100000000E-03 0.  1.
         11    1    4    4    0    0 -0.10435538081E-01 -0.65535858288E-01 -0.30497919220E-01  0.73035836234E-01  0.51100000000E-03 0. -1.
</event>
<event>
 8    1  0.1111182E+005  0.1043930E+01  0.7957747E-01            NaN
         13   -1    0    0    0    0  0.00000000000E+00  0.00000000000E+00  0.74505805969E-08  0.10566000000E+00  0.10566000000E+00 0. -1.
     999900   -1    0    0    0    0 -0.00000000000E+00 -0.00000000000E+00 -0.74505805969E-08  0.93827000000E+00  0.93827000000E+00 0.  1.
     999902    2    1    2    0    0  0.16567870383E-01  0.11950997390E-01 -0.16337446206E-01  0.10177721557E+01  0.10174359578E+01 0.  0.
     999903    2    3    3    0    0  0.47211278810E-01  0.11938823969E+00 -0.13261843178E-01  0.13070325264E+00  0.20615701370E-01 0.  0.
         14    1    1    2    0    0 -0.16567870383E-01 -0.11950997390E-01  0.16337446206E-01  0.26157844257E-01  0.00000000000E+00 0.  1.
     999901    1    3    3    0    0 -0.30643408426E-01 -0.10743724230E+00 -0.30756030284E-02  0.88706890310E+00  0.88000000000E+00 0. -1.
        -11    1    4    4    0    0  0.25581234909E-01  0.54960041736E-01  0.34250271783E-02  0.60720652988E-01  0.51100000000E-03 0. -1.
         11    1    4    4    0    0  0.21630043900E-01  0.64428197957E-01 -0.16686870356E-01  0.69982599655E-01  0.51100000000E-03 0.  1.
</event>
<event>
 8    1  0.1111182E+005  0.1043930E+01  0.7957747E-01            NaN
         13   -1    0    0    0    0  0.00000000000E+00  0.00000000000E+00  0.74505805969E-08  0.10566000000E+00  0.10566000000E+00 0. -1.
     999900   -1    0    0    0    0 -0.00000000000E+00 -0.00000000000E+00 -0.74505805969E-08  0.93827000000E+00  0.93827000000E+00 0. -1.
     999902    2    1    2    0    0  0.18717382780E-01  0.13790633660E-01  0.59897358109E-02  0.10199216904E+01  0.10196390811E+01 0.  0.
     999903    2    3    3    0    0 -0.63538625979E-01 -0.68002448429E-01 -0.85324543861E-01  0.12762439861E+00  0.18606970541E-01 0.  0.
         14    1    1    2    0    0 -0.18717382780E-01 -0.13790633660E-01 -0.59897358109E-02  0.24008309602E-01  0.00000000000E+00 0. -1.
     999901    1    3    3    0    0  0.82256008759E-01  0.81793082089E-01  0.91314279672E-01  0.89229729178E+00  0.88000000000E+00 0. -1.
        -11    1    4    4    0    0 -0.33718136455E-02 -0.12544721334E-01 -0.13560925332E-01  0.18785605593E-01  0.51100000000E-03 0. -1.
         11    1    4    4    0    0 -0.60166812334E-01 -0.55457727095E-01 -0.71763618528E-01  0.10883879302E+00  0.51100000000E-03 0.  1.
</event>
<event>
 7    1  0.1188113E+005  0.1043930E+01  0.7957747E-01            NaN
         13   -1    0    0    0    0  0.00000000000E+00  0.00000000000E+00  0.74505805969E-08  0.10566000000E+00  0.10566000000E+00 0. -1.
     999900   -1    0    0    0    0 -0.00000000000E+00 -0.00000000000E+00 -0.74505805969E-08  0.93827000000E+00  0.93827000000E+00 0.  1.
     999903    2    1    2    0    0  0.53020047970E-01  0.83614184063E-01  0.67101142180E-02  0.10145045169E+00  0.21088178019E-01 0.  0.
         14    1    1    2    0    0 -0.30348321035E-01 -0.51597413519E-01  0.13539067014E-01  0.61372795334E-01  0.00000000000E+00 0. -1.
     999901    1    1    2    0    0 -0.22671726935E-01 -0.32016770545E-01 -0.20249181232E-01  0.88110675298E+00  0.88000000000E+00 0.  1.
        -11    1    3    3    0    0  0.36876431531E-01  0.62364024034E-01  0.13973903731E-01  0.73788032924E-01  0.51100000000E-03 0. -1.
         11    1    3    3    0    0  0.16143616439E-01  0.21250160029E-01 -0.72637895130E-02  0.27662418767E-01  0.51100000000E-03 0.  1.
</event>
<event>
 8    1  0.1111182E+005  0.1043930E+01  0.7957747E-01            NaN
         13   -1    0    0    0    0  0.00000000000E+00  0.00000000000E+00  0.74505805969E-08  0.10566000000E+00  0.10566000000E+00 0.  1.
     999900   -1    0    0    0    0 -0.00000000000E+00 -0.00000000000E+00 -0.74505805969E-08  0.93827000000E+00  0.93827000000E+00 0.  1.
     999902    2    1    2    0    0 -0.75747299921E-02 -0.14918379981E-01  0.17110911894E-01  0.10199984747E+01  0.10197176916E+01 0.  0.
     999903    2    3    3    0    0  0.11211818635E+00  0.59552793514E-01  0.81567117352E-02  0.12873390817E+00  0.19719640983E-01 0.  0.
         14    1    1    2    0    0  0.75747299921E-02  0.14918379981E-01 -0.17110911894E-01  0.23931525266E-01  0.00000000000E+00 0. -1.
     999901    1    3    3    0    0 -0.11969291635E+00 -0.74471173496E-01  0.89542001592E-02  0.89126456656E+00  0.88000000000E+00 0. -1.
        -11    1    4    4    0    0  0.33312854855E-01  0.28142887057E-01  0.40224208250E-02  0.43797367282E-01  0.51100000000E-03 0. -1.
         11    1    4    4    0    0  0.78805331499E-01  0.31409906458E-01  0.41342909102E-02  0.84936540892E-01  0.51100000000E-03 0.  1.
</event>
<event>
 8    1  0.1111182E+005  0.1043930E+01  0.7957747E-01            NaN
         13   -1    0    0    0    0  0.00000000000E+00  0.00000000000E+00  0.74505805969E-08  0.10566000000E+00  0.10566000000E+00 0.  1.
     999900   -1    0    0    0    0 -0.00000000000E+00 -0.00000000000E+00 -0.74505805969E-08  0.93827000000E+00  0.93827000000E+00 0. -1.
     999902    2    1    2    0    0 -0.18854439149E-01 -0.13176059431E-01 -0.18228473624E-01  0.10145807978E+01  0.10141562107E+01 0.  0.
     999903    2    3    3    0    0 -0.27605958702E-03  0.18611641503E-01  0.11995841171E+00  0.12303650313E+00  0.20037244219E-01 0.  0.
         14    1    1    2    0    0  0.18854439149E-01  0.13176059431E-01  0.18228473624E-01  0.29349202176E-01  0.00000000000E+00 0.  1.
     999901    1    3    3    0    0 -0.18578379562E-01 -0.31787700933E-01 -0.13818688533E+00  0.89154429469E+00  0.88000000000E+00 0. -1.
        -11    1    4    4    0    0  0.92498285800E-02  0.10997992077E-01  0.79005901831E-01  0.80303852981E-01  0.51100000000E-03 0.  1.
         11    1    4    4    0    0 -0.95258881670E-02  0.76136494258E-02  0.40952509875E-01  0.42732650152E-01  0.51100000000E-03 0. -1.
</event>
<event>
 8    1  0.1111182E+005  0.1043930E+01  0.7957747E-01            NaN
         13   -1    0    0    0    0  0.00000000000E+00  0.00000000000E+00  0.74505805969E-08  0.10566000000E+00  0.10566000000E+00 0. -1.
     999900   -1    0    0    0    0 -0.00000000000E+00 -0.00000000000E+00 -0.74505805969E-08  0.93827000000E+00  0.93827000000E+00 0.  1.
     999902    2    1    2    0    0  0.70442256395E-02  0.24166401457E-02 -0.23623629669E-01  0.10191603181E+01  0.10188592723E+01 0.  0.
     999903    2    3    3    0    0 -0.56924811543E-01  0.63999792197E-01 -0.97848678806E-01  0.13158278328E+00  0.20081268412E-01 0.  0.
         14    1    1    2    0    0 -0.70442256395E-02 -0.24166401457E-02  0.23623629669E-01  0.24769681936E-01  0.00000000000E+00 0. -1.
     999901    1    3    3    0    0  0.63969037182E-01 -0.61583152051E-01  0.74225049137E-01  0.88757753478E+00  0.88000000000E+00 0. -1.
        -11    1    4    4    0    0 -0.42591257452E-01  0.35713729666E-01 -0.54266427922E-01  0.77682636531E-01  0.51100000000E-03 0.  1.
         11    1    4    4    0    0 -0.14333554091E-01  0.28286062531E-01 -0.43582250884E-01  0.53900146749E-01  0.51100000000E-03 0. -1.
</event>
<event>
 8    1  0.1111182E+005  0.1043930E+01  0.7957747E-01            NaN
         13   -1    0    0    0    0  0.00000000000E+00  0.00000000000E+00  0.74505805969E-08  0.10566000000E+00  0.10566000000E+00 0.  1.
     999900   -1    0    0    0    0 -0.00000000000E+00 -0.00000000000E+00 -0.74505805969E-08  0.93827000000E+00  0.93827000000E+00 0. -1.
     999902    2    1    2    0    0  0.29985544398E-02  0.24660246707E-01  0.43807953053E-02  0.10187048050E+01  0.10183924436E+01 0.  0.
     999903    2    3    3    0    0  0.22050690445E-01 -0.66913141622E-01 -0.10395185450E+00  0.12714177728E+00  0.19885723700E-01 0.  0.
         14    1    1    2    0    0 -0.29985544398E-02 -0.24660246707E-01 -0.43807953053E-02  0.25225195022E-01  0.00000000000E+00 0.  1.
     999901    1    3    3    0    0 -0.19052136005E-01  0.91573388329E-01  0.10833264980E+00  0.89156302769E+00  0.88000000000E+00 0.  1.
        -11    1    4    4    0    0  0.99966263599E-02 -0.77177700637E-02 -0.15009666268E-01  0.19622632744E-01  0.51100000000E-03 0. -1.
         11    1    4    4    0    0  0.12054064085E-01 -0.59195371558E-01 -0.88942188228E-01  0.10751914454E+00  0.51100000000E-03 0.  1.
</event>
<event>
 8    1  0.1111182E+005  0.1043930E+01  0.7957747E-01            NaN
         13   -1    0    0    0    0  0.00000000000E+00  0.00000000000E+00  0.74505805969E-08  0.10566000000E+00  0.10566000000E+00 0. -1.
     999900   -1    0    0    0    0 -0.00000000000E+00 -0.00000000000E+00 -0.74505805969E-08  0.93827000000E+00  0.93827000000E+00 0. -1.
     999902    2    1    2    0    0  0.19303918651E-01  0.91997140106E-02  0.48208260544E-02  0.10220093162E+01  0.10217742050E+01 0.  0.
     999903    2    3    3    0    0 -0.32140684720E-01 -0.36520438947E-01 -0.11949101333E+00  0.13061136188E+00  0.20358278693E-01 0.  0.
         14    1    1    2    0    0 -0.19303918651E-01 -0.91997140106E-02 -0.48208260544E-02  0.21920683771E-01  0.00000000000E+00 0. -1.
     999901    1    3    3    0    0  0.51444603371E-01  0.45720152957E-01  0.12431183938E+00  0.89139795435E+00  0.88000000000E+00 0.  1.
        -11    1    4    4    0    0 -0.25851053602E-01 -0.25395950154E-01 -0.62909033011E-01  0.72601920167E-01  0.51100000000E-03 0.  1.
         11    1    4    4    0    0 -0.62896311184E-02 -0.11124488793E-01 -0.56581980317E-01  0.58009441715E-01  0.51100000000E-03 0. -1.
</event>
<event>
 8    1  0.1111182E+005  0.1043930E+01  0.7957747E-01            NaN
         13   -1    0    0    0    0  0.00000000000E+00  0.00000000000E+00  0.74505805969E-08  0.10566000000E+00  0.10566000000E+00 0.  1.
     999900   -1    0    0    0    0 -0.00000000000E+00 -0.00000000000E+00 -0.74505805969E-08  0.93827000000E+00  0.93827000000E+00 0.  1.
     999902    2    1    2    0    0  0.47636814604E-02 -0.20890029141E-01  0.15176713440E-01  0.10176732178E+01  0.10173344385E+01 0.  0.
     999903    2    3    3    0    0 -0.10255063800E-01  0.10292854705E+00 -0.67498932607E-01  0.12504123042E+00  0.19487207823E-01 0.  0.
         14    1    1    2    0    0 -0.47636814604E-02  0.20890029141E-01 -0.15176713440E-01  0.26256782161E-01  0.00000000000E+00 0. -1.
     999901    1    3    3    0    0  0.15018745260E-01 -0.12381857620E+00  0.82675646048E-01  0.89263198742E+00  0.88000000000E+00 0. -1.
        -11    1    4    4    0    0  0.48506941067E-02  0.35023624455E-01 -0.18141715091E-01  0.39743759897E-01  0.51100000000E-03 0. -1.
         11    1    4    4    0    0 -0.15105757906E-01  0.67904922600E-01 -0.49357217516E-01  0.85297470520E-01  0.51100000000E-03 0.  1.
</event>
<event>
 8    1  0.1111182E+005  0.1043930E+01  0.7957747E-01            NaN
         13   -1    0    0    0    0  0.00000000000E+00  0.00000000000E+00  0.74505805969E-08  0.10566000000E+00  0.10566000000E+00 0. -1.
     999900   -1    0    0    0    0 -0.00000000000E+00 -0.00000000000E+00 -0.74505805969E-08  0.93827000000E+00  0.93827000000E+00 0. -1.
     999902    2    1    2    0    0 -0.12281062825E-01  0.12624155997E-03  0.19162043891E-01  0.10211698513E+01  0.10209161772E+01 0.  0.
     999903    2    3    3    0    0 -0.39504663748E-02  0.11857508323E+00  0.55400385474E-01  0.13245575539E+00  0.19991695229E-01 0.  0.
         14    1    1    2    0    0  0.12281062825E-01 -0.12624155997E-03 -0.19162043891E-01  0.22760148662E-01  0.00000000000E+00 0.  1.
     999901    1    3    3    0    0 -0.83305964504E-02 -0.11844884167E+00 -0.36238341583E-01  0.88871409594E+00  0.88000000000E+00 0. -1.
        -11    1    4    4    0    0  0.59169856905E-02  0.81240999714E-01  0.41419740569E-01  0.91383624266E-01  0.51100000000E-03 0.  1.
         11    1    4    4    0    0 -0.98674520653E-02  0.37334083517E-01  0.13980644905E-01  0.41072131126E-01  0.51100000000E-03 0. -1.
</event>
<event>
 8    1  0.1111182E+005  0.1043930E+01  0.7957747E-01            NaN
         13   -1    0    0    0    0  0.00000000000E+00  0.00000000000E+00  0.74505805969E-08  0.10566000000E+00  0.10566000000E+00 0.  1.
     999900   -1    0    0    0    0 -0.00000000000E+00 -0.00000000000E+00 -0.74505805969E-08  0.93827000000E+00  0.93827000000E+00 0. -1.
     999902    2    1    2    0    0 -0.20320424417E-01  0.10868527898E-01  0.90658819740E-02  0.10191664227E+01  0.10188655271E+01 0.  0.
     999903    2    3    3    0    0 -0.80226908179E-01  0.66841017532E-01 -0.76767603859E-01  0.13119733891E+00  0.20381322666E-01 0.  0.
         14    1    1    2    0    0  0.20320424417E-01 -0.10868527898E-01 -0.90658819740E-02  0.24763577349E-01  0.00000000000E+00 0.  1.
     999901    1    3    3    0    0  0.59906483762E-01 -0.55972489634E-01  0.85833485833E-01  0.88796908374E+00  0.88000000000E+00 0.  1.
        -11    1    4    4    0    0 -0.54192522521E-01  0.55274977875E-01 -0.61534375898E-01  0.98888286538E-01  0.51100000000E-03 0. -1.
         11    1    4    4    0    0 -0.26034385658E-01  0.11566039657E-01 -0.15233227962E-01  0.32309052371E-01  0.51100000000E-03 0.  1.
</event>
<event>
 8    1  0.1111182E+005  0.1043930E+01  0.7957747E-01            NaN
         13   -1    0    0    0    0  0.00000000000E+00  0.00000000000E+00  0.74505805969E-08  0.10566000000E+00  0.10566000000E+00 0.  1.
     999900   -1    0    0    0    0 -0.00000000000E+00 -0.00000000000E+00 -0.74505805969E-08  0.93827000000E+00  0.93827000000E+00 0.  1.
     999902    2    1    2    0    0  0.21392009857E-02  0.23749782912E-01 -0.15207655109E-02  0.10200356262E+01  0.10197557245E+01 0.  0.
     999903    2    3    3    0    0  0.98744673255E-01 -0.65469090833E-01  0.46414689210E-01  0.12897421842E+00  0.21055006329E-01 0.  0.
         14    1    1    2    0    0 -0.21392009857E-02 -0.23749782912E-01  0.15207655109E-02  0.23894373751E-01  0.00000000000E+00 0.  1.
     999901    1    3    3    0    0 -0.96605472270E-01  0.89218873745E-01 -0.47935454721E-01  0.89106140783E+00  0.88000000000E+00 0.  1.
        -11    1    4    4    0    0  0.61258584068E-01 -0.51163509878E-01  0.25934628158E-01  0.83923685118E-01  0.51100000000E-03 0.  1.
         11    1    4    4    0    0  0.37486089187E-01 -0.14305580955E-01  0.20480061052E-01  0.45050533301E-01  0.51100000000E-03 0. -1.
</event>
<event>
 8    1  0.1111182E+005  0.1043930E+01  0.7957747E-01            NaN
         13   -1    0    0    0    0  0.00000000000E+00  0.00000000000E+00  0.74505805969E-08  0.10566000000E+00  0.10566000000E+00 0. -1.
     999900   -1    0    0    0    0 -0.00000000000E+00 -0.00000000000E+00 -0.74505805969E-08  0.93827000000E+00  0.93827000000E+00 0. -1.
     999902    2    1    2    0    0  0.16414468595E-01  0.10836829703E-01 -0.13042385047E-01  0.10203296724E+01  0.10200566969E+01 0.  0.
     999903    2    3    3    0    0 -0.19018096207E-01 -0.11605517603E+00 -0.50906363421E-01  0.12971711427E+00  0.20114174827E-01 0.  0.
         14    1    1    2    0    0 -0.16414468595E-01 -0.10836829703E-01  0.13042385047E-01  0.23600327646E-01  0.00000000000E+00 0. -1.
     999901    1    3    3    0    0  0.35432564802E-01  0.12689200574E+00  0.37863978374E-01  0.89061255809E+00  0.88000000000E+00 0. -1.
        -11    1    4    4    0    0 -0.13555842681E-01 -0.33888380154E-01 -0.20953969410E-01  0.42089347053E-01  0.51100000000E-03 0.  1.
         11    1    4    4    0    0 -0.54622535260E-02 -0.82166795879E-01 -0.29952394011E-01  0.87627767212E-01  0.51100000000E-03 0. -1.
</event>
<event>
 8    1  0.1111182E+005  0.1043930E+01  0.7957747E-01            NaN
         13   -1    0    0    0    0  0.00000000000E+00  0.00000000000E+00  0.74505805969E-08  0.10566000000E+00  0.10566000000E+00 0.  1.
     999900   -1    0    0    0    0 -0.00000000000E+00 -0.00000000000E+00 -0.74505805969E-08  0.93827000000E+00  0.93827000000E+00 0.  1.
     999902    2    1    2    0    0  0.21720808847E-01  0.53184666596E-02 -0.10485588730E-01  0.10192312714E+01  0.10189319690E+01 0.  0.
     999903    2    3    3    0    0  0.62731608018E-01 -0.10641201638E+00 -0.37538916120E-01  0.13080712210E+00  0.21037136065E-01 0.  0.
         14    1    1    2    0    0 -0.21720808847E-01 -0.53184666596E-02  0.10485588730E-01  0.24698728623E-01  0.00000000000E+00 0.  1.
     999901    1    3    3    0    0 -0.41010799171E-01  0.11173048304E+00  0.27053327390E-01  0.88842414927E+00  0.88000000000E+00 0. -1.
        -11    1    4    4    0    0  0.39480219339E-01 -0.80582768621E-01 -0.33632247892E-01  0.95831412058E-01  0.51100000000E-03 0. -1.
         11    1    4    4    0    0  0.23251388679E-01 -0.25829247764E-01 -0.39066682280E-02  0.34975710046E-01  0.51100000000E-03 0.  1.
</event>
<event>
 8    1  0.1111182E+005  0.1043930E+01  0.7957747E-01            NaN
         13   -1    0    0    0    0  0.00000000000E+00  0.00000000000E+00  0.74505805969E-08  0.10566000000E+00  0.10566000000E+00 0.  1.
     999900   -1    0    0    0    0 -0.00000000000E+00 -0.00000000000E+00 -0.74505805969E-08  0.93827000000E+00  0.93827000000E+00 0.  1.
     999902    2    1    2    0    0  0.11519873985E-01  0.12183920162E-01  0.17173227083E-01  0.10199284347E+01  0.10196459860E+01 0.  0.
     999903    2    3    3    0    0  0.24506836192E-01 -0.11134733651E+00 -0.54838302026E-01  0.12829269470E+00  0.21282898714E-01 0.  0.
         14    1    1    2    0    0 -0.11519873985E-01 -0.12183920162E-01 -0.17173227083E-01  0.24001565274E-01  0.00000000000E+00 0. -1.
     999901    1    3    3    0    0 -0.12986962207E-01  0.12353125667E+00  0.72011529109E-01  0.89163574002E+00  0.88000000000E+00 0. -1.
        -11    1    4    4    0    0  0.13272627355E-01 -0.89821542125E-01 -0.49544972305E-01  0.10343615165E+00  0.51100000000E-03 0. -1.
         11    1    4    4    0    0  0.11234208837E-01 -0.21525794383E-01 -0.52933297209E-02  0.24856543053E-01  0.51100000000E-03 0.  1.
</event>
<event>
 8    1  0.1111182E+005  0.1043930E+01  0.7957747E-01            NaN
         13   -1    0    0    0    0  0.00000000000E+00  0.00000000000E+00  0.74505805969E-08  0.10566000000E+00  0.10566000000E+00 0.  1.
     999900   -1    0    0    0    0 -0.00000000000E+00 -0.00000000000E+00 -0.74505805969E-08  0.93827000000E+00  0.93827000000E+00 0. -1.
     999902    2    1    2    0    0  0.14402666592E-01  0.11301914073E-01  0.15262528644E-01  0.10200948401E+01  0.10198163403E+01 0.  0.
     999903    2    3    3    0    0  0.12930397093E+00  0.23234201063E-01 -0.12465736240E-02  0.13239148894E+00  0.16328116826E-01 0.  0.
         14    1    1    2    0    0 -0.14402666592E-01 -0.11301914073E-01 -0.15262528644E-01  0.23835159896E-01  0.00000000000E+00 0. -1.
     999901    1    3    3    0    0 -0.11490130434E+00 -0.11932286990E-01  0.16509102268E-01  0.88770335117E+00  0.88000000000E+00 0. -1.
        -11    1    4    4    0    0  0.67937448866E-01  0.20323921989E-01 -0.21604459694E-02  0.70947074720E-01  0.51100000000E-03 0.  1.
         11    1    4    4    0    0  0.61366522068E-01  0.29102790738E-02  0.91387234535E-03  0.61444414219E-01  0.51100000000E-03 0. -1.
</event>
<event>
 8    1  0.1111182E+005  0.1043930E+01  0.7957747E-01            NaN
         13   -1    0    0    0    0  0.00000000000E+00  0.00000000000E+00  0.74505805969E-08  0.10566000000E+00  0.10566000000E+00 0. -1.
     999900   -1    0    0    0    0 -0.00000000000E+00 -0.00000000000E+00 -0.74505805969E-08  0.93827000000E+00  0.93827000000E+00 0.  1.
     999902    2    1    2    0    0 -0.12748492002E-01  0.81391606266E-02 -0.15010465988E-01  0.10226207515E+01  0.10223987076E+01 0.  0.
     999903    2    3    3    0    0 -0.78531619216E-01  0.92702584379E-01  0.51840391450E-01  0.13360588679E+00  0.20052990626E-01 0.  0.
         14    1    1    2    0    0  0.12748492002E-01 -0.81391606266E-02  0.15010465988E-01  0.21309248537E-01  0.00000000000E+00 0. -1.
     999901    1    3    3    0    0  0.65783127214E-01 -0.84563423753E-01 -0.66850857438E-01  0.88901486467E+00  0.88000000000E+00 0.  1.
        -11    1    4    4    0    0 -0.25159420391E-01  0.33330295590E-01  0.28017104071E-01  0.50290399482E-01  0.51100000000E-03 0. -1.
         11    1    4    4    0    0 -0.53372198825E-01  0.59372288789E-01  0.23823287379E-01  0.83315487312E-01  0.51100000000E-03 0.  1.
</event>
<event>
 8    1  0.1111182E+005  0.1043930E+01  0.7957747E-01            NaN
         13   -1    0    0    0    0  0.00000000000E+00  0.00000000000E+00  0.74505805969E-08  0.10566000000E+00  0.10566000000E+00 0.  1.
     999900   -1    0    0    0    0 -0.00000000000E+00 -0.00000000000E+00 -0.74505805969E-08  0.93827000000E+00  0.93827000000E+00 0. -1.
     999902    2    1    2    0    0 -0.26323929259E-01  0.84575919395E-02  0.50858090445E-02  0.10158169147E+01  0.10154278205E+01 0.  0.
     999903    2    3    3    0    0 -0.36331728583E-01  0.11032013815E+00  0.51887090775E-01  0.12864923360E+00  0.19178835529E-01 0.  0.
         14    1    1    2    0    0  0.26323929259E-01 -0.84575919395E-02 -0.50858090445E-02  0.28113085329E-01  0.00000000000E+00 0.  1.
     999901    1    3    3    0    0  0.10007799324E-01 -0.10186254621E+00 -0.46801281730E-01  0.88716768107E+00  0.88000000000E+00 0. -1.
        -11    1    4    4    0    0 -0.32386215125E-01  0.88647222034E-01  0.49250823735E-01  0.10645704140E+00  0.51100000000E-03 0. -1.
         11    1    4    4    0    0 -0.39455134582E-02  0.21672916120E-01  0.26362670404E-02  0.22192192197E-01  0.51100000000E-03 0.  1.
</event>
<event>
 8    1  0.1111182E+005  0.1043930E+01  0.7957747E-01            NaN
         13   -1    0    0    0    0  0.00000000000E+00  0.00000000000E+00  0.74505805969E-08  0.10566000000E+00  0.10566000000E+00 0. -1.
     999900   -1    0    0    0    0 -0.00000000000E+00 -0.00000000000E+00 -0.74505805969E-08  0.93827000000E+00  0.93827000000E+00 0. -1.
     999902    2    1    2    0    0 -0.20096283342E-01 -0.81840459061E-02  0.68426393031E-02  0.10211778369E+01  0.10209243428E+01 0.  0.
     999903    2    3    3    0    0  0.11956026938E+00  0.89771902462E-02  0.43790750605E-01  0.12923410347E+00  0.20213255587E-01 0.  0.
         14    1    1    2    0    0  0.20096283342E-01  0.81840459061E-02 -0.68426393031E-02  0.22752163066E-01  0.00000000000E+00 0.  1.
     999901    1    3    3    0    0 -0.13965655272E+00 -0.17161236152E-01 -0.36948111301E-01  0.89194373347E+00  0.88000000000E+00 0. -1.
        -11    1    4    4    0    0  0.88481031765E-01  0.54535212909E-02  0.22714987243E-01  0.91514292016E-01  0.51100000000E-03 0. -1.
         11    1    4    4    0    0  0.31079237614E-01  0.35236689553E-02  0.21075763361E-01  0.37719811450E-01  0.51100000000E-03 0.  1.
</event>
<event>
 8    1  0.1111182E+005  0.1043930E+01  0.7957747E-01            NaN
         13   -1    0    0    0    0  0.00000000000E+00  0.00000000000E+00  0.74505805969E-08  0.10566000000E+00  0.10566000000E+00 0.  1.
     999900   -1    0    0    0    0 -0.00000000000E+00 -0.00000000000E+00 -0.74505805969E-08  0.93827000000E+00  0.93827000000E+00 0.  1.
     999902    2    1    2    0    0  0.23997845490E-01 -0.24652885254E-02  0.17011286304E-02  0.10197459541E+01  0.10194591423E+01 0.  0.
     999903    2    3    3    0    0  0.32901799427E-01  0.14555046792E-01  0.12437528070E+00  0.13102894642E+00  0.20124526284E-01 0.  0.
         14    1    1    2    0    0 -0.23997845490E-01  0.24652885254E-02 -0.17011286304E-02  0.24184045863E-01  0.00000000000E+00 0.  1.
     999901    1    3    3    0    0 -0.89039539364E-02 -0.17020335317E-01 -0.12267415207E+00  0.88871700771E+00  0.88000000000E+00 0.  1.
        -11    1    4    4    0    0  0.32171784616E-01  0.61398358499E-02  0.98024661111E-01  0.10335287425E+00  0.51100000000E-03 0. -1.
         11    1    4    4    0    0  0.73001481058E-03  0.84152109418E-02  0.26350619594E-01  0.27676072171E-01  0.51100000000E-03 0.  1.
</event>
<event>
 8    1  0.1111182E+005  0.1043930E+01  0.7957747E-01            NaN
         13   -1    0    0    0    0  0.00000000000E+00  0.00000000000E+00  0.74505805969E-08  0.10566000000E+00  0.10566000000E+00 0. -1.
     999900   -1    0    0    0    0 -0.00000000000E+00 -0.00000000000E+00 -0.74505805969E-08  0.93827000000E+00  0.93827000000E+00 0.  1.
     999902    2    1    2    0    0  0.11426099055E-01  0.11198478204E-01 -0.17644565212E-01  0.10201121005E+01  0.10198340087E+01 0.  0.
     999903    2    3    3    0    0 -0.45965140931E-01 -0.10267027276E+00 -0.61675657700E-01  0.12983204123E+00  0.19962291677E-01 0.  0.
         14    1    1    2    0    0 -0.11426099055E-01 -0.11198478204E-01  0.17644565212E-01  0.23817899472E-01  0.00000000000E+00 0. -1.
     999901    1    3    3    0    0  0.57391239986E-01  0.11386875096E+00  0.44031092488E-01  0.89028005930E+00  0.88000000000E+00 0. -1.
        -11    1    4    4    0    0 -0.27102052747E-01 -0.75218847673E-01 -0.51071674703E-01  0.94873459863E-01  0.51100000000E-03 0. -1.
         11    1    4    4    0    0 -0.18863088184E-01 -0.27451425085E-01 -0.10603982997E-01  0.34958581371E-01  0.51100000000E-03 0.  1.
</event>
<event>
 8    1  0.1111182E+005  0.1043930E+01  0.7957747E-01            NaN
         13   -1    0    0    0    0  0.00000000000E+00  0.00000000000E+00  0.74505805969E-08  0.10566000000E+00  0.10566000000E+00 0. -1.
     999900   -1    0    0    0    0 -0.00000000000E+00 -0.00000000000E+00 -0.74505805969E-08  0.93827000000E+00  0.93827000000E+00 0.  1.
     999902    2    1    2    0    0  0.10384182967E-01  0.15937864921E-01  0.11344812782E-01  0.10217816012E+01  0.10215415258E+01 0.  0.
     999903    2    3    3    0    0  0.86838737607E-01  0.60938004723E-01 -0.77245333756E-01  0.13289548609E+00  0.20975267959E-01 0.  0.
         14    1    1    2    0    0 -0.10384182967E-01 -0.15937864921E-01 -0.11344812782E-01  0.22148398841E-01  0.00000000000E+00 0. -1.
     999901    1    3    3    0    0 -0.76454554640E-01 -0.45000139801E-01  0.88590146538E-01  0.88888611507E+00  0.88000000000E+00 0. -1.
        -11    1    4    4    0    0  0.13938944348E-01  0.75273033166E-02 -0.21505151383E-01  0.26714923204E-01  0.51100000000E-03 0.  1.
         11    1    4    4    0    0  0.72899793259E-01  0.53410701406E-01 -0.55740182373E-01  0.10618056288E+00  0.51100000000E-03 0. -1.
</event>
<event>
 8    1  0.1111182E+005  0.1043930E+01  0.7957747E-01            NaN
         13   -1    0    0    0    0  0.00000000000E+00  0.00000000000E+00  0.74505805969E-08  0.10566000000E+00  0.10566000000E+00 0.  1.
     999900   -1    0    0    0    0 -0.00000000000E+00 -0.00000000000E+00 -0.74505805969E-08  0.93827000000E+00  0.93827000000E+00 0. -1.
     999902    2    1    2    0    0  0.15223656207E-01 -0.18990244213E-01 -0.95683708203E-03  0.10195721548E+01  0.10192811557E+01 0.  0.
     999903    2    3    3    0    0 -0.69909312570E-01  0.10280248406E+00  0.99130154658E-02  0.12704806849E+00  0.24233883676E-01 0.  0.
         14    1    1    2    0    0 -0.15223656207E-01  0.18990244213E-01  0.95683708203E-03  0.24357845159E-01  0.00000000000E+00 0.  1.
     999901    1    3    3    0    0  0.85132968777E-01 -0.12179272827E+00 -0.10869852548E-01  0.89252408636E+00  0.88000000000E+00 0. -1.
        -11    1    4    4    0    0 -0.48007665730E-01  0.79448133889E-01  0.16692945387E-01  0.94316793276E-01  0.51100000000E-03 0.  1.
         11    1    4    4    0    0 -0.21901646840E-01  0.23354350167E-01 -0.67799299210E-02  0.32731275209E-01  0.51100000000E-03 0. -1.
</event>
<event>
 8    1  0.1111182E+005  0.1043930E+01  0.7957747E-01            NaN
         13   -1    0    0    0    0  0.00000000000E+00  0.00000000000E+00  0.74505805969E-08  0.10566000000E+00  0.10566000000E+00 0.  1.
     999900   -1    0    0    0    0 -0.00000000000E+00 -0.00000000000E+00 -0.74505805969E-08  0.93827000000E+00  0.93827000000E+00 0. -1.
     999902    2    1    2    0    0  0.98640771379E-02  0.19647467008E-01 -0.46437986950E-02  0.10214602905E+01  0.10212131204E+01 0.  0.
     999903    2    3    3    0    0  0.96889489217E-01 -0.62069920900E-01 -0.62197686317E-01  0.13153692089E+00  0.13898243544E-01 0.  0.
         14    1    1    2    0    0 -0.98640771379E-02 -0.19647467008E-01  0.46437986950E-02  0.22469709476E-01  0.00000000000E+00 0. -1.
     999901    1    3    3    0    0 -0.87025412079E-01  0.81717387908E-01  0.57553887622E-01  0.88992336963E+00  0.88000000000E+00 0. -1.
        -11    1    4    4    0    0  0.79447960832E-01 -0.49359967249E-01 -0.44297233880E-01  0.10349343408E+00  0.51100000000E-03 0. -1.
         11    1    4    4    0    0  0.17441528385E-01 -0.12709953650E-01 -0.17900452437E-01  0.28043486813E-01  0.51100000000E-03 0.  1.
</event>
<event>
 8    1  0.1111182E+005  0.1043930E+01  0.7957747E-01            NaN
         13   -1    0    0    0    0  0.00000000000E+00  0.00000000000E+00  0.74505805969E-08  0.10566000000E+00  0.10566000000E+00 0. -1.
     999900   -1    0    0    0    0 -0.00000000000E+00 -0.00000000000E+00 -0.74505805969E-08  0.93827000000E+00  0.93827000000E+00 0.  1.
     999902    2    1    2    0    0 -0.29167187521E-02 -0.19261957807E-01  0.14656245801E-01  0.10195509966E+01  0.10192594855E+01 0.  0.
     999903    2    3    3    0    0 -0.38045786854E-01 -0.12226119117E+00  0.29285744328E-01  0.13272693526E+00  0.19065774559E-01 0.  0.
         14    1    1    2    0    0  0.29167187521E-02  0.19261957807E-01 -0.14656245801E-01  0.24379003422E-01  0.00000000000E+00 0.  1.
     999901    1    3    3    0    0  0.35129068102E-01  0.10299923336E+00 -0.14629498527E-01  0.88682406131E+00  0.88000000000E+00 0. -1.
        -11    1    4    4    0    0 -0.20779299159E-01 -0.78350377397E-01  0.97062022969E-02  0.81639649655E-01  0.51100000000E-03 0.  1.
         11    1    4    4    0    0 -0.17266487695E-01 -0.43910813775E-01  0.19579542031E-01  0.51087285609E-01  0.51100000000E-03 0. -1.
</event>
<event>
 8    1  0.1111182E+005  0.1043930E+01  0.7957747E-01            NaN
         13   -1    0    0    0    0  0.00000000000E+00  0.00000000000E+00  0.74505805969E-08  0.10566000000E+00  0.10566000000E+00 0. -1.
     999900   -1    0    0    0    0 -0.00000000000E+00 -0.00000000000E+00 -0.74505805969E-08  0.93827000000E+00  0.93827000000E+00 0.  1.
     999902    2    1    2    0    0 -0.15008293304E-02 -0.21965797686E-02 -0.19966206021E-01  0.10237873380E+01  0.10235891688E+01 0.  0.
     999903    2    3    3    0    0 -0.59871382817E-01  0.45360281665E-01  0.10624049773E+00  0.13160074948E+00  0.19737686629E-01 0.  0.
         14    1    1    2    0    0  0.15008293304E-02  0.21965797686E-02  0.19966206021E-01  0.20142662045E-01  0.00000000000E+00 0. -1.
     999901    1    3    3    0    0  0.58370553486E-01 -0.47556861433E-01 -0.12620670375E+00  0.89218658847E+00  0.88000000000E+00 0.  1.
        -11    1    4    4    0    0 -0.39990024407E-01  0.20773738785E-01  0.51967610626E-01  0.68786946075E-01  0.51100000000E-03 0.  1.
         11    1    4    4    0    0 -0.19881358410E-01  0.24586542879E-01  0.54272887101E-01  0.62813803405E-01  0.51100000000E-03 0. -1.
</event>
<event>
 8    1  0.1111182E+005  0.1043930E+01  0.7957747E-01            NaN
         13   -1    0    0    0    0  0.00000000000E+00  0.00000000000E+00  0.74505805969E-08  0.10566000000E+00  0.10566000000E+00 0.  1.
     999900   -1    0    0    0    0 -0.00000000000E+00 -0.00000000000E+00 -0.74505805969E-08  0.93827000000E+00  0.93827000000E+00 0.  1.
     999902    2    1    2    0    0 -0.68958759399E-03 -0.23045713999E-01 -0.11757445746E-02  0.10208440120E+01  0.10205829384E+01 0.  0.
     999903    2    3    3    0    0 -0.21243870257E-01  0.83180245375E-01  0.95324069681E-01  0.12898155228E+00  0.13390568455E-01 0.  0.
         14    1    1    2    0    0  0.68958759399E-03  0.23045713999E-01  0.11757445746E-02  0.23085987959E-01  0.00000000000E+00 0. -1.
     999901    1    3    3    0    0  0.20554282663E-01 -0.10622595937E+00 -0.96499814256E-01  0.89186245976E+00  0.88000000000E+00 0.  1.
        -11    1    4    4    0    0 -0.22407442257E-01  0.70318841052E-01  0.78207305640E-01  0.10753360708E+00  0.51100000000E-03 0.  1.
         11    1    4    4    0    0  0.11635720007E-02  0.12861404323E-01  0.17116764042E-01  0.21447945198E-01  0.51100000000E-03 0. -1.
</event>
<event>
 8    1  0.1111182E+005  0.1043930E+01  0.7957747E-01            NaN
         13   -1    0    0    0    0  0.00000000000E+00  0.00000000000E+00  0.74505805969E-08  0.10566000000E+00  0.10566000000E+00 0. -1.
     999900   -1    0    0    0    0 -0.00000000000E+00 -0.00000000000E+00 -0.74505805969E-08  0.93827000000E+00  0.93827000000E+00 0. -1.
     999902    2    1    2    0    0 -0.30143624118E-02  0.20345578411E-01 -0.12399807128E-01  0.10199136689E+01  0.10196308684E+01 0.  0.
     999903    2    3    3    0    0  0.12490753408E+00  0.16714133765E-01 -0.25574455047E-01  0.13055953791E+00  0.22593933936E-01 0.  0.
         14    1    1    2    0    0  0.30143624118E-02 -0.20345578411E-01  0.12399807128E-01  0.24016331078E-01  0.00000000000E+00 0. -1.
     999901    1    3    3    0    0 -0.12792189650E+00  0.36314446466E-02  0.13174647919E-01  0.88935413101E+00  0.88000000000E+00 0.  1.
        -11    1    4    4    0    0  0.58710098097E-01 -0.35733911377E-03 -0.39085003687E-02  0.58843358214E-01  0.51100000000E-03 0.  1.
         11    1    4    4    0    0  0.66197435988E-01  0.17071472879E-01 -0.21665954678E-01  0.71716179700E-01  0.51100000000E-03 0. -1.
</event>
<event>
 8    1  0.1111182E+005  0.1043930E+01  0.7957747E-01            NaN
         13   -1    0    0    0    0  0.00000000000E+00  0.00000000000E+00  0.74505805969E-08  0.10566000000E+00  0.10566000000E+00 0. -1.
     999900   -1    0    0    0    0 -0.00000000000E+00 -0.00000000000E+00 -0.74505805969E-08  0.93827000000E+00  0.93827000000E+00 0. -1.
     999902    2    1    2    0    0  0.41320289928E-02  0.19861749295E-01  0.13418517724E-01  0.10196067731E+01  0.10193166105E+01 0.  0.
     999903    2    3    3    0    0  0.50319682718E-01  0.92139611873E-01 -0.76211800415E-01  0.13090492057E+00  0.17495175372E-01 0.  0.
         14    1    1    2    0    0 -0.41320289928E-02 -0.19861749295E-01 -0.13418517724E-01  0.24323226894E-01  0.00000000000E+00 0. -1.
     999901    1    3    3    0    0 -0.46187653725E-01 -0.72277862578E-01  0.89630318138E-01  0.88870185254E+00  0.88000000000E+00 0.  1.
        -11    1    4    4    0    0  0.72180165331E-02  0.27147983957E-01 -0.15617891285E-01  0.32144866539E-01  0.51100000000E-03 0.  1.
         11    1    4    4    0    0  0.43101666185E-01  0.64991627916E-01 -0.60593909130E-01  0.98760054028E-01  0.51100000000E-03 0. -1.
</event>
<event>
 8    1  0.1111182E+005  0.1043930E+01  0.7957747E-01            NaN
         13   -1    0    0    0    0  0.00000000000E+00  0.00000000000E+00  0.74505805969E-08  0.10566000000E+00  0.10566000000E+00 0.  1.
     999900   -1    0    0    0    0 -0.00000000000E+00 -0.00000000000E+00 -0.74505805969E-08  0.93827000000E+00  0.93827000000E+00 0.  1.
     999902    2    1    2    0    0 -0.11739301883E-02 -0.16193162802E-01  0.12695154496E-01  0.10233202067E+01  0.10231126437E+01 0.  0.
     999903    2    3    3    0    0  0.92329694361E-02 -0.12607969397E+00 -0.42074697758E-01  0.13473532608E+00  0.20049711880E-01 0.  0.
         14    1    1    2    0    0  0.11739301883E-02  0.16193162802E-01 -0.12695154496E-01  0.20609793335E-01  0.00000000000E+00 0. -1.
     999901    1    3    3    0    0 -0.10406899624E-01  0.10988653117E+00  0.54769852254E-01  0.88858488059E+00  0.88000000000E+00 0. -1.
        -11    1    4    4    0    0  0.14879934121E-01 -0.68920979984E-01 -0.21363149967E-01  0.73676042367E-01  0.51100000000E-03 0. -1.
         11    1    4    4    0    0 -0.56469646851E-02 -0.57158713984E-01 -0.20711547790E-01  0.61059283711E-01  0.51100000000E-03 0.  1.
</event>
<event>
 8    1  0.1111182E+005  0.1043930E+01  0.7957747E-01            NaN
         13   -1    0    0    0    0  0.00000000000E+00  0.00000000000E+00  0.74505805969E-08  0.10566000000E+00  0.10566000000E+00 0.  1.
     999900   -1    0    0    0    0 -0.00000000000E+00 -0.00000000000E+00 -0.74505805969E-08  0.93827000000E+00  0.93827000000E+00 0. -1.
     999902    2    1    2    0    0  0.17921983496E-01  0.14505716766E-01  0.43675482841E-02  0.10204632408E+01  0.10201933821E+01 0.  0.
     999903    2    3    3    0    0 -0.11128764004E+00  0.63632678790E-01 -0.10594132150E-02  0.12965572107E+00  0.19375939086E-01 0.  0.
         14    1    1    2    0    0 -0.17921983496E-01 -0.14505716766E-01 -0.43675482841E-02  0.23466759243E-01  0.00000000000E+00 0. -1.
     999901    1    3    3    0    0  0.12920962354E+00 -0.49126962024E-01  0.54269614991E-02  0.89080751968E+00  0.88000000000E+00 0.  1.
        -11    1    4    4    0    0 -0.18702344979E-01  0.54772244158E-02  0.50862073403E-02  0.20147166578E-01  0.51100000000E-03 0.  1.
         11    1    4    4    0    0 -0.92585295061E-01  0.58155454374E-01 -0.61456205553E-02  0.10950855450E+00  0.51100000000E-03 0. -1.
</event>
<event>
 8    1  0.1111182E+005  0.1043930E+01  0.7957747E-01            NaN
         13   -1    0    0    0    0  0.00000000000E+00  0.00000000000E+00  0.74505805969E-08  0.10566000000E+00  0.10566000000E+00 0.  1.
     999900   -1    0    0    0    0 -0.00000000000E+00 -0.00000000000E+00 -0.74505805969E-08  0.93827000000E+00  0.93827000000E+00 0.  1.
     999902    2    1    2    0    0  0.14803373002E-01  0.99017078724E-03  0.18538723166E-01  0.10201854312E+01  0.10199090692E+01 0.  0.
     999903    2    3    3    0    0  0.12726941046E+00  0.58274312927E-02 -0.26264165434E-01  0.13188407047E+00  0.21728779583E-01 0.  0.
         14    1    1    2    0    0 -0.14803373002E-01 -0.99017078724E-03 -0.18538723166E-01  0.23744568791E-01  0.00000000000E+00 0.  1.
     999901    1    3    3    0    0 -0.11246603746E+00 -0.48372605054E-02  0.44802888600E-01  0.88830136074E+00  0.88000000000E+00 0. -1.
        -11    1    4    4    0    0  0.25698961542E-01 -0.74495159776E-02 -0.68534211833E-02  0.27625394396E-01  0.51100000000E-03 0. -1.
         11    1    4    4    0    0  0.10157044892E+00  0.13276947270E-01 -0.19410744251E-01  0.10425867607E+00  0.51100000000E-03 0.  1.
</event>
<event>
 8    1  0.1111182E+005  0.1043930E+01  0.7957747E-01            NaN
         13   -1    0    0    0    0  0.00000000000E+00  0.00000000000E+00  0.74505805969E-08  0.10566000000E+00  0.10566000000E+00 0. -1.
     999900   -1    0    0    0    0 -0.00000000000E+00 -0.00000000000E+00 -0.74505805969E-08  0.93827000000E+00  0.93827000000E+00 0. -1.
     999902    2    1    2    0    0  0.49281430273E-02  0.22668956441E-01 -0.15210680082E-02  0.10206817350E+01  0.10204169355E+01 0.  0.
     999903    2    3    3    0    0  0.57631584854E-01  0.61953198939E-01 -0.10032145184E+00  0.13271640886E+00  0.19739631474E-01 0.  0.
         14    1    1    2    0    0 -0.49281430273E-02 -0.22668956441E-01  0.15210680082E-02  0.23248265048E-01  0.00000000000E+00 0. -1.
     999901    1    3    3    0    0 -0.52703441827E-01 -0.39284242497E-01  0.98800383833E-01  0.88796532609E+00  0.88000000000E+00 0.  1.
        -11    1    4    4    0    0  0.14481855215E-01  0.28990417161E-01 -0.33484270935E-01  0.46600707491E-01  0.51100000000E-03 0. -1.
         11    1    4    4    0    0  0.43149729639E-01  0.32962781778E-01 -0.66837180907E-01  0.86115701373E-01  0.51100000000E-03 0.  1.
</event>
<event>
 8    1  0.1111182E+005  0.1043930E+01  0.7957747E-01            NaN
         13   -1    0    0    0    0  0.00000000000E+00  0.00000000000E+00  0.74505805969E-08  0.10566000000E+00  0.10566000000E+00 0. -1.
     999900   -1    0    0    0    0 -0.00000000000E+00 -0.00000000000E+00 -0.74505805969E-08  0.93827000000E+00  0.93827000000E+00 0.  1.
     999902    2    1    2    0    0  0.10747708274E-01 -0.96327839331E-02 -0.17799205232E-01  0.10210146020E+01  0.10207574158E+01 0.  0.
     999903    2    3    3    0    0  0.10879279884E+00  0.53442417662E-01 -0.50176468495E-01  0.13273558725E+00  0.20226048689E-01 0.  0.
         14    1    1    2    0    0 -0.10747708274E-01  0.96327839331E-02  0.17799205232E-01  0.22915398018E-01  0.00000000000E+00 0. -1.
     999901    1    3    3    0    0 -0.98045090569E-01 -0.63075201595E-01  0.32377263263E-01  0.88827901473E+00  0.88000000000E+00 0. -1.
        -11    1    4    4    0    0  0.64478624225E-01  0.23141685745E-01 -0.35085113976E-01  0.76969194778E-01  0.51100000000E-03 0.  1.
         11    1    4    4    0    0  0.44314174618E-01  0.30300731918E-01 -0.15091354519E-01  0.55766392469E-01  0.51100000000E-03 0. -1.
</event>
<event>
 8    1  0.1111182E+005  0.1043930E+01  0.7957747E-01            NaN
         13   -1    0    0    0    0  0.00000000000E+00  0.00000000000E+00  0.74505805969E-08  0.10566000000E+00  0.10566000000E+00 0. -1.
     999900   -1    0    0    0    0 -0.00000000000E+00 -0.00000000000E+00 -0.74505805969E-08  0.93827000000E+00  0.93827000000E+00 0. -1.
     999902    2    1    2    0    0 -0.16629088194E-01  0.16277949834E-01 -0.19686096397E-02  0.10205767636E+01  0.10203095397E+01 0.  0.
     999903    2    3    3    0    0 -0.98815268000E-01 -0.80111400623E-01  0.25004945802E-01  0.13109767578E+00  0.19469452496E-01 0.  0.
         14    1    1    2    0    0  0.16629088194E-01 -0.16277949834E-01  0.19686096397E-02  0.23353236369E-01  0.00000000000E+00 0.  1.
     999901    1    3    3    0    0  0.82186179806E-01  0.96389350457E-01 -0.26973555441E-01  0.88947908785E+00  0.88000000000E+00 0. -1.
        -11    1    4    4    0    0 -0.72759696057E-01 -0.62744293683E-01  0.26746853762E-01  0.99732016260E-01  0.51100000000E-03 0. -1.
         11    1    4    4    0    0 -0.26055571943E-01 -0.17367106939E-01 -0.17419079606E-02  0.31365659519E-01  0.51100000000E-03 0.  1.
</event>
<event>
 8    1  0.1111182E+005  0.1043930E+01  0.7957747E-01            NaN
         13   -1    0    0    0    0  0.00000000000E+00  0.00000000000E+00  0.74505805969E-08  0.10566000000E+00  0.10566000000E+00 0. -1.
     999900   -1    0    0    0    0 -0.00000000000E+00 -0.00000000000E+00 -0.74505805969E-08  0.93827000000E+00  0.93827000000E+00 0.  1.
     999902    2    1    2    0    0 -0.19145362946E-01  0.21162193695E-02 -0.18346211811E-01  0.10173291204E+01  0.10169812842E+01 0.  0.
     999903    2    3    3    0    0 -0.83448758469E-01 -0.83936461776E-01  0.45779733756E-01  0.12848035516E+00  0.20059729143E-01 0.  0.
         14    1    1    2    0    0  0.19145362946E-01 -0.21162193695E-02  0.18346211811E-01  0.26600879582E-01  0.00000000000E+00 0. -1.
     999901    1    3    3    0    0  0.64303395523E-01  0.86052681146E-01 -0.64125945567E-01  0.88884876526E+00  0.88000000000E+00 0. -1.
        -11    1    4    4    0    0 -0.14724026129E-01 -0.59727124668E-02  0.87707043725E-02  0.18156448327E-01  0.51100000000E-03 0.  1.
         11    1    4    4    0    0 -0.68724732340E-01 -0.77963749310E-01  0.37009029383E-01  0.11032390683E+00  0.51100000000E-03 0. -1.
</event>
<event>
 7    1  0.1111182E+005  0.1043930E+01  0.7957747E-01            NaN
         13   -1    0    0    0    0  0.00000000000E+00  0.00000000000E+00  0.74505805969E-08  0.10566000000E+00  0.10566000000E+00 0.  1.
     999900   -1    0    0    0    0 -0.00000000000E+00 -0.00000000000E+00 -0.74505805969E-08  0.93827000000E+00  0.93827000000E+00 0. -1.
     999903    2    1    2    0    0 -0.33676306942E-01 -0.91824196366E-01 -0.16912063463E-01  0.10091669729E+00  0.18231434779E-01 0.  0.
         14    1    1    2    0    0 -0.23795502473E-01 -0.44541787286E-01  0.11937604953E-03  0.50499613892E-01  0.00000000000E+00 0.  1.
     999901    1    1    2    0    0  0.57471809415E-01  0.13636598365E+00  0.16792687413E-01  0.89251368882E+00  0.88000000000E+00 0.  1.
        -11    1    3    3    0    0 -0.15700736128E-01 -0.66405845375E-01 -0.13851280319E-01  0.69630226930E-01  0.51100000000E-03 0. -1.
         11    1    3    3    0    0 -0.17975570813E-01 -0.25418350991E-01 -0.30607831439E-02  0.31286470361E-01  0.51100000000E-03 0.  1.
</event>
<event>
 8    1  0.1111182E+005  0.1043930E+01  0.7957747E-01            NaN
         13   -1    0    0    0    0  0.00000000000E+00  0.00000000000E+00  0.74505805969E-08  0.10566000000E+00  0.10566000000E+00 0. -1.
     999900   -1    0    0    0    0 -0.00000000000E+00 -0.00000000000E+00 -0.74505805969E-08  0.93827000000E+00  0.93827000000E+00 0. -1.
     999902    2    1    2    0    0 -0.18182886432E-01 -0.63483548249E-02  0.13028774280E-01  0.10206777329E+01  0.10204128412E+01 0.  0.
     999903    2    3    3    0    0  0.76735400557E-01 -0.66681077737E-01 -0.77360977724E-01  0.12892674411E+00  0.17398179413E-01 0.  0.
         14    1    1    2    0    0  0.18182886432E-01  0.63483548249E-02 -0.13028774280E-01  0.23252267141E-01  0.00000000000E+00 0.  1.
     999901    1    3    3    0    0 -0.94918286988E-01  0.60332722912E-01  0.90389752003E-01  0.89175098874E+00  0.88000000000E+00 0. -1.
        -11    1    4    4    0    0  0.30786899845E-01 -0.22268185942E-01 -0.19466086922E-01  0.42695374085E-01  0.51100000000E-03 0.  1.
         11    1    4    4    0    0  0.45948500711E-01 -0.44412891795E-01 -0.57894890802E-01  0.86231370030E-01  0.51100000000E-03 0. -1.
</event>
<event>
 8    1  0.1111182E+005  0.1043930E+01  0.7957747E-01            NaN
         13   -1    0    0    0    0  0.00000000000E+00  0.00000000000E+00  0.74505805969E-08  0.10566000000E+00  0.10566000000E+00 0.  1.
     999900   -1    0    0    0    0 -0.00000000000E+00 -0.00000000000E+00 -0.74505805969E-08  0.93827000000E+00  0.93827000000E+00 0.  1.
     999902    2    1    2    0    0  0.16228420270E-01 -0.17982419614E-01 -0.39325491352E-03  0.10197043176E+01  0.10194165055E+01 0.  0.
     999903    2    3    3    0    0 -0.62262680121E-01  0.71969454241E-01  0.82727100077E-01  0.12776195068E+00  0.20569377094E-01 0.  0.
         14    1    1    2    0    0 -0.16228420270E-01  0.17982419614E-01  0.39325491352E-03  0.24225682427E-01  0.00000000000E+00 0. -1.
     999901    1    3    3    0    0  0.78491100390E-01 -0.89951873855E-01 -0.83120354990E-01  0.89194236690E+00  0.88000000000E+00 0.  1.
        -11    1    4    4    0    0 -0.28679073639E-01  0.42030008702E-01  0.54913660628E-01  0.74865092940E-01  0.51100000000E-03 0.  1.
         11    1    4    4    0    0 -0.33583606481E-01  0.29939445539E-01  0.27813439449E-01  0.52896857737E-01  0.51100000000E-03 0. -1.
</event>
<event>
 8    1  0.1111182E+005  0.1043930E+01  0.7957747E-01            NaN
         13   -1    0    0    0    0  0.00000000000E+00  0.00000000000E+00  0.74505805969E-08  0.10566000000E+00  0.10566000000E+00 0. -1.
     999900   -1    0    0    0    0 -0.00000000000E+00 -0.00000000000E+00 -0.74505805969E-08  0.93827000000E+00  0.93827000000E+00 0.  1.
     999902    2    1    2    0    0  0.20044338056E-01 -0.23807234938E-02  0.10155241260E-01  0.10213341540E+01  0.10210841698E+01 0.  0.
     999903    2    3    3    0    0  0.45761609146E-01 -0.10871911432E+00  0.58975478132E-01  0.13321668037E+00  0.18830990908E-01 0.  0.
         14    1    1    2    0    0 -0.20044338056E-01  0.23807234938E-02 -0.10155241260E-01  0.22595846024E-01  0.00000000000E+00 0.  1.
     999901    1    3    3    0    0 -0.25717271090E-01  0.10633839082E+00 -0.48820236871E-01  0.88811747361E+00  0.88000000000E+00 0.  1.
        -11    1    4    4    0    0  0.51658166971E-03 -0.12412372818E-01  0.22547733603E-02  0.12636414820E-01  0.51100000000E-03 0. -1.
         11    1    4    4    0    0  0.45245027476E-01 -0.96306741499E-01  0.56720704771E-01  0.12058026555E+00  0.51100000000E-03 0.  1.
</event>
<event>
 8    1  0.1111182E+005  0.1043930E+01  0.7957747E-01            NaN
         13   -1    0    0    0    0  0.00000000000E+00  0.00000000000E+00  0.74505805969E-08  0.10566000000E+00  0.10566000000E+00 0. -1.
     999900   -1    0    0    0    0 -0.00000000000E+00 -0.00000000000E+00 -0.74505805969E-08  0.93827000000E+00  0.93827000000E+00 0. -1.
     999902    2    1    2    0    0  0.18197235829E-01 -0.11205705669E-01 -0.10736915564E-01  0.10200137171E+01  0.10197332958E+01 0.  0.
     999903    2    3    3    0    0  0.69786820859E-01  0.24523105908E-01  0.10515770747E+00  0.13019935619E+00  0.20546187519E-01 0.  0.
         14    1    1    2    0    0 -0.18197235829E-01  0.11205705669E-01  0.10736915564E-01  0.23916282888E-01  0.00000000000E+00 0. -1.
     999901    1    3    3    0    0 -0.51589585030E-01 -0.35728811578E-01 -0.11589462304E+00  0.88981436093E+00  0.88000000000E+00 0. -1.
        -11    1    4    4    0    0  0.32534956627E-01  0.21910883544E-01  0.58503881470E-01  0.70438451775E-01  0.51100000000E-03 0.  1.
         11    1    4    4    0    0  0.37251864232E-01  0.26122223644E-02  0.46653826002E-01  0.59760904412E-01  0.51100000000E-03 0. -1.
</event>
<event>
 8    1  0.1111182E+005  0.1043930E+01  0.7957747E-01            NaN
         13   -1    0    0    0    0  0.00000000000E+00  0.00000000000E+00  0.74505805969E-08  0.10566000000E+00  0.10566000000E+00 0. -1.
     999900   -1    0    0    0    0 -0.00000000000E+00 -0.00000000000E+00 -0.74505805969E-08  0.93827000000E+00  0.93827000000E+00 0. -1.
     999902    2    1    2    0    0 -0.15813945832E-01 -0.77509684508E-02 -0.43820410673E-02  0.10257817031E+01  0.10256211493E+01 0.  0.
     999903    2    3    3    0    0 -0.10535860555E+00  0.70856647829E-01  0.44199230466E-01  0.13642376432E+00  0.23168323026E-01 0.  0.
         14    1    1    2    0    0  0.15813945832E-01  0.77509684508E-02  0.43820410673E-02  0.18148296852E-01  0.00000000000E+00 0.  1.
     999901    1    3    3    0    0  0.89544659716E-01 -0.78607616280E-01 -0.48581271533E-01  0.88935793883E+00  0.88000000000E+00 0. -1.
        -11    1    4    4    0    0 -0.78929180258E-01  0.41419845749E-01  0.25844511848E-01  0.92809584805E-01  0.51100000000E-03 0.  1.
         11    1    4    4    0    0 -0.26429425290E-01  0.29436802080E-01  0.18354718618E-01  0.43614179511E-01  0.51100000000E-03 0. -1.
</event>
<event>
 8    1  0.1111182E+005  0.1043930E+01  0.7957747E-01            NaN
         13   -1    0    0    0    0  0.00000000000E+00  0.00000000000E+00  0.74505805969E-08  0.10566000000E+00  0.10566000000E+00 0.  1.
     999900   -1    0    0    0    0 -0.00000000000E+00 -0.00000000000E+00 -0.74505805969E-08  0.93827000000E+00  0.93827000000E+00 0. -1.
     999902    2    1    2    0    0 -0.18693056897E-01 -0.11295274178E-01  0.73509891459E-02  0.10208854641E+01  0.10206253378E+01 0.  0.
     999903    2    3    3    0    0  0.70025469447E-01  0.18425539876E-01  0.10651518073E+00  0.13038681691E+00  0.20302004997E-01 0.  0.
         14    1    1    2    0    0  0.18693056897E-01  0.11295274178E-01 -0.73509891459E-02  0.23044535932E-01  0.00000000000E+00 0.  1.
     999901    1    3    3    0    0 -0.88718526343E-01 -0.29720814054E-01 -0.99164191581E-01  0.89049864716E+00  0.88000000000E+00 0. -1.
        -11    1    4    4    0    0  0.46074172688E-01  0.16134169856E-01  0.55091357292E-01  0.73610186762E-01  0.51100000000E-03 0. -1.
         11    1    4    4    0    0  0.23951296759E-01  0.22913700195E-02  0.51423823434E-01  0.56776630145E-01  0.51100000000E-03 0.  1.
</event>
<event>
 8    1  0.1111182E+005  0.1043930E+01  0.7957747E-01            NaN
         13   -1    0    0    0    0  0.00000000000E+00  0.00000000000E+00  0.74505805969E-08  0.10566000000E+00  0.10566000000E+00 0. -1.
     999900   -1    0    0    0    0 -0.00000000000E+00 -0.00000000000E+00 -0.74505805969E-08  0.93827000000E+00  0.93827000000E+00 0. -1.
     999902    2    1    2    0    0 -0.91962739730E-03  0.21694668058E-02 -0.24056163439E-01  0.10197587092E+01  0.10194722035E+01 0.  0.
     999903    2    3    3    0    0  0.91756082916E-01  0.34559190107E-01  0.79928359698E-01  0.12821473241E+00  0.20903553508E-01 0.  0.
         14    1    1    2    0    0  0.91962739730E-03 -0.21694668058E-02  0.24056163439E-01  0.24171290826E-01  0.00000000000E+00 0. -1.
     999901    1    3    3    0    0 -0.92675710313E-01 -0.32389723301E-01 -0.10398452314E+00  0.89154397677E+00  0.88000000000E+00 0. -1.
        -11    1    4    4    0    0  0.62591292703E-01  0.33657029240E-01  0.56501198001E-01  0.90791585712E-01  0.51100000000E-03 0.  1.
         11    1    4    4    0    0  0.29164790213E-01  0.90216086678E-03  0.23427161697E-01  0.37423146695E-01  0.51100000000E-03 0. -1.
</event>
<event>
 8    1  0.1111182E+005  0.1043930E+01  0.7957747E-01            NaN
         13   -1    0    0    0    0  0.00000000000E+00  0.00000000000E+00  0.74505805969E-08  0.10566000000E+00  0.10566000000E+00 0. -1.
     999900   -1    0    0    0    0 -0.00000000000E+00 -0.00000000000E+00 -0.74505805969E-08  0.93827000000E+00  0.93827000000E+00 0. -1.
     999902    2    1    2    0    0  0.11642781325E-01 -0.20554080548E-01 -0.50465590729E-02  0.10197744138E+01  0.10194882848E+01 0.  0.
     999903    2    3    3    0    0  0.82107932161E-02  0.12370080621E+00  0.21611940644E-01  0.12762424347E+00  0.21250057864E-01 0.  0.
         14    1    1    2    0    0 -0.11642781325E-01  0.20554080548E-01  0.50465590729E-02  0.24155586158E-01  0.00000000000E+00 0. -1.
     999901    1    3    3    0    0  0.34319881087E-02 -0.14425488676E+00 -0.26658499717E-01  0.89215017038E+00  0.88000000000E+00 0. -1.
        -11    1    4    4    0    0  0.73206963251E-02  0.67762389734E-01  0.22170109516E-01  0.71673627884E-01  0.51100000000E-03 0. -1.
         11    1    4    4    0    0  0.89009689098E-03  0.55938416477E-01 -0.55816887152E-03  0.55950615581E-01  0.51100000000E-03 0.  1.
</event>
<event>
 8    1  0.1111182E+005  0.1043930E+01  0.7957747E-01            NaN
         13   -1    0    0    0    0  0.00000000000E+00  0.00000000000E+00  0.74505805969E-08  0.10566000000E+00  0.10566000000E+00 0.  1.
     999900   -1    0    0    0    0 -0.00000000000E+00 -0.00000000000E+00 -0.74505805969E-08  0.93827000000E+00  0.93827000000E+00 0.  1.
     999902    2    1    2    0    0 -0.13054512430E-01  0.16065132654E-01  0.13637662729E-01  0.10191409979E+01  0.10188394765E+01 0.  0.
     999903    2    3    3    0    0  0.36526339679E-01  0.11290035818E+00  0.53397061674E-01  0.13155092830E+00  0.19332257312E-01 0.  0.
         14    1    1    2    0    0  0.13054512430E-01 -0.16065132654E-01 -0.13637662729E-01  0.24789002132E-01  0.00000000000E+00 0. -1.
     999901    1    3    3    0    0 -0.49580852110E-01 -0.96835225525E-01 -0.39759398946E-01  0.88759006957E+00  0.88000000000E+00 0.  1.
        -11    1    4    4    0    0  0.31756029637E-01  0.68237007248E-01  0.31793399009E-01  0.81705666377E-01  0.51100000000E-03 0.  1.
         11    1    4    4    0    0  0.47703100427E-02  0.44663350931E-01  0.21603662665E-01  0.49845261919E-01  0.51100000000E-03 0. -1.
</event>
<event>
 8    1  0.1111182E+005  0.1043930E+01  0.7957747E-01            NaN
         13   -1    0    0    0    0  0.00000000000E+00  0.00000000000E+00  0.74505805969E-08  0.10566000000E+00  0.10566000000E+00 0.  1.
     999900   -1    0    0    0    0 -0.00000000000E+00 -0.00000000000E+00 -0.74505805969E-08  0.93827000000E+00  0.93827000000E+00 0. -1.
     999902    2    1    2    0    0 -0.32435830201E-02  0.22878456472E-01 -0.32389397704E-02  0.10205968619E+01  0.10203301031E+01 0.  0.
     999903    2    3    3    0    0 -0.29733749979E-01  0.10065148652E+00 -0.79840567309E-01  0.13345640941E+00  0.20525091958E-01 0.  0.
         14    1    1    2    0    0  0.32435830201E-02 -0.22878456472E-01  0.32389397704E-02  0.23333138070E-01  0.00000000000E+00 0. -1.
     999901    1    3    3    0    0  0.26490166959E-01 -0.77773030045E-01  0.76601627539E-01  0.88714045252E+00  0.88000000000E+00 0.  1.
        -11    1    4    4    0    0 -0.16855111920E-01  0.82956322944E-01 -0.58621223664E-01  0.10296871029E+00  0.51100000000E-03 0.  1.
         11    1    4    4    0    0 -0.12878638059E-01  0.17695163572E-01 -0.21219343645E-01  0.30487699123E-01  0.51100000000E-03 0. -1.
</event>
<event>
 8    1  0.1111182E+005  0.1043930E+01  0.7957747E-01            NaN
         13   -1    0    0    0    0  0.00000000000E+00  0.00000000000E+00  0.74505805969E-08  0.10566000000E+00  0.10566000000E+00 0. -1.
     999900   -1    0    0    0    0 -0.00000000000E+00 -0.00000000000E+00 -0.74505805969E-08  0.93827000000E+00  0.93827000000E+00 0. -1.
     999902    2    1    2    0    0 -0.18181384528E-01  0.10695869356E-01 -0.10862628436E-01  0.10202031995E+01  0.10199272559E+01 0.  0.
     999903    2    3    3    0    0 -0.11821800362E+00 -0.51195626129E-01 -0.10692704078E-01  0.13237556352E+00  0.28503813430E-01 0.  0.
         14    1    1    2    0    0  0.18181384528E-01 -0.10695869356E-01  0.10862628436E-01  0.23726800483E-01  0.00000000000E+00 0.  1.
     999901    1    3    3    0    0  0.10003661910E+00  0.61891495485E-01 -0.16992435830E-03  0.88782763600E+00  0.88000000000E+00 0. -1.
        -11    1    4    4    0    0 -0.31219069423E-01 -0.51137873825E-02 -0.12208129856E-01  0.33912839348E-01  0.51100000000E-03 0.  1.
         11    1    4    4    0    0 -0.86998934201E-01 -0.46081838746E-01  0.15154257775E-02  0.98462724168E-01  0.51100000000E-03 0. -1.
</event>
<event>
 8    1  0.1111182E+005  0.1043930E+01  0.7957747E-01            NaN
         13   -1    0    0    0    0  0.00000000000E+00  0.00000000000E+00  0.74505805969E-08  0.10566000000E+00  0.10566000000E+00 0.  1.
     999900   -1    0    0    0    0 -0.00000000000E+00 -0.00000000000E+00 -0.74505805969E-08  0.93827000000E+00  0.93827000000E+00 0. -1.
     999902    2    1    2    0    0  0.23260331149E-01 -0.12104736299E-01  0.10863787073E-01  0.10155470911E+01  0.10151503853E+01 0.  0.
     999903    2    3    3    0    0  0.11769607528E+00  0.13002277177E-02 -0.49086986756E-01  0.12836509283E+00  0.14629014386E-01 0.  0.
         14    1    1    2    0    0 -0.23260331149E-01  0.12104736299E-01 -0.10863787073E-01  0.28382908865E-01  0.00000000000E+00 0.  1.
     999901    1    3    3    0    0 -0.94435744126E-01 -0.13404964017E-01  0.59950773829E-01  0.88718199830E+00  0.88000000000E+00 0.  1.
        -11    1    4    4    0    0  0.32489404575E-01  0.87203536376E-03 -0.20767884654E-01  0.38573151405E-01  0.51100000000E-03 0.  1.
         11    1    4    4    0    0  0.85206670700E-01  0.42819235395E-03 -0.28319102102E-01  0.89791941428E-01  0.51100000000E-03 0. -1.
</event>
<event>
 8    1  0.1111182E+005  0.1043930E+01  0.7957747E-01            NaN
         13   -1    0    0    0    0  0.00000000000E+00  0.00000000000E+00  0.74505805969E-08  0.10566000000E+00  0.10566000000E+00 0.  1.
     999900   -1    0    0    0    0 -0.00000000000E+00 -0.00000000000E+00 -0.74505805969E-08  0.93827000000E+00  0.93827000000E+00 0. -1.
     999902    2    1    2    0    0  0.25116589892E-02  0.17298047451E-01 -0.18789945655E-01  0.10182669344E+01  0.10179434939E+01 0.  0.
     999903    2    3    3    0    0  0.10969341698E+00 -0.52958569542E-01  0.31792979840E-01  0.12754669001E+00  0.20496554549E-01 0.  0.
         14    1    1    2    0    0 -0.25116589892E-02 -0.17298047451E-01  0.18789945655E-01  0.25663065565E-01  0.00000000000E+00 0.  1.
     999901    1    3    3    0    0 -0.10718175799E+00  0.70256616993E-01 -0.50582925495E-01  0.89072024443E+00  0.88000000000E+00 0. -1.
        -11    1    4    4    0    0  0.20314878050E-01 -0.23995559415E-02  0.90236479033E-02  0.22363798456E-01  0.51100000000E-03 0.  1.
         11    1    4    4    0    0  0.89378538931E-01 -0.50559013600E-01  0.22769331936E-01  0.10518289155E+00  0.51100000000E-03 0. -1.
</event>
<event>
 8    1  0.1111182E+005  0.1043930E+01  0.7957747E-01            NaN
         13   -1    0    0    0    0  0.00000000000E+00  0.00000000000E+00  0.74505805969E-08  0.10566000000E+00  0.10566000000E+00 0. -1.
     999900   -1    0    0    0    0 -0.00000000000E+00 -0.00000000000E+00 -0.74505805969E-08  0.93827000000E+00  0.93827000000E+00 0. -1.
     999902    2    1    2    0    0  0.48456388215E-03  0.20646964223E-01  0.12123486850E-01  0.10199819131E+01  0.10197007366E+01 0.  0.
     999903    2    3    3    0    0 -0.35189900527E-01  0.12422540982E+00  0.24415840091E-01  0.13310409525E+00  0.21219928881E-01 0.  0.
         14    1    1    2    0    0 -0.48456388215E-03 -0.20646964223E-01 -0.12123486850E-01  0.23948086921E-01  0.00000000000E+00 0.  1.
     999901    1    3    3    0    0  0.35674464409E-01 -0.10357844560E+00 -0.12292353241E-01  0.88687781783E+00  0.88000000000E+00 0.  1.
        -11    1    4    4    0    0 -0.33839480548E-01  0.89000372295E-01  0.13322566632E-01  0.96145351500E-01  0.51100000000E-03 0. -1.
         11    1    4    4    0    0 -0.13504199790E-02  0.35225037525E-01  0.11093273459E-01  0.36958743753E-01  0.51100000000E-03 0.  1.
</event>
<event>
 8    1  0.1111182E+005  0.1043930E+01  0.7957747E-01            NaN
         13   -1    0    0    0    0  0.00000000000E+00  0.00000000000E+00  0.74505805969E-08  0.10566000000E+00  0.10566000000E+00 0.  1.
     999900   -1    0    0    0    0 -0.00000000000E+00 -0.00000000000E+00 -0.74505805969E-08  0.93827000000E+00  0.93827000000E+00 0. -1.
     999902    2    1    2    0    0 -0.48789336963E-02  0.50240162584E-02  0.21920313577E-01  0.10209181578E+01  0.10206587775E+01 0.  0.
     999903    2    3    3    0    0 -0.62645042981E-02  0.12703819423E+00  0.30953069663E-01  0.13245264351E+00  0.20190677149E-01 0.  0.
         14    1    1    2    0    0  0.48789336963E-02 -0.50240162584E-02 -0.21920313577E-01  0.23011842184E-01  0.00000000000E+00 0. -1.
     999901    1    3    3    0    0  0.13855706018E-02 -0.12201417797E+00 -0.90327560853E-02  0.88846551431E+00  0.88000000000E+00 0.  1.
        -11    1    4    4    0    0 -0.11271227407E-01  0.38975526363E-01  0.93327849581E-02  0.41635252114E-01  0.51100000000E-03 0. -1.
         11    1    4    4    0    0  0.50067231086E-02  0.88062667866E-01  0.21620284704E-01  0.90817391395E-01  0.51100000000E-03 0.  1.
</event>
<event>
 8    1  0.1111182E+005  0.1043930E+01  0.7957747E-01            NaN
         13   -1    0    0    0    0  0.00000000000E+00  0.00000000000E+00  0.74505805969E-08  0.10566000000E+00  0.10566000000E+00 0. -1.
     999900   -1    0    0    0    0 -0.00000000000E+00 -0.00000000000E+00 -0.74505805969E-08  0.93827000000E+00  0.93827000000E+00 0.  1.
     999902    2    1    2    0    0  0.71047097202E-02  0.15649777199E-01 -0.19063979390E-01  0.10182623601E+01  0.10179388028E+01 0.  0.
     999903    2    3    3    0    0 -0.11863695396E+00  0.32481331426E-01  0.28645242090E-01  0.12788578978E+00  0.20111230631E-01 0.  0.
         14    1    1    2    0    0 -0.71047097202E-02 -0.15649777199E-01  0.19063979390E-01  0.25667639876E-01  0.00000000000E+00 0. -1.
     999901    1    3    3    0    0  0.12574166368E+00 -0.16831554226E-01 -0.47709221480E-01  0.89037657034E+00  0.88000000000E+00 0.  1.
        -11    1    4    4    0    0 -0.41769244767E-01  0.21517061636E-01  0.10623402221E-01  0.48174386821E-01  0.51100000000E-03 0. -1.
         11    1    4    4    0    0 -0.76867709193E-01  0.10964269790E-01  0.18021839869E-01  0.79711402960E-01  0.51100000000E-03 0.  1.
</event>
<event>
 7    1  0.1111182E+005  0.1043930E+01  0.7957747E-01            NaN
         13   -1    0    0    0    0  0.00000000000E+00  0.00000000000E+00  0.74505805969E-08  0.10566000000E+00  0.10566000000E+00 0. -1.
     999900   -1    0    0    0    0 -0.00000000000E+00 -0.00000000000E+00 -0.74505805969E-08  0.93827000000E+00  0.93827000000E+00 0. -1.
     999903    2    1    2    0    0  0.55313679438E-01  0.50105935722E-01 -0.57180991858E-01  0.96685901535E-01  0.22545283280E-01 0.  0.
         14    1    1    2    0    0  0.20418410879E-01 -0.14885426248E-02  0.59212748124E-01  0.62652029515E-01  0.00000000000E+00 0. -1.
     999901    1    1    2    0    0 -0.75732090317E-01 -0.48617393097E-01 -0.20317562658E-02  0.88459206895E+00  0.88000000000E+00 0. -1.
        -11    1    3    3    0    0  0.31225768178E-01  0.16315038923E-01 -0.34851670096E-01  0.49559349500E-01  0.51100000000E-03 0.  1.
         11    1    3    3    0    0  0.24087911260E-01  0.33790896799E-01 -0.22329321762E-01  0.47126552035E-01  0.51100000000E-03 0. -1.
</event>
<event>
 8    1  0.1111182E+005  0.1043930E+01  0.7957747E-01            NaN
         13   -1    0    0    0    0  0.00000000000E+00  0.00000000000E+00  0.74505805969E-08  0.10566000000E+00  0.10566000000E+00 0.  1.
     999900   -1    0    0    0    0 -0.00000000000E+00 -0.00000000000E+00 -0.74505805969E-08  0.93827000000E+00  0.93827000000E+00 0. -1.
     999902    2    1    2    0    0 -0.13507987092E-01 -0.52557656021E-02  0.18979080128E-01  0.10200491652E+01  0.10197695844E+01 0.  0.
     999903    2    3    3    0    0  0.36501026797E-01 -0.60626280075E-01 -0.10508292807E+00  0.12822060702E+00  0.19754277989E-01 0.  0.
         14    1    1    2    0    0  0.13507987092E-01  0.52557656021E-02 -0.18979080128E-01  0.23880834781E-01  0.00000000000E+00 0. -1.
     999901    1    3    3    0    0 -0.50009013889E-01  0.55370514473E-01  0.12406200820E+00  0.89182855820E+00  0.88000000000E+00 0.  1.
        -11    1    4    4    0    0  0.28630342892E-01 -0.57843034422E-01 -0.97521705344E-01  0.11694553134E+00  0.51100000000E-03 0.  1.
         11    1    4    4    0    0  0.78706839047E-02 -0.27832456533E-02 -0.75612227289E-02  0.11275075683E-01  0.51100000000E-03 0. -1.
</event>
<event>
 8    1  0.1111182E+005  0.1043930E+01  0.7957747E-01            NaN
         13   -1    0    0    0    0  0.00000000000E+00  0.00000000000E+00  0.74505805969E-08  0.10566000000E+00  0.10566000000E+00 0. -1.
     999900   -1    0    0    0    0 -0.00000000000E+00 -0.00000000000E+00 -0.74505805969E-08  0.93827000000E+00  0.93827000000E+00 0.  1.
     999902    2    1    2    0    0 -0.15404335183E-02 -0.20667818899E-01 -0.12299210374E-01  0.10198301608E+01  0.10195453666E+01 0.  0.
     999903    2    3    3    0    0  0.29968733021E-01  0.10511844897E-01  0.12281827962E+00  0.12841458145E+00  0.19933666976E-01 0.  0.
         14    1    1    2    0    0  0.15404335183E-02  0.20667818899E-01  0.12299210374E-01  0.24099839196E-01  0.00000000000E+00 0. -1.
     999901    1    3    3    0    0 -0.31509166539E-01 -0.31179663796E-01 -0.13511748999E+00  0.89141557935E+00  0.88000000000E+00 0.  1.
        -11    1    4    4    0    0  0.15411533705E-02 -0.42600297429E-02  0.79815761986E-02  0.91918271707E-02  0.51100000000E-03 0.  1.
         11    1    4    4    0    0  0.28427579650E-01  0.14771874640E-01  0.11483670342E+00  0.11922275428E+00  0.51100000000E-03 0. -1.
</event>
<event>
 8    1  0.1111182E+005  0.1043930E+01  0.7957747E-01            NaN
         13   -1    0    0    0    0  0.00000000000E+00  0.00000000000E+00  0.74505805969E-08  0.10566000000E+00  0.10566000000E+00 0.  1.
     999900   -1    0    0    0    0 -0.00000000000E+00 -0.00000000000E+00 -0.74505805969E-08  0.93827000000E+00  0.93827000000E+00 0.  1.
     999902    2    1    2    0    0 -0.96253322319E-02 -0.17792201965E-01 -0.12311080232E-01  0.10202493715E+01  0.10199745133E+01 0.  0.
     999903    2    3    3    0    0  0.84163771579E-01  0.63447099140E-01 -0.72559691000E-01  0.12950467452E+00  0.19936828452E-01 0.  0.
         14    1    1    2    0    0  0.96253322319E-02  0.17792201965E-01  0.12311080232E-01  0.23680628535E-01  0.00000000000E+00 0.  1.
     999901    1    3    3    0    0 -0.93789103811E-01 -0.81239301105E-01  0.60248610768E-01  0.89074469695E+00  0.88000000000E+00 0. -1.
        -11    1    4    4    0    0  0.49777782666E-01  0.40649200192E-01 -0.55280238149E-01  0.84772347934E-01  0.51100000000E-03 0.  1.
         11    1    4    4    0    0  0.34385988912E-01  0.22797898948E-01 -0.17279452852E-01  0.44732326585E-01  0.51100000000E-03 0. -1.
</event>
<event>
 8    1  0.1111182E+005  0.1043930E+01  0.7957747E-01            NaN
         13   -1    0    0    0    0  0.00000000000E+00  0.00000000000E+00  0.74505805969E-08  0.10566000000E+00  0.10566000000E+00 0.  1.
     999900   -1    0    0    0    0 -0.00000000000E+00 -0.00000000000E+00 -0.74505805969E-08  0.93827000000E+00  0.93827000000E+00 0. -1.
     999902    2    1    2    0    0  0.19840915238E-01  0.10174129028E-01  0.28303247848E-02  0.10214536667E+01  0.10212063492E+01 0.  0.
     999903    2    3    3    0    0  0.15021270918E-01  0.48686038943E-01 -0.11995686491E+00  0.13208136554E+00  0.21444549781E-01 0.  0.
         14    1    1    2    0    0 -0.19840915238E-01 -0.10174129028E-01 -0.28303247848E-02  0.22476333272E-01  0.00000000000E+00 0.  1.
     999901    1    3    3    0    0  0.48196443196E-02 -0.38511909915E-01  0.12278718969E+00  0.88937230119E+00  0.88000000000E+00 0.  1.
        -11    1    4    4    0    0  0.18744872936E-02  0.13070989099E-01 -0.57422945481E-01  0.58923851260E-01  0.51100000000E-03 0.  1.
         11    1    4    4    0    0  0.13146783625E-01  0.35615049844E-01 -0.62533919427E-01  0.73157514275E-01  0.51100000000E-03 0. -1.
</event>
<event>
 8    1  0.1111182E+005  0.1043930E+01  0.7957747E-01            NaN
         13   -1    0    0    0    0  0.00000000000E+00  0.00000000000E+00  0.74505805969E-08  0.10566000000E+00  0.10566000000E+00 0. -1.
     999900   -1    0    0    0    0 -0.00000000000E+00 -0.00000000000E+00 -0.74505805969E-08  0.93827000000E+00  0.93827000000E+00 0. -1.
     999902    2    1    2    0    0  0.59931612990E-02  0.80156777126E-02  0.21810032673E-01  0.10199331961E+01  0.10196508608E+01 0.  0.
     999903    2    3    3    0    0  0.61965369175E-01 -0.99827558920E-01  0.54294810605E-01  0.13099095247E+00  0.20135905068E-01 0.  0.
         14    1    1    2    0    0 -0.59931612990E-02 -0.80156777126E-02 -0.21810032673E-01  0.23996803886E-01  0.00000000000E+00 0.  1.
     999901    1    3    3    0    0 -0.55972207876E-01  0.10784323663E+00 -0.32484777932E-01  0.88894224365E+00  0.88000000000E+00 0.  1.
        -11    1    4    4    0    0  0.43249806139E-01 -0.53688050544E-01  0.37236008472E-01  0.78356454426E-01  0.51100000000E-03 0.  1.
         11    1    4    4    0    0  0.18715563036E-01 -0.46139508376E-01  0.17058802133E-01  0.52634498042E-01  0.51100000000E-03 0. -1.
</event>
<event>
 8    1  0.1111182E+005  0.1043930E+01  0.7957747E-01            NaN
         13   -1    0    0    0    0  0.00000000000E+00  0.00000000000E+00  0.74505805969E-08  0.10566000000E+00  0.10566000000E+00 0.  1.
     999900   -1    0    0    0    0 -0.00000000000E+00 -0.00000000000E+00 -0.74505805969E-08  0.93827000000E+00  0.93827000000E+00 0.  1.
     999902    2    1    2    0    0  0.10379505481E-01  0.92806951792E-02 -0.23918472509E-01  0.10162540400E+01  0.10158771161E+01 0.  0.
     999903    2    3    3    0    0 -0.81994215035E-01 -0.76487281750E-01  0.49568582174E-01  0.12423980391E+00  0.20127815779E-01 0.  0.
         14    1    1    2    0    0 -0.10379505481E-01 -0.92806951792E-02  0.23918472509E-01  0.27675960042E-01  0.00000000000E+00 0.  1.
     999901    1    3    3    0    0  0.92373720516E-01  0.85767976929E-01 -0.73487054683E-01  0.89201423605E+00  0.88000000000E+00 0.  1.
        -11    1    4    4    0    0 -0.36205902014E-01 -0.29764338577E-01  0.10476380379E-01  0.48029145927E-01  0.51100000000E-03 0.  1.
         11    1    4    4    0    0 -0.45788313021E-01 -0.46722943173E-01  0.39092201794E-01  0.76210657983E-01  0.51100000000E-03 0. -1.
</event>
<event>
 8    1  0.1111182E+005  0.1043930E+01  0.7957747E-01            NaN
         13   -1    0    0    0    0  0.00000000000E+00  0.00000000000E+00  0.74505805969E-08  0.10566000000E+00  0.10566000000E+00 0.  1.
     999900   -1    0    0    0    0 -0.00000000000E+00 -0.00000000000E+00 -0.74505805969E-08  0.93827000000E+00  0.93827000000E+00 0. -1.
     999902    2    1    2    0    0  0.73925496806E-02 -0.19701005046E-01 -0.98144216772E-02  0.10207114242E+01  0.10204473084E+01 0.  0.
     999903    2    3    3    0    0 -0.12170009915E+00 -0.32793193259E-01 -0.29585961634E-01  0.13097706428E+00  0.19833168831E-01 0.  0.
         14    1    1    2    0    0 -0.73925496806E-02  0.19701005046E-01  0.98144216772E-02  0.23218575828E-01  0.00000000000E+00 0.  1.
     999901    1    3    3    0    0  0.12909264883E+00  0.13092188213E-01  0.19771539957E-01  0.88973435989E+00  0.88000000000E+00 0.  1.
        -11    1    4    4    0    0 -0.22155378383E-01 -0.34230250453E-02  0.19359404336E-02  0.22507484935E-01  0.51100000000E-03 0.  1.
         11    1    4    4    0    0 -0.99544720765E-01 -0.29370168214E-01 -0.31521902068E-01  0.10846957935E+00  0.51100000000E-03 0. -1.
</event>
<event>
 8    1  0.1167465E+005  0.1043930E+01  0.7957747E-01            NaN
         13   -1    0    0    0    0  0.00000000000E+00  0.00000000000E+00  0.74505805969E-08  0.10566000000E+00  0.10566000000E+00 0.  1.
     999900   -1    0    0    0    0 -0.00000000000E+00 -0.00000000000E+00 -0.74505805969E-08  0.93827000000E+00  0.93827000000E+00 0.  1.
     999902    2    1    2    0    0 -0.14684893754E-01  0.12107036646E-01  0.14929960375E-01  0.10197405362E+01  0.10194535944E+01 0.  0.
     999903    2    3    3    0    0 -0.11172448117E-02 -0.21536961204E-01  0.12865855946E+00  0.13168074435E+00  0.17936124903E-01 0.  0.
         14    1    1    2    0    0  0.14684893754E-01 -0.12107036646E-01 -0.14929960375E-01  0.24189463774E-01  0.00000000000E+00 0. -1.
     999901    1    3    3    0    0 -0.13567648942E-01  0.33643997850E-01 -0.11372859909E+00  0.88805979187E+00  0.88000000000E+00 0.  1.
        -11    1    4    4    0    0 -0.26821166687E-02 -0.20587908277E-01  0.70604587559E-01  0.73595683449E-01  0.51100000000E-03 0. -1.
         11    1    4    4    0    0  0.15648718570E-02 -0.94905292777E-03  0.58053971904E-01  0.58085060904E-01  0.51100000000E-03 0.  1.
</event>
<event>
 8    1  0.1111182E+005  0.1043930E+01  0.7957747E-01            NaN
         13   -1    0    0    0    0  0.00000000000E+00  0.00000000000E+00  0.74505805969E-08  0.10566000000E+00  0.10566000000E+00 0.  1.
     999900   -1    0    0    0    0 -0.00000000000E+00 -0.00000000000E+00 -0.74505805969E-08  0.93827000000E+00  0.93827000000E+00 0.  1.
     999902    2    1    2    0    0 -0.17202998292E-01  0.15960616991E-01  0.34145203482E-02  0.10202162193E+01  0.10199405820E+01 0.  0.
     999903    2    3    3    0    0  0.90727277167E-01  0.84478132077E-01 -0.34461098628E-01  0.13017231212E+00  0.19729924031E-01 0.  0.
         14    1    1    2    0    0  0.17202998292E-01 -0.15960616991E-01 -0.34145203482E-02  0.23713780680E-01  0.00000000000E+00 0. -1.
     999901    1    3    3    0    0 -0.10793027546E+00 -0.68517515086E-01  0.37875618976E-01  0.89004390720E+00  0.88000000000E+00 0. -1.
        -11    1    4    4    0    0  0.27513552806E-01  0.27482548896E-01 -0.15725425608E-02  0.38923259023E-01  0.51100000000E-03 0. -1.
         11    1    4    4    0    0  0.63213724360E-01  0.56995583181E-01 -0.32888556067E-01  0.91249053095E-01  0.51100000000E-03 0.  1.
</event>
<event>
 8    1  0.1111182E+005  0.1043930E+01  0.7957747E-01            NaN
         13   -1    0    0    0    0  0.00000000000E+00  0.00000000000E+00  0.74505805969E-08  0.10566000000E+00  0.10566000000E+00 0.  1.
     999900   -1    0    0    0    0 -0.00000000000E+00 -0.00000000000E+00 -0.74505805969E-08  0.93827000000E+00  0.93827000000E+00 0. -1.
     999902    2    1    2    0    0  0.15900979347E-01 -0.14005650366E-01 -0.11444766106E-01  0.10198471834E+01  0.10195627962E+01 0.  0.
     999903    2    3    3    0    0 -0.10849791618E+00 -0.43737044749E-02 -0.66752979188E-01  0.12932662883E+00  0.21874404903E-01 0.  0.
         14    1    1    2    0    0 -0.15900979347E-01  0.14005650366E-01  0.11444766106E-01  0.24082816646E-01  0.00000000000E+00 0. -1.
     999901    1    3    3    0    0  0.12439889552E+00 -0.96319458912E-02  0.55308213083E-01  0.89052055452E+00  0.88000000000E+00 0.  1.
        -11    1    4    4    0    0 -0.72205757678E-01 -0.12566805030E-03 -0.55554698908E-01  0.91105833655E-01  0.51100000000E-03 0.  1.
         11    1    4    4    0    0 -0.36292158497E-01 -0.42480364246E-02 -0.11198280281E-01  0.38220795179E-01  0.51100000000E-03 0. -1.
</event>
<event>
 8    1  0.1111182E+005  0.1043930E+01  0.7957747E-01            NaN
         13   -1    0    0    0    0  0.00000000000E+00  0.00000000000E+00  0.74505805969E-08  0.10566000000E+00  0.10566000000E+00 0. -1.
     999900   -1    0    0    0    0 -0.00000000000E+00 -0.00000000000E+00 -0.74505805969E-08  0.93827000000E+00  0.93827000000E+00 0. -1.
     999902    2    1    2    0    0 -0.93607809683E-03  0.86818458870E-02 -0.22239252336E-01  0.10200378458E+01  0.10197579966E+01 0.  0.
     999903    2    3    3    0    0  0.79662459413E-01  0.10216081340E+00  0.81422254133E-03  0.13112508045E+00  0.20253012842E-01 0.  0.
         14    1    1    2    0    0  0.93607809683E-03 -0.86818458870E-02  0.22239252336E-01  0.23892154249E-01  0.00000000000E+00 0. -1.
     999901    1    3    3    0    0 -0.80598537510E-01 -0.93478967515E-01 -0.23053474877E-01  0.88891276530E+00  0.88000000000E+00 0.  1.
        -11    1    4    4    0    0  0.63903042106E-01  0.70338653131E-01  0.60540781317E-02  0.95226245845E-01  0.51100000000E-03 0.  1.
         11    1    4    4    0    0  0.15759417307E-01  0.31822160271E-01 -0.52398555904E-02  0.35898834602E-01  0.51100000000E-03 0. -1.
</event>
<event>
 8    1  0.1111182E+005  0.1043930E+01  0.7957747E-01            NaN
         13   -1    0    0    0    0  0.00000000000E+00  0.00000000000E+00  0.74505805969E-08  0.10566000000E+00  0.10566000000E+00 0. -1.
     999900   -1    0    0    0    0 -0.00000000000E+00 -0.00000000000E+00 -0.74505805969E-08  0.93827000000E+00  0.93827000000E+00 0. -1.
     999902    2    1    2    0    0 -0.37184801065E-02  0.20374446295E-01 -0.85443736484E-02  0.10215257264E+01  0.10212800097E+01 0.  0.
     999903    2    3    3    0    0  0.12339112177E+00  0.79597100496E-02 -0.38131803778E-01  0.13181431664E+00  0.25144655459E-01 0.  0.
         14    1    1    2    0    0  0.37184801065E-02 -0.20374446295E-01  0.85443736484E-02  0.22404273636E-01  0.00000000000E+00 0. -1.
     999901    1    3    3    0    0 -0.12710960187E+00  0.12414736245E-01  0.29587430130E-01  0.88971140972E+00  0.88000000000E+00 0.  1.
        -11    1    4    4    0    0  0.84196533395E-01  0.90991355249E-02 -0.37436301148E-01  0.92593672935E-01  0.51100000000E-03 0.  1.
         11    1    4    4    0    0  0.39194588371E-01 -0.11394254753E-02 -0.69550263045E-03  0.39220643709E-01  0.51100000000E-03 0. -1.
</event>
<event>
 8    1  0.1111182E+005  0.1043930E+01  0.7957747E-01            NaN
         13   -1    0    0    0    0  0.00000000000E+00  0.00000000000E+00  0.74505805969E-08  0.10566000000E+00  0.10566000000E+00 0.  1.
     999900   -1    0    0    0    0 -0.00000000000E+00 -0.00000000000E+00 -0.74505805969E-08  0.93827000000E+00  0.93827000000E+00 0. -1.
     999902    2    1    2    0    0  0.13038238128E-01  0.12558040734E-01  0.13650322307E-01  0.10212577407E+01  0.10210060439E+01 0.  0.
     999903    2    3    3    0    0 -0.55500544271E-01  0.19197081752E-01 -0.11356351626E+00  0.12944778213E+00  0.20278503669E-01 0.  0.
         14    1    1    2    0    0 -0.13038238128E-01 -0.12558040734E-01 -0.13650322307E-01  0.22672259253E-01  0.00000000000E+00 0. -1.
     999901    1    3    3    0    0  0.68538782399E-01 -0.66390410183E-02  0.12721383857E+00  0.89180995861E+00  0.88000000000E+00 0.  1.
        -11    1    4    4    0    0 -0.56746872414E-01  0.16748513670E-01 -0.10618142927E+00  0.12155442107E+00  0.51100000000E-03 0.  1.
         11    1    4    4    0    0  0.12463281437E-02  0.24485680825E-02 -0.73820869921E-02  0.78933610620E-02  0.51100000000E-03 0. -1.
</event>
<event>
 8    1  0.1111182E+005  0.1043930E+01  0.7957747E-01            NaN
         13   -1    0    0    0    0  0.00000000000E+00  0.00000000000E+00  0.74505805969E-08  0.10566000000E+00  0.10566000000E+00 0. -1.
     999900   -1    0    0    0    0 -0.00000000000E+00 -0.00000000000E+00 -0.74505805969E-08  0.93827000000E+00  0.93827000000E+00 0. -1.
     999902    2    1    2    0    0  0.75412906491E-02  0.18124278632E-01 -0.14995739534E-01  0.10192271106E+01  0.10189277061E+01 0.  0.
     999903    2    3    3    0    0 -0.10037226831E-01 -0.61124210567E-01 -0.11247508947E+00  0.13013119284E+00  0.21132121465E-01 0.  0.
         14    1    1    2    0    0 -0.75412906491E-02 -0.18124278632E-01  0.14995739534E-01  0.24702889401E-01  0.00000000000E+00 0. -1.
     999901    1    3    3    0    0  0.17578517480E-01  0.79248489199E-01  0.97479349938E-01  0.88909591776E+00  0.88000000000E+00 0.  1.
        -11    1    4    4    0    0 -0.15406368660E-01 -0.54699846214E-01 -0.10137922566E+00  0.11622150355E+00  0.51100000000E-03 0.  1.
         11    1    4    4    0    0  0.53691418291E-02 -0.64243643524E-02 -0.11095863813E-01  0.13909689287E-01  0.51100000000E-03 0. -1.
</event>
<event>
 8    1  0.1111182E+005  0.1043930E+01  0.7957747E-01            NaN
         13   -1    0    0    0    0  0.00000000000E+00  0.00000000000E+00  0.74505805969E-08  0.10566000000E+00  0.10566000000E+00 0. -1.
     999900   -1    0    0    0    0 -0.00000000000E+00 -0.00000000000E+00 -0.74505805969E-08  0.93827000000E+00  0.93827000000E+00 0.  1.
     999902    2    1    2    0    0  0.44563941278E-02  0.19948669778E-01  0.12445319534E-01  0.10199989563E+01  0.10197181846E+01 0.  0.
     999903    2    3    3    0    0  0.13413308660E-01  0.11672760085E+00 -0.56796509929E-01  0.13194444290E+00  0.19448465828E-01 0.  0.
         14    1    1    2    0    0 -0.44563941278E-02 -0.19948669778E-01 -0.12445319534E-01  0.23931043706E-01  0.00000000000E+00 0. -1.
     999901    1    3    3    0    0 -0.89569145322E-02 -0.96778931068E-01  0.69241829463E-01  0.88805451340E+00  0.88000000000E+00 0.  1.
        -11    1    4    4    0    0 -0.14128126450E-02  0.59731510464E-01 -0.34324535764E-01  0.68907795338E-01  0.51100000000E-03 0.  1.
         11    1    4    4    0    0  0.14826121305E-01  0.56996090381E-01 -0.22471974165E-01  0.63036647560E-01  0.51100000000E-03 0. -1.
</event>
<event>
 8    1  0.1111182E+005  0.1043930E+01  0.7957747E-01            NaN
         13   -1    0    0    0    0  0.00000000000E+00  0.00000000000E+00  0.74505805969E-08  0.10566000000E+00  0.10566000000E+00 0. -1.
     999900   -1    0    0    0    0 -0.00000000000E+00 -0.00000000000E+00 -0.74505805969E-08  0.93827000000E+00  0.93827000000E+00 0. -1.
     999902    2    1    2    0    0 -0.16276934772E-01  0.98285452506E-02 -0.17077889973E-01  0.10183723547E+01  0.10180515997E+01 0.  0.
     999903    2    3    3    0    0  0.81921102445E-01  0.79127203281E-02 -0.97647817384E-01  0.12925029441E+00  0.19921450638E-01 0.  0.
         14    1    1    2    0    0  0.16276934772E-01 -0.98285452506E-02  0.17077889973E-01  0.25557645299E-01  0.00000000000E+00 0. -1.
     999901    1    3    3    0    0 -0.98198037217E-01  0.19158249225E-02  0.80569927411E-01  0.88912206029E+00  0.88000000000E+00 0.  1.
        -11    1    4    4    0    0  0.24963420746E-01  0.11680297156E-01 -0.33395142732E-01  0.43302406354E-01  0.51100000000E-03 0. -1.
         11    1    4    4    0    0  0.56957681700E-01 -0.37675768280E-02 -0.64252674652E-01  0.85947888053E-01  0.51100000000E-03 0.  1.
</event>
<event>
 8    1  0.1111182E+005  0.1043930E+01  0.7957747E-01            NaN
         13   -1    0    0    0    0  0.00000000000E+00  0.00000000000E+00  0.74505805969E-08  0.10566000000E+00  0.10566000000E+00 0.  1.
     999900   -1    0    0    0    0 -0.00000000000E+00 -0.00000000000E+00 -0.74505805969E-08  0.93827000000E+00  0.93827000000E+00 0.  1.
     999902    2    1    2    0    0  0.13396366599E-01  0.13781982631E-01 -0.12624858101E-01  0.10209345064E+01  0.10206754987E+01 0.  0.
     999903    2    3    3    0    0  0.98008575378E-01 -0.53970029885E-02 -0.87948491052E-01  0.13346579764E+00  0.21056437809E-01 0.  0.
         14    1    1    2    0    0 -0.13396366599E-01 -0.13781982631E-01  0.12624858101E-01  0.22995493588E-01  0.00000000000E+00 0.  1.
     999901    1    3    3    0    0 -0.84612208779E-01  0.19178985619E-01  0.75323632951E-01  0.88746870877E+00  0.88000000000E+00 0. -1.
        -11    1    4    4    0    0  0.65071538358E-01 -0.11457748240E-01 -0.50069414870E-01  0.82902307118E-01  0.51100000000E-03 0. -1.
         11    1    4    4    0    0  0.32937037020E-01  0.60607452520E-02 -0.37879076182E-01  0.50563490525E-01  0.51100000000E-03 0.  1.
</event>
<event>
 8    1  0.1111182E+005  0.1043930E+01  0.7957747E-01            NaN
         13   -1    0    0    0    0  0.00000000000E+00  0.00000000000E+00  0.74505805969E-08  0.10566000000E+00  0.10566000000E+00 0.  1.
     999900   -1    0    0    0    0 -0.00000000000E+00 -0.00000000000E+00 -0.74505805969E-08  0.93827000000E+00  0.93827000000E+00 0. -1.
     999902    2    1    2    0    0  0.72747876625E-02 -0.15256623789E-01 -0.16796889925E-01  0.10201009711E+01  0.10198226163E+01 0.  0.
     999903    2    3    3    0    0  0.61643306895E-02 -0.64652969358E-01 -0.11457533197E+00  0.13330795369E+00  0.20627612609E-01 0.  0.
         14    1    1    2    0    0 -0.72747876625E-02  0.15256623789E-01  0.16796889925E-01  0.23829028854E-01  0.00000000000E+00 0.  1.
     999901    1    3    3    0    0  0.11104569730E-02  0.49396345569E-01  0.97778442048E-01  0.88679301745E+00  0.88000000000E+00 0. -1.
        -11    1    4    4    0    0 -0.71386789980E-02 -0.14196960210E-01 -0.24413444826E-01  0.29134032098E-01  0.51100000000E-03 0.  1.
         11    1    4    4    0    0  0.13303009687E-01 -0.50456009148E-01 -0.90161887147E-01  0.10417392160E+00  0.51100000000E-03 0. -1.
</event>
<event>
 8    1  0.1111182E+005  0.1043930E+01  0.7957747E-01            NaN
         13   -1    0    0    0    0  0.00000000000E+00  0.00000000000E+00  0.74505805969E-08  0.10566000000E+00  0.10566000000E+00 0.  1.
     999900   -1    0    0    0    0 -0.00000000000E+00 -0.00000000000E+00 -0.74505805969E-08  0.93827000000E+00  0.93827000000E+00 0.  1.
     999902    2    1    2    0    0  0.10569932138E-01 -0.11435733291E-01 -0.19001970325E-01  0.10193622501E+01  0.10190661522E+01 0.  0.
     999903    2    3    3    0    0  0.18012110764E-01  0.11085875902E+00  0.57126802056E-01  0.12761849826E+00  0.20221498432E-01 0.  0.
         14    1    1    2    0    0 -0.10569932138E-01  0.11435733291E-01  0.19001970325E-01  0.24567749948E-01  0.00000000000E+00 0. -1.
     999901    1    3    3    0    0 -0.74421786259E-02 -0.12229449231E+00 -0.76128772381E-01  0.89174375179E+00  0.88000000000E+00 0.  1.
        -11    1    4    4    0    0  0.19706521641E-01  0.59884843968E-01  0.29389595005E-01  0.69559693414E-01  0.51100000000E-03 0.  1.
         11    1    4    4    0    0 -0.16944108770E-02  0.50973915055E-01  0.27737207051E-01  0.58058804847E-01  0.51100000000E-03 0. -1.
</event>
<event>
 8    1  0.1111182E+005  0.1043930E+01  0.7957747E-01            NaN
         13   -1    0    0    0    0  0.00000000000E+00  0.00000000000E+00  0.74505805969E-08  0.10566000000E+00  0.10566000000E+00 0.  1.
     999900   -1    0    0    0    0 -0.00000000000E+00 -0.00000000000E+00 -0.74505805969E-08  0.93827000000E+00  0.93827000000E+00 0.  1.
     999902    2    1    2    0    0  0.11467097564E-01 -0.21379602490E-02 -0.20420030379E-01  0.10204131371E+01  0.10201421114E+01 0.  0.
     999903    2    3    3    0    0  0.43684407627E-01 -0.34441055344E-02  0.11939452487E+00  0.12879226982E+00  0.20302878234E-01 0.  0.
         14    1    1    2    0    0 -0.11467097564E-01  0.21379602490E-02  0.20420030379E-01  0.23516862912E-01  0.00000000000E+00 0.  1.
     999901    1    3    3    0    0 -0.32217310063E-01  0.13061452854E-02 -0.13981455525E+00  0.89162086727E+00  0.88000000000E+00 0.  1.
        -11    1    4    4    0    0  0.31890169549E-01  0.55804171423E-02  0.93362548881E-01  0.98817764718E-01  0.51100000000E-03 0.  1.
         11    1    4    4    0    0  0.11794238078E-01 -0.90245226767E-02  0.26031975989E-01  0.29974505105E-01  0.51100000000E-03 0. -1.
</event>
<event>
 8    1  0.1111182E+005  0.1043930E+01  0.7957747E-01            NaN
         13   -1    0    0    0    0  0.00000000000E+00  0.00000000000E+00  0.74505805969E-08  0.10566000000E+00  0.10566000000E+00 0.  1.
     999900   -1    0    0    0    0 -0.00000000000E+00 -0.00000000000E+00 -0.74505805969E-08  0.93827000000E+00  0.93827000000E+00 0. -1.
     999902    2    1    2    0    0  0.19161790663E-01  0.93343625084E-02  0.10833797802E-01  0.10200202589E+01  0.10197399928E+01 0.  0.
     999903    2    3    3    0    0 -0.11871638280E-01 -0.95388385231E-01 -0.82321325012E-01  0.12838815735E+00  0.21606447254E-01 0.  0.
         14    1    1    2    0    0 -0.19161790663E-01 -0.93343625084E-02 -0.10833797802E-01  0.23909741104E-01  0.00000000000E+00 0.  1.
     999901    1    3    3    0    0  0.31033428943E-01  0.10472274774E+00  0.93155122814E-01  0.89163210155E+00  0.88000000000E+00 0.  1.
        -11    1    4    4    0    0  0.50616160747E-02 -0.83223537354E-02 -0.96469377890E-02  0.13718821330E-01  0.51100000000E-03 0. -1.
         11    1    4    4    0    0 -0.16933254355E-01 -0.87066031495E-01 -0.72674387223E-01  0.11466933602E+00  0.51100000000E-03 0.  1.
</event>
<event>
 8    1  0.1111182E+005  0.1043930E+01  0.7957747E-01            NaN
         13   -1    0    0    0    0  0.00000000000E+00  0.00000000000E+00  0.74505805969E-08  0.10566000000E+00  0.10566000000E+00 0.  1.
     999900   -1    0    0    0    0 -0.00000000000E+00 -0.00000000000E+00 -0.74505805969E-08  0.93827000000E+00  0.93827000000E+00 0.  1.
     999902    2    1    2    0    0 -0.54479293342E-02 -0.81865066967E-02 -0.21358448063E-01  0.10204165543E+01  0.10201456083E+01 0.  0.
     999903    2    3    3    0    0 -0.46100424375E-01  0.11853906846E+00  0.14446704871E-01  0.12968988143E+00  0.20832623067E-01 0.  0.
         14    1    1    2    0    0  0.54479293342E-02  0.81865066967E-02  0.21358448063E-01  0.23513445719E-01  0.00000000000E+00 0.  1.
     999901    1    3    3    0    0  0.40652495041E-01 -0.12672557516E+00 -0.35805152934E-01  0.89072667285E+00  0.88000000000E+00 0.  1.
        -11    1    4    4    0    0 -0.43186136688E-01  0.11158689081E+00  0.82842150109E-02  0.11993984301E+00  0.51100000000E-03 0.  1.
         11    1    4    4    0    0 -0.29142876866E-02  0.69521776537E-02  0.61624898600E-02  0.97500384166E-02  0.51100000000E-03 0. -1.
</event>
<event>
 8    1  0.1111182E+005  0.1043930E+01  0.7957747E-01            NaN
         13   -1    0    0    0    0  0.00000000000E+00  0.00000000000E+00  0.74505805969E-08  0.10566000000E+00  0.10566000000E+00 0. -1.
     999900   -1    0    0    0    0 -0.00000000000E+00 -0.00000000000E+00 -0.74505805969E-08  0.93827000000E+00  0.93827000000E+00 0.  1.
     999902    2    1    2    0    0  0.19156074053E-01 -0.13439290383E-01 -0.14096385457E-02  0.10204873726E+01  0.10202180751E+01 0.  0.
     999903    2    3    3    0    0  0.57265057654E-01 -0.18129935197E-01 -0.11614717778E+00  0.13220870027E+00  0.19519020071E-01 0.  0.
         14    1    1    2    0    0 -0.19156074053E-01  0.13439290383E-01  0.14096385457E-02  0.23442627411E-01  0.00000000000E+00 0. -1.
     999901    1    3    3    0    0 -0.38108983601E-01  0.46906448139E-02  0.11473753923E+00  0.88827867231E+00  0.88000000000E+00 0. -1.
        -11    1    4    4    0    0  0.10146884050E-01  0.41740289677E-02 -0.22081034538E-01  0.24662014943E-01  0.51100000000E-03 0.  1.
         11    1    4    4    0    0  0.47118173603E-01 -0.22303964164E-01 -0.94066143238E-01  0.10754668533E+00  0.51100000000E-03 0. -1.
</event>
<event>
 8    1  0.1111182E+005  0.1043930E+01  0.7957747E-01            NaN
         13   -1    0    0    0    0  0.00000000000E+00  0.00000000000E+00  0.74505805969E-08  0.10566000000E+00  0.10566000000E+00 0. -1.
     999900   -1    0    0    0    0 -0.00000000000E+00 -0.00000000000E+00 -0.74505805969E-08  0.93827000000E+00  0.93827000000E+00 0.  1.
     999902    2    1    2    0    0  0.74996171152E-03 -0.74609404391E-02  0.21679100625E-01  0.10209907001E+01  0.10207329711E+01 0.  0.
     999903    2    3    3    0    0  0.18881962261E-01  0.56048552303E-01  0.11811120293E+00  0.13326248977E+00  0.17625725714E-01 0.  0.
         14    1    1    2    0    0 -0.74996171152E-03  0.74609404391E-02 -0.21679100625E-01  0.22939299874E-01  0.00000000000E+00 0.  1.
     999901    1    3    3    0    0 -0.18132000549E-01 -0.63509492743E-01 -0.96432102306E-01  0.88772821036E+00  0.88000000000E+00 0.  1.
        -11    1    4    4    0    0  0.89605883685E-02  0.47010213156E-01  0.85303308844E-01  0.97811900634E-01  0.51100000000E-03 0.  1.
         11    1    4    4    0    0  0.99213738925E-02  0.90383391474E-02  0.32807894087E-01  0.35450589133E-01  0.51100000000E-03 0. -1.
</event>
<event>
 8    1  0.1111182E+005  0.1043930E+01  0.7957747E-01            NaN
         13   -1    0    0    0    0  0.00000000000E+00  0.00000000000E+00  0.74505805969E-08  0.10566000000E+00  0.10566000000E+00 0. -1.
     999900   -1    0    0    0    0 -0.00000000000E+00 -0.00000000000E+00 -0.74505805969E-08  0.93827000000E+00  0.93827000000E+00 0.  1.
     999902    2    1    2    0    0  0.18335621431E-01 -0.10537371746E-01 -0.10922695751E-01  0.10201279728E+01  0.10198502559E+01 0.  0.
     999903    2    3    3    0    0 -0.82782830874E-01 -0.97568543578E-01  0.74329010174E-02  0.12988289744E+00  0.21016689692E-01 0.  0.
         14    1    1    2    0    0 -0.18335621431E-01  0.10537371746E-01  0.10922695751E-01  0.23802027205E-01  0.00000000000E+00 0. -1.
     999901    1    3    3    0    0  0.10111845230E+00  0.87031171832E-01 -0.18355596768E-01  0.89024507536E+00  0.88000000000E+00 0.  1.
        -11    1    4    4    0    0 -0.60344583514E-01 -0.66442593115E-01  0.14330492410E-01  0.90893955096E-01  0.51100000000E-03 0.  1.
         11    1    4    4    0    0 -0.22438247360E-01 -0.31125950464E-01 -0.68975913927E-02  0.38988942341E-01  0.51100000000E-03 0. -1.
</event>
<event>
 8    1  0.1111182E+005  0.1043930E+01  0.7957747E-01            NaN
         13   -1    0    0    0    0  0.00000000000E+00  0.00000000000E+00  0.74505805969E-08  0.10566000000E+00  0.10566000000E+00 0.  1.
     999900   -1    0    0    0    0 -0.00000000000E+00 -0.00000000000E+00 -0.74505805969E-08  0.93827000000E+00  0.93827000000E+00 0. -1.
     999902    2    1    2    0    0 -0.19273766821E-01 -0.13498756159E-01  0.10658454880E-02  0.10203751591E+01  0.10201032471E+01 0.  0.
     999903    2    3    3    0    0 -0.10154646043E+00  0.49072654628E-01  0.65586889667E-01  0.13197944615E+00  0.19927996696E-01 0.  0.
         14    1    1    2    0    0  0.19273766821E-01  0.13498756159E-01 -0.10658454880E-02  0.23554840944E-01  0.00000000000E+00 0. -1.
     999901    1    3    3    0    0  0.82272693611E-01 -0.62571410786E-01 -0.64521044179E-01  0.88839571290E+00  0.88000000000E+00 0. -1.
        -11    1    4    4    0    0 -0.16466568653E-01  0.66659785729E-02  0.26470751633E-02  0.17968062819E-01  0.51100000000E-03 0. -1.
         11    1    4    4    0    0 -0.85079891779E-01  0.42406676055E-01  0.62939814504E-01  0.11401138333E+00  0.51100000000E-03 0.  1.
</event>
<event>
 8    1  0.1111182E+005  0.1043930E+01  0.7957747E-01            NaN
         13   -1    0    0    0    0  0.00000000000E+00  0.00000000000E+00  0.74505805969E-08  0.10566000000E+00  0.10566000000E+00 0.  1.
     999900   -1    0    0    0    0 -0.00000000000E+00 -0.00000000000E+00 -0.74505805969E-08  0.93827000000E+00  0.93827000000E+00 0.  1.
     999902    2    1    2    0    0 -0.15267243608E-01  0.97794500374E-02  0.15382128169E-01  0.10201531996E+01  0.10198760780E+01 0.  0.
     999903    2    3    3    0    0 -0.11118036203E-02 -0.70667282680E-01 -0.10486176611E+00  0.12822795195E+00  0.21244216171E-01 0.  0.
         14    1    1    2    0    0  0.15267243608E-01 -0.97794500374E-02 -0.15382128169E-01  0.23776800404E-01  0.00000000000E+00 0. -1.
     999901    1    3    3    0    0 -0.14155439988E-01  0.80446732717E-01  0.12024389427E+00  0.89192524765E+00  0.88000000000E+00 0.  1.
        -11    1    4    4    0    0 -0.82462368338E-02 -0.41334343698E-01 -0.48257163504E-01  0.64074513976E-01  0.51100000000E-03 0. -1.
         11    1    4    4    0    0  0.71344332135E-02 -0.29332938982E-01 -0.56604602601E-01  0.64153437969E-01  0.51100000000E-03 0.  1.
</event>
<event>
 8    1  0.1111182E+005  0.1043930E+01  0.7957747E-01            NaN
         13   -1    0    0    0    0  0.00000000000E+00  0.00000000000E+00  0.74505805969E-08  0.10566000000E+00  0.10566000000E+00 0.  1.
     999900   -1    0    0    0    0 -0.00000000000E+00 -0.00000000000E+00 -0.74505805969E-08  0.93827000000E+00  0.93827000000E+00 0. -1.
     999902    2    1    2    0    0  0.18372310334E-01 -0.12312949063E-01 -0.10297593286E-01  0.10195334648E+01  0.10192415292E+01 0.  0.
     999903    2    3    3    0    0  0.59538328840E-01  0.12518378686E-01 -0.11546020619E+00  0.13196915105E+00  0.19577415763E-01 0.  0.
         14    1    1    2    0    0 -0.18372310334E-01  0.12312949063E-01  0.10297593286E-01  0.24396535187E-01  0.00000000000E+00 0.  1.
     999901    1    3    3    0    0 -0.41166018505E-01 -0.24831327749E-01  0.10516261291E+00  0.88756431377E+00  0.88000000000E+00 0.  1.
        -11    1    4    4    0    0  0.38392991789E-01  0.55238536945E-02 -0.53183546683E-01  0.65827695819E-01  0.51100000000E-03 0. -1.
         11    1    4    4    0    0  0.21145337050E-01  0.69945249914E-02 -0.62276659510E-01  0.66141455227E-01  0.51100000000E-03 0.  1.
</event>
<event>
 8    1  0.1111182E+005  0.1043930E+01  0.7957747E-01            NaN
         13   -1    0    0    0    0  0.00000000000E+00  0.00000000000E+00  0.74505805969E-08  0.10566000000E+00  0.10566000000E+00 0. -1.
     999900   -1    0    0    0    0 -0.00000000000E+00 -0.00000000000E+00 -0.74505805969E-08  0.93827000000E+00  0.93827000000E+00 0.  1.
     999902    2    1    2    0    0  0.20087139638E-02 -0.12756174237E-01 -0.19270506432E-01  0.10207328594E+01  0.10204692367E+01 0.  0.
     999903    2    3    3    0    0  0.52463530350E-01 -0.41875248171E-01  0.10892647718E+00  0.12953811327E+00  0.20228369500E-01 0.  0.
         14    1    1    2    0    0 -0.20087139638E-02  0.12756174237E-01  0.19270506432E-01  0.23197140580E-01  0.00000000000E+00 0. -1.
     999901    1    3    3    0    0 -0.50454816386E-01  0.29119073935E-01 -0.12819698361E+00  0.89119474615E+00  0.88000000000E+00 0.  1.
        -11    1    4    4    0    0  0.49163390881E-01 -0.36056578469E-01  0.84453530200E-01  0.10416225678E+00  0.51100000000E-03 0. -1.
         11    1    4    4    0    0  0.33001394688E-02 -0.58186697028E-02  0.24472946977E-01  0.25375856486E-01  0.51100000000E-03 0.  1.
</event>
<event>
 8    1  0.1111182E+005  0.1043930E+01  0.7957747E-01            NaN
         13   -1    0    0    0    0  0.00000000000E+00  0.00000000000E+00  0.74505805969E-08  0.10566000000E+00  0.10566000000E+00 0. -1.
     999900   -1    0    0    0    0 -0.00000000000E+00 -0.00000000000E+00 -0.74505805969E-08  0.93827000000E+00  0.93827000000E+00 0. -1.
     999902    2    1    2    0    0 -0.43296446811E-03 -0.20567213775E-01  0.11334914120E-01  0.10204421730E+01  0.10201718239E+01 0.  0.
     999903    2    3    3    0    0 -0.13653325525E-01 -0.31841633621E-01  0.12648396665E+00  0.13277038971E+00  0.20723890432E-01 0.  0.
         14    1    1    2    0    0  0.43296446811E-03  0.20567213775E-01 -0.11334914120E-01  0.23487827034E-01  0.00000000000E+00 0. -1.
     999901    1    3    3    0    0  0.13220361057E-01  0.11274419846E-01 -0.11514905253E+00  0.88767178326E+00  0.88000000000E+00 0. -1.
        -11    1    4    4    0    0 -0.40135024935E-02  0.24608578160E-02  0.14939573858E-01  0.15672141255E-01  0.51100000000E-03 0.  1.
         11    1    4    4    0    0 -0.96398230316E-02 -0.34302491437E-01  0.11154439279E+00  0.11709824846E+00  0.51100000000E-03 0. -1.
</event>
<event>
 8    1  0.1111182E+005  0.1043930E+01  0.7957747E-01            NaN
         13   -1    0    0    0    0  0.00000000000E+00  0.00000000000E+00  0.74505805969E-08  0.10566000000E+00  0.10566000000E+00 0.  1.
     999900   -1    0    0    0    0 -0.00000000000E+00 -0.00000000000E+00 -0.74505805969E-08  0.93827000000E+00  0.93827000000E+00 0.  1.
     999902    2    1    2    0    0 -0.56443237016E-02 -0.23068763198E-01  0.42132394629E-02  0.10198099334E+01  0.10195246553E+01 0.  0.
     999903    2    3    3    0    0 -0.27176809971E-01 -0.66418537431E-01  0.10935830260E+00  0.13222988902E+00  0.19377927907E-01 0.  0.
         14    1    1    2    0    0  0.56443237016E-02  0.23068763198E-01 -0.42132394629E-02  0.24120066590E-01  0.00000000000E+00 0. -1.
     999901    1    3    3    0    0  0.21532486269E-01  0.43349774233E-01 -0.10514506313E+00  0.88758004439E+00  0.88000000000E+00 0.  1.
        -11    1    4    4    0    0 -0.35218150884E-02 -0.33623013023E-01  0.46692540951E-01  0.57648631274E-01  0.51100000000E-03 0. -1.
         11    1    4    4    0    0 -0.23654994882E-01 -0.32795524408E-01  0.62665761645E-01  0.74581257750E-01  0.51100000000E-03 0.  1.
</event>
<event>
 8    1  0.1111182E+005  0.1043930E+01  0.7957747E-01            NaN
         13   -1    0    0    0    0  0.00000000000E+00  0.00000000000E+00  0.74505805969E-08  0.10566000000E+00  0.10566000000E+00 0.  1.
     999900   -1    0    0    0    0 -0.00000000000E+00 -0.00000000000E+00 -0.74505805969E-08  0.93827000000E+00  0.93827000000E+00 0.  1.
     999902    2    1    2    0    0 -0.50579083006E-02  0.10831155040E-02 -0.22793849756E-01  0.10205566142E+01  0.10202889236E+01 0.  0.
     999903    2    3    3    0    0 -0.36539707374E-01  0.10784692427E+00 -0.64776472861E-01  0.13255202236E+00  0.20197472771E-01 0.  0.
         14    1    1    2    0    0  0.50579083006E-02 -0.10831155040E-02  0.22793849756E-01  0.23373385768E-01  0.00000000000E+00 0.  1.
     999901    1    3    3    0    0  0.31481799074E-01 -0.10676380877E+00  0.41982623105E-01  0.88800459187E+00  0.88000000000E+00 0. -1.
        -11    1    4    4    0    0 -0.14686939852E-02  0.31310096555E-01 -0.20132558158E-01  0.37256680304E-01  0.51100000000E-03 0.  1.
         11    1    4    4    0    0 -0.35071013389E-01  0.76536827718E-01 -0.44643914703E-01  0.95295342060E-01  0.51100000000E-03 0. -1.
</event>
<event>
 8    1  0.1111182E+005  0.1043930E+01  0.7957747E-01            NaN
         13   -1    0    0    0    0  0.00000000000E+00  0.00000000000E+00  0.74505805969E-08  0.10566000000E+00  0.10566000000E+00 0.  1.
     999900   -1    0    0    0    0 -0.00000000000E+00 -0.00000000000E+00 -0.74505805969E-08  0.93827000000E+00  0.93827000000E+00 0.  1.
     999902    2    1    2    0    0 -0.59538106879E-02  0.24285410489E-01  0.28164333519E-02  0.10187673030E+01  0.10184565068E+01 0.  0.
     999903    2    3    3    0    0  0.71478338789E-01 -0.38185566728E-01 -0.96610154194E-01  0.12759728156E+00  0.19500101194E-01 0.  0.
         14    1    1    2    0    0  0.59538106879E-02 -0.24285410489E-01 -0.28164333519E-02  0.25162697017E-01  0.00000000000E+00 0.  1.
     999901    1    3    3    0    0 -0.77432149477E-01  0.62470977217E-01  0.99426587546E-01  0.89117002142E+00  0.88000000000E+00 0. -1.
        -11    1    4    4    0    0  0.22014070465E-01 -0.18106177704E-01 -0.45474042968E-01  0.53671246253E-01  0.51100000000E-03 0. -1.
         11    1    4    4    0    0  0.49464268323E-01 -0.20079389024E-01 -0.51136111226E-01  0.73926035310E-01  0.51100000000E-03 0.  1.
</event>
<event>
 8    1  0.1111182E+005  0.1043930E+01  0.7957747E-01            NaN
         13   -1    0    0    0    0  0.00000000000E+00  0.00000000000E+00  0.74505805969E-08  0.10566000000E+00  0.10566000000E+00 0.  1.
     999900   -1    0    0    0    0 -0.00000000000E+00 -0.00000000000E+00 -0.74505805969E-08  0.93827000000E+00  0.93827000000E+00 0. -1.
     999902    2    1    2    0    0 -0.30679163974E-02 -0.20389047296E-01  0.11555703458E-01  0.10202940180E+01  0.10200202075E+01 0.  0.
     999903    2    3    3    0    0 -0.62648181349E-01 -0.15726014843E-01  0.11387527433E+00  0.13235210191E+00  0.19426749772E-01 0.  0.
         14    1    1    2    0    0  0.30679163974E-02  0.20389047296E-01 -0.11555703458E-01  0.23635981957E-01  0.00000000000E+00 0.  1.
     999901    1    3    3    0    0  0.59580264952E-01 -0.46630324532E-02 -0.10231957087E+00  0.88794191613E+00  0.88000000000E+00 0. -1.
        -11    1    4    4    0    0 -0.27528147256E-01  0.21023020676E-02  0.54556208804E-01  0.61146214972E-01  0.51100000000E-03 0. -1.
         11    1    4    4    0    0 -0.35120034092E-01 -0.17828316910E-01  0.59319065528E-01  0.71205886938E-01  0.51100000000E-03 0.  1.
</event>
<event>
 8    1  0.1111182E+005  0.1043930E+01  0.7957747E-01            NaN
         13   -1    0    0    0    0  0.00000000000E+00  0.00000000000E+00  0.74505805969E-08  0.10566000000E+00  0.10566000000E+00 0. -1.
     999900   -1    0    0    0    0 -0.00000000000E+00 -0.00000000000E+00 -0.74505805969E-08  0.93827000000E+00  0.93827000000E+00 0.  1.
     999902    2    1    2    0    0  0.11271948896E-01  0.12116479757E-01 -0.15886110406E-01  0.10209902001E+01  0.10207324597E+01 0.  0.
     999903    2    3    3    0    0 -0.34360030944E-01  0.41978483492E-01  0.11595842149E+00  0.12949875462E+00  0.19513255288E-01 0.  0.
         14    1    1    2    0    0 -0.11271948896E-01 -0.12116479757E-01  0.15886110406E-01  0.22939799856E-01  0.00000000000E+00 0. -1.
     999901    1    3    3    0    0  0.45631979840E-01 -0.29862003735E-01 -0.13184453189E+00  0.89149144552E+00  0.88000000000E+00 0.  1.
        -11    1    4    4    0    0 -0.55952308612E-02  0.20016272025E-01  0.52126142925E-01  0.56119102375E-01  0.51100000000E-03 0.  1.
         11    1    4    4    0    0 -0.28764800083E-01  0.21962211467E-01  0.63832278561E-01  0.73379652245E-01  0.51100000000E-03 0. -1.
</event>
<event>
 8    1  0.1111182E+005  0.1043930E+01  0.7957747E-01            NaN
         13   -1    0    0    0    0  0.00000000000E+00  0.00000000000E+00  0.74505805969E-08  0.10566000000E+00  0.10566000000E+00 0.  1.
     999900   -1    0    0    0    0 -0.00000000000E+00 -0.00000000000E+00 -0.74505805969E-08  0.93827000000E+00  0.93827000000E+00 0. -1.
     999902    2    1    2    0    0  0.16643251595E-01 -0.13918193767E-01  0.90152417216E-02  0.10204355640E+01  0.10201650610E+01 0.  0.
     999903    2    3    3    0    0 -0.12463458642E+00  0.18796318533E-01 -0.12643314365E-01  0.12830398181E+00  0.20370975120E-01 0.  0.
         14    1    1    2    0    0 -0.16643251595E-01  0.13918193767E-01 -0.90152417216E-02  0.23494436037E-01  0.00000000000E+00 0. -1.
     999901    1    3    3    0    0  0.14127783801E+00 -0.32714512300E-01  0.21658556086E-01  0.89213158216E+00  0.88000000000E+00 0. -1.
        -11    1    4    4    0    0 -0.53128395147E-01  0.58722572482E-02  0.44972713875E-02  0.53643232071E-01  0.51100000000E-03 0.  1.
         11    1    4    4    0    0 -0.71506191272E-01  0.12924061285E-01 -0.17140585752E-01  0.74660749736E-01  0.51100000000E-03 0. -1.
</event>
<event>
 8    1  0.1111182E+005  0.1043930E+01  0.7957747E-01            NaN
         13   -1    0    0    0    0  0.00000000000E+00  0.00000000000E+00  0.74505805969E-08  0.10566000000E+00  0.10566000000E+00 0.  1.
     999900   -1    0    0    0    0 -0.00000000000E+00 -0.00000000000E+00 -0.74505805969E-08  0.93827000000E+00  0.93827000000E+00 0.  1.
     999902    2    1    2    0    0  0.83413338462E-02  0.15259689892E-01  0.15762388836E-01  0.10204589777E+01  0.10201890199E+01 0.  0.
     999903    2    3    3    0    0 -0.46005579421E-01 -0.11153363219E+00  0.42151791945E-01  0.12932120266E+00  0.19772087523E-01 0.  0.
         14    1    1    2    0    0 -0.83413338462E-02 -0.15259689892E-01 -0.15762388836E-01  0.23471022299E-01  0.00000000000E+00 0. -1.
     999901    1    3    3    0    0  0.54346913267E-01  0.12679332209E+00 -0.26389403109E-01  0.89113777504E+00  0.88000000000E+00 0.  1.
        -11    1    4    4    0    0 -0.31540409742E-01 -0.62528520314E-01  0.32959988183E-01  0.77403069974E-01  0.51100000000E-03 0.  1.
         11    1    4    4    0    0 -0.14465169679E-01 -0.49005111881E-01  0.91918037616E-02  0.51918132687E-01  0.51100000000E-03 0. -1.
</event>
<event>
 8    1  0.1111182E+005  0.1043930E+01  0.7957747E-01            NaN
         13   -1    0    0    0    0  0.00000000000E+00  0.00000000000E+00  0.74505805969E-08  0.10566000000E+00  0.10566000000E+00 0. -1.
     999900   -1    0    0    0    0 -0.00000000000E+00 -0.00000000000E+00 -0.74505805969E-08  0.93827000000E+00  0.93827000000E+00 0. -1.
     999902    2    1    2    0    0  0.13258186952E-01 -0.19277287860E-01 -0.25388522168E-03  0.10205321837E+01  0.10202639267E+01 0.  0.
     999903    2    3    3    0    0 -0.32602118867E-01 -0.87700873267E-01 -0.91086915505E-01  0.13203030186E+00  0.19514945746E-01 0.  0.
         14    1    1    2    0    0 -0.13258186952E-01  0.19277287860E-01  0.25388522168E-03  0.23397816270E-01  0.00000000000E+00 0. -1.
     999901    1    3    3    0    0  0.45860305819E-01  0.68423585407E-01  0.90833030283E-01  0.88850188187E+00  0.88000000000E+00 0.  1.
        -11    1    4    4    0    0 -0.20601549470E-01 -0.31596892995E-01 -0.42688906602E-01  0.56968336429E-01  0.51100000000E-03 0.  1.
         11    1    4    4    0    0 -0.12000569397E-01 -0.56103980272E-01 -0.48398008903E-01  0.75061965435E-01  0.51100000000E-03 0. -1.
</event>
<event>
 8    1  0.1111182E+005  0.1043930E+01  0.7957747E-01            NaN
         13   -1    0    0    0    0  0.00000000000E+00  0.00000000000E+00  0.74505805969E-08  0.10566000000E+00  0.10566000000E+00 0.  1.
     999900   -1    0    0    0    0 -0.00000000000E+00 -0.00000000000E+00 -0.74505805969E-08  0.93827000000E+00  0.93827000000E+00 0. -1.
     999902    2    1    2    0    0 -0.16807416073E-01 -0.30710446584E-02 -0.20495499686E-01  0.10172469331E+01  0.10168969156E+01 0.  0.
     999903    2    3    3    0    0  0.67116459244E-01  0.10411836015E+00 -0.19270034645E-01  0.12677835585E+00  0.18872341019E-01 0.  0.
         14    1    1    2    0    0  0.16807416073E-01  0.30710446584E-02  0.20495499686E-01  0.26683066873E-01  0.00000000000E+00 0.  1.
     999901    1    3    3    0    0 -0.83923875317E-01 -0.10718940481E+00 -0.12254650408E-02  0.89046857728E+00  0.88000000000E+00 0. -1.
        -11    1    4    4    0    0  0.67932944204E-02  0.84562206243E-02 -0.72276671745E-02  0.13044416818E-01  0.51100000000E-03 0. -1.
         11    1    4    4    0    0  0.60323164823E-01  0.95662139525E-01 -0.12042367471E-01  0.11373393903E+00  0.51100000000E-03 0.  1.
</event>
<event>
 8    1  0.1111182E+005  0.1043930E+01  0.7957747E-01            NaN
         13   -1    0    0    0    0  0.00000000000E+00  0.00000000000E+00  0.74505805969E-08  0.10566000000E+00  0.10566000000E+00 0. -1.
     999900   -1    0    0    0    0 -0.00000000000E+00 -0.00000000000E+00 -0.74505805969E-08  0.93827000000E+00  0.93827000000E+00 0. -1.
     999902    2    1    2    0    0  0.16153616619E-01  0.79473013949E-02 -0.15577856014E-01  0.10201230992E+01  0.10198452671E+01 0.  0.
     999903    2    3    3    0    0  0.19896251195E-01  0.13487955550E-02 -0.12971730551E+00  0.13271937959E+00  0.19752830391E-01 0.  0.
         14    1    1    2    0    0 -0.16153616619E-01 -0.79473013949E-02  0.15577856014E-01  0.23806900835E-01  0.00000000000E+00 0. -1.
     999901    1    3    3    0    0 -0.37426345759E-02  0.65985058398E-02  0.11413944949E+00  0.88740371958E+00  0.88000000000E+00 0.  1.
        -11    1    4    4    0    0  0.36538413381E-03  0.75414571802E-02 -0.33806976623E-01  0.34643612274E-01  0.51100000000E-03 0. -1.
         11    1    4    4    0    0  0.19530867062E-01 -0.61926616252E-02 -0.95910328884E-01  0.98075767312E-01  0.51100000000E-03 0.  1.
</event>
<event>
 8    1  0.1111182E+005  0.1043930E+01  0.7957747E-01            NaN
         13   -1    0    0    0    0  0.00000000000E+00  0.00000000000E+00  0.74505805969E-08  0.10566000000E+00  0.10566000000E+00 0. -1.
     999900   -1    0    0    0    0 -0.00000000000E+00 -0.00000000000E+00 -0.74505805969E-08  0.93827000000E+00  0.93827000000E+00 0. -1.
     999902    2    1    2    0    0  0.22319937859E-01  0.12062736853E-01  0.12006539944E-03  0.10185586843E+01  0.10182426477E+01 0.  0.
     999903    2    3    3    0    0 -0.11135869443E+00 -0.49080807389E-01  0.25649615172E-01  0.12600041298E+00  0.20211799363E-01 0.  0.
         14    1    1    2    0    0 -0.22319937859E-01 -0.12062736853E-01 -0.12006539944E-03  0.25371315734E-01  0.00000000000E+00 0. -1.
     999901    1    3    3    0    0  0.13367863229E+00  0.61143544241E-01 -0.25529549773E-01  0.89255827129E+00  0.88000000000E+00 0. -1.
        -11    1    4    4    0    0 -0.65516789681E-01 -0.38855655848E-01  0.12227331398E-01  0.77149079551E-01  0.51100000000E-03 0. -1.
         11    1    4    4    0    0 -0.45841904747E-01 -0.10225151541E-01  0.13422283774E-01  0.48851333427E-01  0.51100000000E-03 0.  1.
</event>
<event>
 8    1  0.1111182E+005  0.1043930E+01  0.7957747E-01            NaN
         13   -1    0    0    0    0  0.00000000000E+00  0.00000000000E+00  0.74505805969E-08  0.10566000000E+00  0.10566000000E+00 0.  1.
     999900   -1    0    0    0    0 -0.00000000000E+00 -0.00000000000E+00 -0.74505805969E-08  0.93827000000E+00  0.93827000000E+00 0.  1.
     999902    2    1    2    0    0 -0.17160587099E-01 -0.85458662303E-02  0.13873829012E-01  0.10202656659E+01  0.10199911903E+01 0.  0.
     999903    2    3    3    0    0  0.55324514725E-01 -0.68856561684E-01  0.95374247005E-01  0.13148347200E+00  0.19739007104E-01 0.  0.
         14    1    1    2    0    0  0.17160587099E-01  0.85458662303E-02 -0.13873829012E-01  0.23664334148E-01  0.00000000000E+00 0. -1.
     999901    1    3    3    0    0 -0.72485101824E-01  0.60310695453E-01 -0.81500417993E-01  0.88878219385E+00  0.88000000000E+00 0.  1.
        -11    1    4    4    0    0  0.54880859066E-01 -0.59262261288E-01  0.83061655646E-01  0.11585950140E+00  0.51100000000E-03 0.  1.
         11    1    4    4    0    0  0.44365565941E-03 -0.95943003960E-02  0.12312591359E-01  0.15623970603E-01  0.51100000000E-03 0. -1.
</event>
<event>
 8    1  0.1111182E+005  0.1043930E+01  0.7957747E-01            NaN
         13   -1    0    0    0    0  0.00000000000E+00  0.00000000000E+00  0.74505805969E-08  0.10566000000E+00  0.10566000000E+00 0.  1.
     999900   -1    0    0    0    0 -0.00000000000E+00 -0.00000000000E+00 -0.74505805969E-08  0.93827000000E+00  0.93827000000E+00 0. -1.
     999902    2    1    2    0    0 -0.52596896781E-02  0.21566168402E-01 -0.85666473285E-02  0.10201360638E+01  0.10198585378E+01 0.  0.
     999903    2    3    3    0    0 -0.71505901927E-01 -0.55075693555E-02  0.10657830776E+00  0.12975417458E+00  0.18269723709E-01 0.  0.
         14    1    1    2    0    0  0.52596896781E-02 -0.21566168402E-01  0.85666473285E-02  0.23793936234E-01  0.00000000000E+00 0.  1.
     999901    1    3    3    0    0  0.66246212248E-01  0.27073737758E-01 -0.11514495509E+00  0.89038188919E+00  0.88000000000E+00 0. -1.
        -11    1    4    4    0    0 -0.45047618126E-01 -0.77676377463E-02  0.53275790469E-01  0.70201104451E-01  0.51100000000E-03 0. -1.
         11    1    4    4    0    0 -0.26458283800E-01  0.22600683908E-02  0.53302517292E-01  0.59553070126E-01  0.51100000000E-03 0.  1.
</event>
<event>
 8    1  0.1111182E+005  0.1043930E+01  0.7957747E-01            NaN
         13   -1    0    0    0    0  0.00000000000E+00  0.00000000000E+00  0.74505805969E-08  0.10566000000E+00  0.10566000000E+00 0. -1.
     999900   -1    0    0    0    0 -0.00000000000E+00 -0.00000000000E+00 -0.74505805969E-08  0.93827000000E+00  0.93827000000E+00 0.  1.
     999902    2    1    2    0    0  0.16042363218E-01  0.57678249359E-02  0.17015947556E-01  0.10198433296E+01  0.10195588503E+01 0.  0.
     999903    2    3    3    0    0  0.15355240020E-01  0.44750548935E-01  0.12229877029E+00  0.13271053359E+00  0.20413267349E-01 0.  0.
         14    1    1    2    0    0 -0.16042363218E-01 -0.57678249359E-02 -0.17015947556E-01  0.24086670449E-01  0.00000000000E+00 0.  1.
     999901    1    3    3    0    0  0.68712319731E-03 -0.38982723999E-01 -0.10528282274E+00  0.88713279596E+00  0.88000000000E+00 0.  1.
        -11    1    4    4    0    0 -0.46610602853E-02  0.14022812961E-01  0.38243071246E-01  0.41001931487E-01  0.51100000000E-03 0.  1.
         11    1    4    4    0    0  0.20016300306E-01  0.30727735974E-01  0.84055699048E-01  0.91708602102E-01  0.51100000000E-03 0. -1.
</event>
<event>
 8    1  0.1111182E+005  0.1043930E+01  0.7957747E-01            NaN
         13   -1    0    0    0    0  0.00000000000E+00  0.00000000000E+00  0.74505805969E-08  0.10566000000E+00  0.10566000000E+00 0. -1.
     999900   -1    0    0    0    0 -0.00000000000E+00 -0.00000000000E+00 -0.74505805969E-08  0.93827000000E+00  0.93827000000E+00 0. -1.
     999902    2    1    2    0    0 -0.10386732224E-01 -0.20648090670E-01  0.60635653397E-02  0.10200345050E+01  0.10197545767E+01 0.  0.
     999903    2    3    3    0    0 -0.10941909631E+00  0.94604104042E-02 -0.68668944633E-01  0.13082200006E+00  0.18355754976E-01 0.  0.
         14    1    1    2    0    0  0.10386732224E-01  0.20648090670E-01 -0.60635653397E-02  0.23895494957E-01  0.00000000000E+00 0.  1.
     999901    1    3    3    0    0  0.99032364083E-01 -0.30108501074E-01  0.74732509973E-01  0.88921250498E+00  0.88000000000E+00 0. -1.
        -11    1    4    4    0    0 -0.77809124182E-01 -0.14904405846E-03 -0.42422243489E-01  0.88623867461E-01  0.51100000000E-03 0. -1.
         11    1    4    4    0    0 -0.31609972126E-01  0.96094544626E-02 -0.26246701144E-01  0.42198132598E-01  0.51100000000E-03 0.  1.
</event>
<event>
 8    1  0.1111182E+005  0.1043930E+01  0.7957747E-01            NaN
         13   -1    0    0    0    0  0.00000000000E+00  0.00000000000E+00  0.74505805969E-08  0.10566000000E+00  0.10566000000E+00 0.  1.
     999900   -1    0    0    0    0 -0.00000000000E+00 -0.00000000000E+00 -0.74505805969E-08  0.93827000000E+00  0.93827000000E+00 0.  1.
     999902    2    1    2    0    0 -0.39046530036E-02  0.14719825865E-01  0.17526179431E-01  0.10207117625E+01  0.10204476545E+01 0.  0.
     999903    2    3    3    0    0  0.95215041679E-01  0.85844926600E-01  0.25808841769E-01  0.13225686979E+00  0.19761773921E-01 0.  0.
         14    1    1    2    0    0  0.39046530036E-02 -0.14719825865E-01 -0.17526179431E-01  0.23218237531E-01  0.00000000000E+00 0. -1.
     999901    1    3    3    0    0 -0.99119694683E-01 -0.71125100735E-01 -0.82826623379E-02  0.88845489268E+00  0.88000000000E+00 0.  1.
        -11    1    4    4    0    0  0.65543704573E-01  0.65254463727E-01  0.10707754887E-01  0.93107676274E-01  0.51100000000E-03 0. -1.
         11    1    4    4    0    0  0.29671337106E-01  0.20590462873E-01  0.15101086883E-01  0.39149193517E-01  0.51100000000E-03 0.  1.
</event>
<event>
 8    1  0.1111182E+005  0.1043930E+01  0.7957747E-01            NaN
         13   -1    0    0    0    0  0.00000000000E+00  0.00000000000E+00  0.74505805969E-08  0.10566000000E+00  0.10566000000E+00 0.  1.
     999900   -1    0    0    0    0 -0.00000000000E+00 -0.00000000000E+00 -0.74505805969E-08  0.93827000000E+00  0.93827000000E+00 0.  1.
     999902    2    1    2    0    0  0.17259482840E-01  0.14709580866E-01  0.59645612589E-02  0.10204813858E+01  0.10202119492E+01 0.  0.
     999903    2    3    3    0    0  0.11077408683E-01  0.35449815477E-01 -0.12359992874E+00  0.13073123410E+00  0.20840220381E-01 0.  0.
         14    1    1    2    0    0 -0.17259482840E-01 -0.14709580866E-01 -0.59645612589E-02  0.23448614205E-01  0.00000000000E+00 0.  1.
     999901    1    3    3    0    0  0.61820741569E-02 -0.20740234611E-01  0.12956448999E+00  0.88975015169E+00  0.88000000000E+00 0. -1.
        -11    1    4    4    0    0 -0.21931319385E-02  0.12046407782E-01 -0.18134765225E-01  0.21887361625E-01  0.51100000000E-03 0.  1.
         11    1    4    4    0    0  0.13270540621E-01  0.23403407695E-01 -0.10546516351E+00  0.10884387248E+00  0.51100000000E-03 0. -1.
</event>
<event>
 8    1  0.1111182E+005  0.1043930E+01  0.7957747E-01            NaN
         13   -1    0    0    0    0  0.00000000000E+00  0.00000000000E+00  0.74505805969E-08  0.10566000000E+00  0.10566000000E+00 0.  1.
     999900   -1    0    0    0    0 -0.00000000000E+00 -0.00000000000E+00 -0.74505805969E-08  0.93827000000E+00  0.93827000000E+00 0.  1.
     999902    2    1    2    0    0 -0.14093892853E-01 -0.50642184834E-02 -0.18491893867E-01  0.10201343226E+01  0.10198567556E+01 0.  0.
     999903    2    3    3    0    0 -0.86794625072E-01  0.96307596912E-01 -0.95989044449E-03  0.13116356235E+00  0.19861987153E-01 0.  0.
         14    1    1    2    0    0  0.14093892853E-01  0.50642184834E-02  0.18491893867E-01  0.23795677410E-01  0.00000000000E+00 0.  1.
     999901    1    3    3    0    0  0.72700732219E-01 -0.10137181540E+00 -0.17532003423E-01  0.88897076024E+00  0.88000000000E+00 0.  1.
        -11    1    4    4    0    0 -0.40830355535E-01  0.30901547245E-01  0.35501031633E-03  0.51209478699E-01  0.51100000000E-03 0.  1.
         11    1    4    4    0    0 -0.45964269537E-01  0.65406049667E-01 -0.13149007608E-02  0.79954083649E-01  0.51100000000E-03 0. -1.
</event>
<event>
 8    1  0.1211375E+005  0.1043930E+01  0.7957747E-01            NaN
         13   -1    0    0    0    0  0.00000000000E+00  0.00000000000E+00  0.74505805969E-08  0.10566000000E+00  0.10566000000E+00 0. -1.
     999900   -1    0    0    0    0 -0.00000000000E+00 -0.00000000000E+00 -0.74505805969E-08  0.93827000000E+00  0.93827000000E+00 0.  1.
     999902    2    1    2    0    0  0.19685695054E-01 -0.80156983815E-02  0.11016288330E-01  0.10199897281E+01  0.10197087372E+01 0.  0.
     999903    2    3    3    0    0 -0.11378697257E-01  0.11513559685E+00 -0.52511846292E-01  0.12860481580E+00  0.19900357590E-01 0.  0.
         14    1    1    2    0    0 -0.19685695054E-01  0.80156983815E-02 -0.11016288330E-01  0.23940271905E-01  0.00000000000E+00 0. -1.
     999901    1    3    3    0    0  0.31064392311E-01 -0.12315129523E+00  0.63528134622E-01  0.89138491230E+00  0.88000000000E+00 0.  1.
        -11    1    4    4    0    0 -0.59285330431E-02  0.37883863039E-01 -0.76495330661E-02  0.39103849682E-01  0.51100000000E-03 0.  1.
         11    1    4    4    0    0 -0.54501642135E-02  0.77251733808E-01 -0.44862313226E-01  0.89500966114E-01  0.51100000000E-03 0. -1.
</event>
<event>
 8    1  0.1111182E+005  0.1043930E+01  0.7957747E-01            NaN
         13   -1    0    0    0    0  0.00000000000E+00  0.00000000000E+00  0.74505805969E-08  0.10566000000E+00  0.10566000000E+00 0.  1.
     999900   -1    0    0    0    0 -0.00000000000E+00 -0.00000000000E+00 -0.74505805969E-08  0.93827000000E+00  0.93827000000E+00 0.  1.
     999902    2    1    2    0    0 -0.69298855042E-03  0.20017610109E-01 -0.12582945852E-01  0.10202759206E+01  0.10200016856E+01 0.  0.
     999903    2    3    3    0    0  0.12111226701E+00  0.45481919016E-01 -0.12337811587E-01  0.13152116733E+00  0.20219042569E-01 0.  0.
         14    1    1    2    0    0  0.69298855042E-03 -0.20017610109E-01  0.12582945852E-01  0.23654079435E-01  0.00000000000E+00 0. -1.
     999901    1    3    3    0    0 -0.12180525556E+00 -0.25464308907E-01 -0.24513426544E-03  0.88875475324E+00  0.88000000000E+00 0. -1.
        -11    1    4    4    0    0  0.52919738033E-01  0.20494561305E-01  0.46194645577E-02  0.56939672377E-01  0.51100000000E-03 0. -1.
         11    1    4    4    0    0  0.68192528978E-01  0.24987357711E-01 -0.16957276144E-01  0.74581494951E-01  0.51100000000E-03 0.  1.
</event>
<event>
 8    1  0.1111182E+005  0.1043930E+01  0.7957747E-01            NaN
         13   -1    0    0    0    0  0.00000000000E+00  0.00000000000E+00  0.74505805969E-08  0.10566000000E+00  0.10566000000E+00 0. -1.
     999900   -1    0    0    0    0 -0.00000000000E+00 -0.00000000000E+00 -0.74505805969E-08  0.93827000000E+00  0.93827000000E+00 0.  1.
     999902    2    1    2    0    0 -0.21274526400E-01 -0.92241160676E-02  0.57911417167E-02  0.10200296420E+01  0.10197495984E+01 0.  0.
     999903    2    3    3    0    0  0.59908959158E-01 -0.58457854416E-01  0.97647298301E-01  0.13016882544E+00  0.20063003791E-01 0.  0.
         14    1    1    2    0    0  0.21274526400E-01  0.92241160676E-02 -0.57911417167E-02  0.23900358013E-01  0.00000000000E+00 0. -1.
     999901    1    3    3    0    0 -0.81183485558E-01  0.49233738348E-01 -0.91856156584E-01  0.88986081654E+00  0.88000000000E+00 0.  1.
        -11    1    4    4    0    0  0.20817946552E-01 -0.12630681683E-01  0.17887820359E-01  0.30218475419E-01  0.51100000000E-03 0.  1.
         11    1    4    4    0    0  0.39091012606E-01 -0.45827172733E-01  0.79759477942E-01  0.99950350023E-01  0.51100000000E-03 0. -1.
</event>
<event>
 7    1  0.1890407E+005  0.1043930E+01  0.7957747E-01            NaN
         13   -1    0    0    0    0  0.00000000000E+00  0.00000000000E+00  0.74505805969E-08  0.10566000000E+00  0.10566000000E+00 0.  1.
     999900   -1    0    0    0    0 -0.00000000000E+00 -0.00000000000E+00 -0.74505805969E-08  0.93827000000E+00  0.93827000000E+00 0. -1.
     999903    2    1    2    0    0 -0.80038397199E-01  0.56133313664E-01  0.26489049544E-01  0.10356861051E+00  0.21626220393E-01 0.  0.
         14    1    1    2    0    0  0.57827776130E-02  0.50121592905E-01  0.47458557159E-03  0.50456315995E-01  0.00000000000E+00 0.  1.
     999901    1    1    2    0    0  0.74255619586E-01 -0.10625490657E+00 -0.26963635116E-01  0.88990507349E+00  0.88000000000E+00 0. -1.
        -11    1    3    3    0    0 -0.38639763019E-01  0.34272075018E-01  0.23234360413E-01  0.56636587441E-01  0.51100000000E-03 0.  1.
         11    1    3    3    0    0 -0.41398634181E-01  0.21861238646E-01  0.32546891311E-02  0.46932023071E-01  0.51100000000E-03 0. -1.
</event>
<event>
 8    1  0.1111182E+005  0.1043930E+01  0.7957747E-01            NaN
         13   -1    0    0    0    0  0.00000000000E+00  0.00000000000E+00  0.74505805969E-08  0.10566000000E+00  0.10566000000E+00 0.  1.
     999900   -1    0    0    0    0 -0.00000000000E+00 -0.00000000000E+00 -0.74505805969E-08  0.93827000000E+00  0.93827000000E+00 0.  1.
     999902    2    1    2    0    0 -0.59718388080E-02 -0.21266938574E-01  0.98476893674E-02  0.10197448285E+01  0.10194579897E+01 0.  0.
     999903    2    3    3    0    0 -0.21765628880E-01  0.12256969102E+00  0.19946357220E-01  0.12787017199E+00  0.21350689956E-01 0.  0.
         14    1    1    2    0    0  0.59718388080E-02  0.21266938574E-01 -0.98476893674E-02  0.24185171509E-01  0.00000000000E+00 0. -1.
     999901    1    3    3    0    0  0.15793790072E-01 -0.14383662959E+00 -0.10098667852E-01  0.89187465650E+00  0.88000000000E+00 0.  1.
        -11    1    4    4    0    0 -0.25194784775E-01  0.88833720977E-01  0.12952709916E-01  0.93242913820E-01  0.51100000000E-03 0. -1.
         11    1    4    4    0    0  0.34291558949E-02  0.33735970040E-01  0.69936473038E-02  0.34627258169E-01  0.51100000000E-03 0.  1.
</event>
<event>
 8    1  0.1111182E+005  0.1043930E+01  0.7957747E-01            NaN
         13   -1    0    0    0    0  0.00000000000E+00  0.00000000000E+00  0.74505805969E-08  0.10566000000E+00  0.10566000000E+00 0.  1.
     999900   -1    0    0    0    0 -0.00000000000E+00 -0.00000000000E+00 -0.74505805969E-08  0.93827000000E+00  0.93827000000E+00 0.  1.
     999902    2    1    2    0    0 -0.13637613737E-01  0.16132556904E-01  0.84941068405E-02  0.10211617381E+01  0.10209078810E+01 0.  0.
     999903    2    3    3    0    0 -0.86112125483E-01  0.80427906072E-01  0.61881218344E-01  0.13423635763E+00  0.17497665438E-01 0.  0.
         14    1    1    2    0    0  0.13637613737E-01 -0.16132556904E-01 -0.84941068405E-02  0.22768261939E-01  0.00000000000E+00 0. -1.
     999901    1    3    3    0    0  0.72474511746E-01 -0.64295349168E-01 -0.53387111504E-01  0.88692538043E+00  0.88000000000E+00 0.  1.
        -11    1    4    4    0    0 -0.77291019592E-01  0.78313681770E-01  0.57460517653E-01  0.12413261728E+00  0.51100000000E-03 0. -1.
         11    1    4    4    0    0 -0.88211058912E-02  0.21142243023E-02  0.44207006917E-02  0.10103740354E-01  0.51100000000E-03 0.  1.
</event>
<event>
 8    1  0.1111182E+005  0.1043930E+01  0.7957747E-01            NaN
         13   -1    0    0    0    0  0.00000000000E+00  0.00000000000E+00  0.74505805969E-08  0.10566000000E+00  0.10566000000E+00 0. -1.
     999900   -1    0    0    0    0 -0.00000000000E+00 -0.00000000000E+00 -0.74505805969E-08  0.93827000000E+00  0.93827000000E+00 0.  1.
     999902    2    1    2    0    0  0.41509976179E-02  0.12068306333E-01 -0.21994081448E-01  0.10185013858E+01  0.10181839021E+01 0.  0.
     999903    2    3    3    0    0  0.11555466481E+00  0.38346099212E-01 -0.43416205849E-01  0.13083015905E+00  0.20205437463E-01 0.  0.
         14    1    1    2    0    0 -0.41509976179E-02 -0.12068306333E-01  0.21994081448E-01  0.25428614153E-01  0.00000000000E+00 0. -1.
     999901    1    3    3    0    0 -0.11140366719E+00 -0.26277792879E-01  0.21422124401E-01  0.88767122679E+00  0.88000000000E+00 0.  1.
        -11    1    4    4    0    0  0.56741802764E-01  0.12639726250E-01 -0.11972985271E-01  0.59354935413E-01  0.51100000000E-03 0. -1.
         11    1    4    4    0    0  0.58812862048E-01  0.25706372962E-01 -0.31443220578E-01  0.71475223641E-01  0.51100000000E-03 0.  1.
</event>
<event>
 8    1  0.1111182E+005  0.1043930E+01  0.7957747E-01            NaN
         13   -1    0    0    0    0  0.00000000000E+00  0.00000000000E+00  0.74505805969E-08  0.10566000000E+00  0.10566000000E+00 0.  1.
     999900   -1    0    0    0    0 -0.00000000000E+00 -0.00000000000E+00 -0.74505805969E-08  0.93827000000E+00  0.93827000000E+00 0.  1.
     999902    2    1    2    0    0  0.39644934463E-02  0.23770342855E-01  0.25609675176E-02  0.10196956244E+01  0.10194076032E+01 0.  0.
     999903    2    3    3    0    0 -0.11248278561E+00  0.52726950069E-01  0.35875763416E-01  0.13092775280E+00  0.20554749603E-01 0.  0.
         14    1    1    2    0    0 -0.39644934463E-02 -0.23770342855E-01 -0.25609675176E-02  0.24234375633E-01  0.00000000000E+00 0. -1.
     999901    1    3    3    0    0  0.11644727905E+00 -0.28956607215E-01 -0.33314795898E-01  0.88876787157E+00  0.88000000000E+00 0.  1.
        -11    1    4    4    0    0 -0.99082602202E-01  0.47796983435E-01  0.24599952680E-01  0.11272680461E+00  0.51100000000E-03 0.  1.
         11    1    4    4    0    0 -0.13400183406E-01  0.49299666338E-02  0.11275810736E-01  0.18200948192E-01  0.51100000000E-03 0. -1.
</event>
<event>
 8    1  0.1111182E+005  0.1043930E+01  0.7957747E-01            NaN
         13   -1    0    0    0    0  0.00000000000E+00  0.00000000000E+00  0.74505805969E-08  0.10566000000E+00  0.10566000000E+00 0. -1.
     999900   -1    0    0    0    0 -0.00000000000E+00 -0.00000000000E+00 -0.74505805969E-08  0.93827000000E+00  0.93827000000E+00 0. -1.
     999902    2    1    2    0    0 -0.15229862629E-01 -0.15049074040E-01 -0.11425963130E-01  0.10196611727E+01  0.10193723221E+01 0.  0.
     999903    2    3    3    0    0 -0.16009162314E-01 -0.12549518209E+00  0.30817778804E-01  0.13175155803E+00  0.20084908405E-01 0.  0.
         14    1    1    2    0    0  0.15229862629E-01  0.15049074040E-01  0.11425963130E-01  0.24268827302E-01  0.00000000000E+00 0.  1.
     999901    1    3    3    0    0  0.77929968508E-03  0.11044610805E+00 -0.42243741934E-01  0.88790961467E+00  0.88000000000E+00 0. -1.
        -11    1    4    4    0    0  0.24574985058E-02 -0.36588508426E-01  0.14778773331E-01  0.39540251768E-01  0.51100000000E-03 0.  1.
         11    1    4    4    0    0 -0.18466660820E-01 -0.88906673667E-01  0.16039005472E-01  0.92211306259E-01  0.51100000000E-03 0. -1.
</event>
<event>
 8    1  0.1111182E+005  0.1043930E+01  0.7957747E-01            NaN
         13   -1    0    0    0    0  0.00000000000E+00  0.00000000000E+00  0.74505805969E-08  0.10566000000E+00  0.10566000000E+00 0. -1.
     999900   -1    0    0    0    0 -0.00000000000E+00 -0.00000000000E+00 -0.74505805969E-08  0.93827000000E+00  0.93827000000E+00 0.  1.
     999902    2    1    2    0    0 -0.19480103507E-01  0.12419355570E-01 -0.21143604046E-02  0.10207311779E+01  0.10204675165E+01 0.  0.
     999903    2    3    3    0    0  0.10162247487E+00 -0.52916595992E-01 -0.54626137860E-01  0.12849123945E+00  0.19967226817E-01 0.  0.
         14    1    1    2    0    0  0.19480103507E-01 -0.12419355570E-01  0.21143604046E-02  0.23198822068E-01  0.00000000000E+00 0. -1.
     999901    1    3    3    0    0 -0.12110257838E+00  0.65335951562E-01  0.52511777455E-01  0.89223993849E+00  0.88000000000E+00 0. -1.
        -11    1    4    4    0    0  0.73365813072E-01 -0.47263317942E-01 -0.37705095302E-01  0.95069969409E-01  0.51100000000E-03 0.  1.
         11    1    4    4    0    0  0.28256661799E-01 -0.56532780506E-02 -0.16921042557E-01  0.33421270038E-01  0.51100000000E-03 0. -1.
</event>
<event>
 8    1  0.1111182E+005  0.1043930E+01  0.7957747E-01            NaN
         13   -1    0    0    0    0  0.00000000000E+00  0.00000000000E+00  0.74505805969E-08  0.10566000000E+00  0.10566000000E+00 0.  1.
     999900   -1    0    0    0    0 -0.00000000000E+00 -0.00000000000E+00 -0.74505805969E-08  0.93827000000E+00  0.93827000000E+00 0.  1.
     999902    2    1    2    0    0  0.17322711962E-01 -0.71325756757E-02 -0.10585956950E-01  0.10224122754E+01  0.10221858190E+01 0.  0.
     999903    2    3    3    0    0 -0.20200370127E-01  0.12254061035E+00  0.36049866845E-01  0.13089782412E+00  0.20258117394E-01 0.  0.
         14    1    1    2    0    0 -0.17322711962E-01  0.71325756757E-02  0.10585956950E-01  0.21517724555E-01  0.00000000000E+00 0. -1.
     999901    1    3    3    0    0  0.37523082089E-01 -0.12967318603E+00 -0.46635823795E-01  0.89151445133E+00  0.88000000000E+00 0.  1.
        -11    1    4    4    0    0  0.34580128682E-02  0.30826106036E-01  0.67270795573E-02  0.31744627683E-01  0.51100000000E-03 0. -1.
         11    1    4    4    0    0 -0.23658382995E-01  0.91714504316E-01  0.29322787288E-01  0.99153196435E-01  0.51100000000E-03 0.  1.
</event>
<event>
 8    1  0.1111182E+005  0.1043930E+01  0.7957747E-01            NaN
         13   -1    0    0    0    0  0.00000000000E+00  0.00000000000E+00  0.74505805969E-08  0.10566000000E+00  0.10566000000E+00 0. -1.
     999900   -1    0    0    0    0 -0.00000000000E+00 -0.00000000000E+00 -0.74505805969E-08  0.93827000000E+00  0.93827000000E+00 0.  1.
     999902    2    1    2    0    0 -0.79229740140E-02 -0.13731628722E-01  0.17494934949E-01  0.10203205974E+01  0.10200474094E+01 0.  0.
     999903    2    3    3    0    0 -0.68528304258E-01 -0.71276687654E-01  0.87292736996E-01  0.13360972394E+00  0.21331706697E-01 0.  0.
         14    1    1    2    0    0  0.79229740140E-02  0.13731628722E-01 -0.17494934949E-01  0.23609402649E-01  0.00000000000E+00 0.  1.
     999901    1    3    3    0    0  0.60605330244E-01  0.57545058932E-01 -0.69797802047E-01  0.88671087341E+00  0.88000000000E+00 0.  1.
        -11    1    4    4    0    0 -0.41600252213E-01 -0.46851478261E-01  0.67938333130E-01  0.92420345319E-01  0.51100000000E-03 0.  1.
         11    1    4    4    0    0 -0.26928052045E-01 -0.24425209393E-01  0.19354403866E-01  0.41189378616E-01  0.51100000000E-03 0. -1.
</event>
<event>
 8    1  0.1111182E+005  0.1043930E+01  0.7957747E-01            NaN
         13   -1    0    0    0    0  0.00000000000E+00  0.00000000000E+00  0.74505805969E-08  0.10566000000E+00  0.10566000000E+00 0.  1.
     999900   -1    0    0    0    0 -0.00000000000E+00 -0.00000000000E+00 -0.74505805969E-08  0.93827000000E+00  0.93827000000E+00 0. -1.
     999902    2    1    2    0    0 -0.22481785245E-01  0.11152957176E-02  0.35287527591E-02  0.10211456490E+01  0.10208914291E+01 0.  0.
     999903    2    3    3    0    0  0.78624775655E-01 -0.10003922260E+00 -0.11750448571E-01  0.12946845004E+00  0.20839988241E-01 0.  0.
         14    1    1    2    0    0  0.22481785245E-01 -0.11152957176E-02 -0.35287527591E-02  0.22784350954E-01  0.00000000000E+00 0. -1.
     999901    1    3    3    0    0 -0.10110656090E+00  0.10115451831E+00  0.15279201331E-01  0.89167719901E+00  0.88000000000E+00 0.  1.
        -11    1    4    4    0    0  0.49985859435E-01 -0.71780845997E-01 -0.16292465244E-01  0.88976297631E-01  0.51100000000E-03 0. -1.
         11    1    4    4    0    0  0.28638916220E-01 -0.28258376599E-01  0.45420166723E-02  0.40492152409E-01  0.51100000000E-03 0.  1.
</event>
<event>
 8    1  0.1111182E+005  0.1043930E+01  0.7957747E-01            NaN
         13   -1    0    0    0    0  0.00000000000E+00  0.00000000000E+00  0.74505805969E-08  0.10566000000E+00  0.10566000000E+00 0.  1.
     999900   -1    0    0    0    0 -0.00000000000E+00 -0.00000000000E+00 -0.74505805969E-08  0.93827000000E+00  0.93827000000E+00 0.  1.
     999902    2    1    2    0    0 -0.39244943820E-02 -0.19043016712E-01  0.13689507137E-01  0.10201510020E+01  0.10198738285E+01 0.  0.
     999903    2    3    3    0    0  0.27586302363E-01  0.30959005148E-01 -0.11955939552E+00  0.12815974497E+00  0.20273309933E-01 0.  0.
         14    1    1    2    0    0  0.39244943820E-02  0.19043016712E-01 -0.13689507137E-01  0.23778998030E-01  0.00000000000E+00 0. -1.
     999901    1    3    3    0    0 -0.31510796745E-01 -0.50002021860E-01  0.13324890266E+00  0.89199125700E+00  0.88000000000E+00 0. -1.
        -11    1    4    4    0    0  0.96383535690E-02 -0.49506056978E-03 -0.31300338738E-01  0.32758438159E-01  0.51100000000E-03 0.  1.
         11    1    4    4    0    0  0.17947948794E-01  0.31454065718E-01 -0.88259056785E-01  0.95401306813E-01  0.51100000000E-03 0. -1.
</event>
<event>
 8    1  0.1111182E+005  0.1043930E+01  0.7957747E-01            NaN
         13   -1    0    0    0    0  0.00000000000E+00  0.00000000000E+00  0.74505805969E-08  0.10566000000E+00  0.10566000000E+00 0.  1.
     999900   -1    0    0    0    0 -0.00000000000E+00 -0.00000000000E+00 -0.74505805969E-08  0.93827000000E+00  0.93827000000E+00 0. -1.
     999902    2    1    2    0    0 -0.41569720028E-02 -0.74518924274E-02 -0.21531002526E-01  0.10207697930E+01  0.10205070187E+01 0.  0.
     999903    2    3    3    0    0 -0.74163281742E-01  0.14736780989E-01  0.10217380788E+00  0.12908817903E+00  0.22514570324E-01 0.  0.
         14    1    1    2    0    0  0.41569720028E-02  0.74518924274E-02  0.21531002526E-01  0.23160206967E-01  0.00000000000E+00 0.  1.
     999901    1    3    3    0    0  0.70006309739E-01 -0.22188673417E-01 -0.12370481040E+00  0.89168161400E+00  0.88000000000E+00 0. -1.
        -11    1    4    4    0    0 -0.62342746614E-01  0.91960977399E-02  0.95496504336E-01  0.11441603791E+00  0.51100000000E-03 0. -1.
         11    1    4    4    0    0 -0.11820535128E-01  0.55406832494E-02  0.66773035409E-02  0.14672141124E-01  0.51100000000E-03 0.  1.
</event>
<event>
 8    1  0.1111182E+005  0.1043930E+01  0.7957747E-01            NaN
         13   -1    0    0    0    0  0.00000000000E+00  0.00000000000E+00  0.74505805969E-08  0.10566000000E+00  0.10566000000E+00 0. -1.
     999900   -1    0    0    0    0 -0.00000000000E+00 -0.00000000000E+00 -0.74505805969E-08  0.93827000000E+00  0.93827000000E+00 0. -1.
     999902    2    1    2    0    0 -0.19386512503E-01  0.24810957007E-02 -0.14638917267E-01  0.10195109377E+01  0.10192184563E+01 0.  0.
     999903    2    3    3    0    0  0.10328137993E+00 -0.56282306377E-01  0.42826852170E-01  0.12720893510E+00  0.22654634215E-01 0.  0.
         14    1    1    2    0    0  0.19386512503E-01 -0.24810957007E-02  0.14638917267E-01  0.24419062260E-01  0.00000000000E+00 0.  1.
     999901    1    3    3    0    0 -0.12266789243E+00  0.58763402078E-01 -0.57465769437E-01  0.89230200264E+00  0.88000000000E+00 0. -1.
        -11    1    4    4    0    0  0.61147164162E-01 -0.31078858341E-01  0.36508260087E-01  0.77704474108E-01  0.51100000000E-03 0. -1.
         11    1    4    4    0    0  0.42134215767E-01 -0.25203448037E-01  0.63185920824E-02  0.49504460993E-01  0.51100000000E-03 0.  1.
</event>
<event>
 8    1  0.1111182E+005  0.1043930E+01  0.7957747E-01            NaN
         13   -1    0    0    0    0  0.00000000000E+00  0.00000000000E+00  0.74505805969E-08  0.10566000000E+00  0.10566000000E+00 0. -1.
     999900   -1    0    0    0    0 -0.00000000000E+00 -0.00000000000E+00 -0.74505805969E-08  0.93827000000E+00  0.93827000000E+00 0.  1.
     999902    2    1    2    0    0  0.21138081734E-01 -0.10164381307E-01  0.43895861699E-04  0.10204750416E+01  0.10202054575E+01 0.  0.
     999903    2    3    3    0    0 -0.71736929758E-01  0.89574410584E-01  0.53884157542E-01  0.12835825096E+00  0.20064297444E-01 0.  0.
         14    1    1    2    0    0 -0.21138081734E-01  0.10164381307E-01 -0.43895861699E-04  0.23454958402E-01  0.00000000000E+00 0. -1.
     999901    1    3    3    0    0  0.92875011493E-01 -0.99738791891E-01 -0.53840261681E-01  0.89211679064E+00  0.88000000000E+00 0. -1.
        -11    1    4    4    0    0 -0.52870875003E-01  0.61879828444E-01  0.47509226018E-01  0.94243462743E-01  0.51100000000E-03 0. -1.
         11    1    4    4    0    0 -0.18866054755E-01  0.27694582140E-01  0.63749315239E-02  0.34114788214E-01  0.51100000000E-03 0.  1.
</event>
<event>
 8    1  0.1111182E+005  0.1043930E+01  0.7957747E-01            NaN
         13   -1    0    0    0    0  0.00000000000E+00  0.00000000000E+00  0.74505805969E-08  0.10566000000E+00  0.10566000000E+00 0. -1.
     999900   -1    0    0    0    0 -0.00000000000E+00 -0.00000000000E+00 -0.74505805969E-08  0.93827000000E+00  0.93827000000E+00 0.  1.
     999902    2    1    2    0    0  0.14223782005E-01  0.81480716819E-02  0.16931205877E-01  0.10203636516E+01  0.10200914707E+01 0.  0.
     999903    2    3    3    0    0 -0.91914972718E-01  0.84051342882E-01 -0.28726700778E-01  0.12957109081E+00  0.21223896586E-01 0.  0.
         14    1    1    2    0    0 -0.14223782005E-01 -0.81480716819E-02 -0.16931205877E-01  0.23566348447E-01  0.00000000000E+00 0.  1.
     999901    1    3    3    0    0  0.10613875472E+00 -0.75903271200E-01  0.45657906655E-01  0.89079256074E+00  0.88000000000E+00 0. -1.
        -11    1    4    4    0    0 -0.48462793160E-01  0.57582351603E-01 -0.13546905708E-01  0.76473193423E-01  0.51100000000E-03 0. -1.
         11    1    4    4    0    0 -0.43452179558E-01  0.26468991279E-01 -0.15179795069E-01  0.53097897388E-01  0.51100000000E-03 0.  1.
</event>
<event>
 8    1  0.1111182E+005  0.1043930E+01  0.7957747E-01            NaN
         13   -1    0    0    0    0  0.00000000000E+00  0.00000000000E+00  0.74505805969E-08  0.10566000000E+00  0.10566000000E+00 0. -1.
     999900   -1    0    0    0    0 -0.00000000000E+00 -0.00000000000E+00 -0.74505805969E-08  0.93827000000E+00  0.93827000000E+00 0.  1.
     999902    2    1    2    0    0  0.37647273315E-02  0.65440353468E-03  0.22934487417E-01  0.10206793628E+01  0.10204145087E+01 0.  0.
     999903    2    3    3    0    0  0.10179128247E+00  0.70653567116E-01 -0.35885835028E-01  0.13052829770E+00  0.19911092683E-01 0.  0.
         14    1    1    2    0    0 -0.37647273315E-02 -0.65440353468E-03 -0.22934487417E-01  0.23250637173E-01  0.00000000000E+00 0.  1.
     999901    1    3    3    0    0 -0.98026555138E-01 -0.69999163582E-01  0.58820322445E-01  0.89015106513E+00  0.88000000000E+00 0. -1.
        -11    1    4    4    0    0  0.51103814312E-01  0.23724462769E-01 -0.13872595609E-01  0.58027234992E-01  0.51100000000E-03 0. -1.
         11    1    4    4    0    0  0.50687468157E-01  0.46929104348E-01 -0.22013239419E-01  0.72501062708E-01  0.51100000000E-03 0.  1.
</event>
<event>
 8    1  0.1111182E+005  0.1043930E+01  0.7957747E-01            NaN
         13   -1    0    0    0    0  0.00000000000E+00  0.00000000000E+00  0.74505805969E-08  0.10566000000E+00  0.10566000000E+00 0.  1.
     999900   -1    0    0    0    0 -0.00000000000E+00 -0.00000000000E+00 -0.74505805969E-08  0.93827000000E+00  0.93827000000E+00 0.  1.
     999902    2    1    2    0    0 -0.20315627273E-02  0.15083015232E-01 -0.18100284842E-01  0.10202816405E+01  0.10200075397E+01 0.  0.
     999903    2    3    3    0    0 -0.37362726712E-01 -0.76105459194E-01  0.93444060310E-01  0.12786594703E+00  0.20733878958E-01 0.  0.
         14    1    1    2    0    0  0.20315627273E-02 -0.15083015232E-01  0.18100284842E-01  0.23648359498E-01  0.00000000000E+00 0.  1.
     999901    1    3    3    0    0  0.35331163985E-01  0.91188474426E-01 -0.11154434515E+00  0.89241569347E+00  0.88000000000E+00 0.  1.
        -11    1    4    4    0    0 -0.18163171354E-01 -0.54282535634E-01  0.70616602424E-01  0.90903575988E-01  0.51100000000E-03 0. -1.
         11    1    4    4    0    0 -0.19199555358E-01 -0.21822923559E-01  0.22827457886E-01  0.36962371044E-01  0.51100000000E-03 0.  1.
</event>
<event>
 8    1  0.1111182E+005  0.1043930E+01  0.7957747E-01            NaN
         13   -1    0    0    0    0  0.00000000000E+00  0.00000000000E+00  0.74505805969E-08  0.10566000000E+00  0.10566000000E+00 0.  1.
     999900   -1    0    0    0    0 -0.00000000000E+00 -0.00000000000E+00 -0.74505805969E-08  0.93827000000E+00  0.93827000000E+00 0.  1.
     999902    2    1    2    0    0 -0.22123215411E-01 -0.30657493211E-02  0.92851257146E-02  0.10197422130E+01  0.10194553114E+01 0.  0.
     999903    2    3    3    0    0  0.33227310590E-01 -0.98187389977E-01  0.75935019456E-01  0.13038625753E+00  0.22127612899E-01 0.  0.
         14    1    1    2    0    0  0.22123215411E-01  0.30657493211E-02 -0.92851257146E-02  0.24187786971E-01  0.00000000000E+00 0.  1.
     999901    1    3    3    0    0 -0.55350526002E-01  0.95121640656E-01 -0.66649893742E-01  0.88935595550E+00  0.88000000000E+00 0.  1.
        -11    1    4    4    0    0  0.34069031665E-01 -0.71696935778E-01  0.59373061085E-01  0.99129062450E-01  0.51100000000E-03 0.  1.
         11    1    4    4    0    0 -0.84172107472E-03 -0.26490454199E-01  0.16561958371E-01  0.31257195078E-01  0.51100000000E-03 0. -1.
</event>
<event>
 8    1  0.1111182E+005  0.1043930E+01  0.7957747E-01            NaN
         13   -1    0    0    0    0  0.00000000000E+00  0.00000000000E+00  0.74505805969E-08  0.10566000000E+00  0.10566000000E+00 0. -1.
     999900   -1    0    0    0    0 -0.00000000000E+00 -0.00000000000E+00 -0.74505805969E-08  0.93827000000E+00  0.93827000000E+00 0.  1.
     999902    2    1    2    0    0 -0.48482584745E-03 -0.29874316690E-02  0.21898674622E-01  0.10218231740E+01  0.10215840089E+01 0.  0.
     999903    2    3    3    0    0 -0.69273301985E-01  0.62973726328E-01  0.93439833824E-01  0.13379115531E+00  0.20114425651E-01 0.  0.
         14    1    1    2    0    0  0.48482584745E-03  0.29874316690E-02 -0.21898674622E-01  0.22106825966E-01  0.00000000000E+00 0.  1.
     999901    1    3    3    0    0  0.68788476138E-01 -0.65961157997E-01 -0.71541159201E-01  0.88803201872E+00  0.88000000000E+00 0.  1.
        -11    1    4    4    0    0 -0.61125495062E-01  0.59718479150E-01  0.76449187252E-01  0.11466194770E+00  0.51100000000E-03 0.  1.
         11    1    4    4    0    0 -0.81478069231E-02  0.32552471786E-02  0.16990646572E-01  0.19129207610E-01  0.51100000000E-03 0. -1.
</event>
<event>
 8    1  0.1111182E+005  0.1043930E+01  0.7957747E-01            NaN
         13   -1    0    0    0    0  0.00000000000E+00  0.00000000000E+00  0.74505805969E-08  0.10566000000E+00  0.10566000000E+00 0. -1.
     999900   -1    0    0    0    0 -0.00000000000E+00 -0.00000000000E+00 -0.74505805969E-08  0.93827000000E+00  0.93827000000E+00 0.  1.
     999902    2    1    2    0    0  0.15116183713E-01  0.16750068214E-01 -0.77029764176E-02  0.10200888666E+01  0.10198102256E+01 0.  0.
     999903    2    3    3    0    0  0.75879374270E-01 -0.27052754565E-01  0.10041657834E+00  0.13031322595E+00  0.20211795641E-01 0.  0.
         14    1    1    2    0    0 -0.15116183713E-01 -0.16750068214E-01  0.77029764176E-02  0.23841133381E-01  0.00000000000E+00 0. -1.
     999901    1    3    3    0    0 -0.60763190557E-01  0.43802822778E-01 -0.10811955475E+00  0.88977564067E+00  0.88000000000E+00 0.  1.
        -11    1    4    4    0    0  0.49554373864E-02  0.31343807423E-02  0.56851188477E-02  0.81830556421E-02  0.51100000000E-03 0.  1.
         11    1    4    4    0    0  0.70923936884E-01 -0.30187135307E-01  0.94731459489E-01  0.12213017031E+00  0.51100000000E-03 0. -1.
</event>
<event>
 8    1  0.1111182E+005  0.1043930E+01  0.7957747E-01            NaN
         13   -1    0    0    0    0  0.00000000000E+00  0.00000000000E+00  0.74505805969E-08  0.10566000000E+00  0.10566000000E+00 0.  1.
     999900   -1    0    0    0    0 -0.00000000000E+00 -0.00000000000E+00 -0.74505805969E-08  0.93827000000E+00  0.93827000000E+00 0. -1.
     999902    2    1    2    0    0  0.15986705453E-01 -0.16050159185E-01 -0.64380540068E-02  0.10203793970E+01  0.10201075840E+01 0.  0.
     999903    2    3    3    0    0 -0.76856313450E-02  0.12681798035E+00  0.29422634232E-02  0.12849393623E+00  0.18978031123E-01 0.  0.
         14    1    1    2    0    0 -0.15986705453E-01  0.16050159185E-01  0.64380540068E-02  0.23550602975E-01  0.00000000000E+00 0.  1.
     999901    1    3    3    0    0  0.23672336798E-01 -0.14286813953E+00 -0.93803174300E-02  0.89188546080E+00  0.88000000000E+00 0. -1.
        -11    1    4    4    0    0 -0.53650142141E-03  0.49320112522E-01 -0.77620280168E-02  0.49932669996E-01  0.51100000000E-03 0.  1.
         11    1    4    4    0    0 -0.71491299235E-02  0.77497867824E-01  0.10704291440E-01  0.78561266233E-01  0.51100000000E-03 0. -1.
</event>
<event>
 8    1  0.1111182E+005  0.1043930E+01  0.7957747E-01            NaN
         13   -1    0    0    0    0  0.00000000000E+00  0.00000000000E+00  0.74505805969E-08  0.10566000000E+00  0.10566000000E+00 0. -1.
     999900   -1    0    0    0    0 -0.00000000000E+00 -0.00000000000E+00 -0.74505805969E-08  0.93827000000E+00  0.93827000000E+00 0.  1.
     999902    2    1    2    0    0 -0.34713350509E-02  0.23212513565E-01  0.91424620934E-03  0.10204415603E+01  0.10201711970E+01 0.  0.
     999903    2    3    3    0    0 -0.26831363868E-01 -0.10190230483E+00 -0.70495624904E-01  0.12842206589E+00  0.20459522486E-01 0.  0.
         14    1    1    2    0    0  0.34713350509E-02 -0.23212513565E-01 -0.91424620934E-03  0.23488439692E-01  0.00000000000E+00 0.  1.
     999901    1    3    3    0    0  0.23360028817E-01  0.12511481840E+00  0.71409871113E-01  0.89201949442E+00  0.88000000000E+00 0. -1.
        -11    1    4    4    0    0 -0.10416327077E-01 -0.69636746916E-01 -0.39341536898E-01  0.80658502573E-01  0.51100000000E-03 0. -1.
         11    1    4    4    0    0 -0.16415036791E-01 -0.32265557915E-01 -0.31154088005E-01  0.47763563318E-01  0.51100000000E-03 0.  1.
</event>
<event>
 8    1  0.1111182E+005  0.1043930E+01  0.7957747E-01            NaN
         13   -1    0    0    0    0  0.00000000000E+00  0.00000000000E+00  0.74505805969E-08  0.10566000000E+00  0.10566000000E+00 0. -1.
     999900   -1    0    0    0    0 -0.00000000000E+00 -0.00000000000E+00 -0.74505805969E-08  0.93827000000E+00  0.93827000000E+00 0. -1.
     999902    2    1    2    0    0  0.17783868494E-01 -0.13335547523E-01 -0.76454706449E-02  0.10204234897E+01  0.10201527054E+01 0.  0.
     999903    2    3    3    0    0  0.37744505581E-01  0.98570615330E-01 -0.74234099717E-01  0.13061707149E+00  0.20231260367E-01 0.  0.
         14    1    1    2    0    0 -0.17783868494E-01  0.13335547523E-01  0.76454706449E-02  0.23506510327E-01  0.00000000000E+00 0. -1.
     999901    1    3    3    0    0 -0.19960637087E-01 -0.11190616285E+00  0.66588629072E-01  0.88980641818E+00  0.88000000000E+00 0.  1.
        -11    1    4    4    0    0  0.33664854790E-01  0.83502795949E-01 -0.53753601556E-01  0.10486062264E+00  0.51100000000E-03 0.  1.
         11    1    4    4    0    0  0.40796507913E-02  0.15067819381E-01 -0.20480498160E-01  0.25756448850E-01  0.51100000000E-03 0. -1.
</event>
<event>
 8    1  0.1111182E+005  0.1043930E+01  0.7957747E-01            NaN
         13   -1    0    0    0    0  0.00000000000E+00  0.00000000000E+00  0.74505805969E-08  0.10566000000E+00  0.10566000000E+00 0. -1.
     999900   -1    0    0    0    0 -0.00000000000E+00 -0.00000000000E+00 -0.74505805969E-08  0.93827000000E+00  0.93827000000E+00 0.  1.
     999902    2    1    2    0    0 -0.82602118707E-02 -0.16326539965E-01  0.15866268510E-01  0.10197117118E+01  0.10194240774E+01 0.  0.
     999903    2    3    3    0    0 -0.74580251657E-01 -0.47479360351E-01 -0.92798885281E-01  0.13000560214E+00  0.21755916037E-01 0.  0.
         14    1    1    2    0    0  0.82602118707E-02  0.16326539965E-01 -0.15866268510E-01  0.24218288210E-01  0.00000000000E+00 0.  1.
     999901    1    3    3    0    0  0.66320039786E-01  0.31152820386E-01  0.10866515379E+00  0.88970610965E+00  0.88000000000E+00 0. -1.
        -11    1    4    4    0    0 -0.32398710049E-01 -0.97405942580E-02 -0.42157819417E-01  0.54056437622E-01  0.51100000000E-03 0.  1.
         11    1    4    4    0    0 -0.42181541607E-01 -0.37738766093E-01 -0.50641065864E-01  0.75949164521E-01  0.51100000000E-03 0. -1.
</event>
<event>
 8    1  0.1111182E+005  0.1043930E+01  0.7957747E-01            NaN
         13   -1    0    0    0    0  0.00000000000E+00  0.00000000000E+00  0.74505805969E-08  0.10566000000E+00  0.10566000000E+00 0. -1.
     999900   -1    0    0    0    0 -0.00000000000E+00 -0.00000000000E+00 -0.74505805969E-08  0.93827000000E+00  0.93827000000E+00 0. -1.
     999902    2    1    2    0    0  0.78339513106E-02  0.68404774903E-02  0.20821273858E-01  0.10206558003E+01  0.10203904029E+01 0.  0.
     999903    2    3    3    0    0 -0.12445202846E+00  0.55227065931E-02 -0.29029303403E-01  0.12937223321E+00  0.19382120416E-01 0.  0.
         14    1    1    2    0    0 -0.78339513106E-02 -0.68404774903E-02 -0.20821273858E-01  0.23274199675E-01  0.00000000000E+00 0.  1.
     999901    1    3    3    0    0  0.13228597977E+00  0.13177708972E-02  0.49850577261E-01  0.89128356712E+00  0.88000000000E+00 0. -1.
        -11    1    4    4    0    0 -0.68649446065E-01 -0.64921744038E-02 -0.14431165987E-01  0.70451504216E-01  0.51100000000E-03 0. -1.
         11    1    4    4    0    0 -0.55802582398E-01  0.12014880997E-01 -0.14598137417E-01  0.58920728990E-01  0.51100000000E-03 0.  1.
</event>
<event>
 8    1  0.1111182E+005  0.1043930E+01  0.7957747E-01            NaN
         13   -1    0    0    0    0  0.00000000000E+00  0.00000000000E+00  0.74505805969E-08  0.10566000000E+00  0.10566000000E+00 0.  1.
     999900   -1    0    0    0    0 -0.00000000000E+00 -0.00000000000E+00 -0.74505805969E-08  0.93827000000E+00  0.93827000000E+00 0. -1.
     999902    2    1    2    0    0  0.20443458869E-01  0.61010174285E-02 -0.11880297988E-01  0.10195107677E+01  0.10192182821E+01 0.  0.
     999903    2    3    3    0    0  0.68830965317E-01  0.10577391064E+00  0.31069165521E-01  0.13152389123E+00  0.20184621892E-01 0.  0.
         14    1    1    2    0    0 -0.20443458869E-01 -0.61010174285E-02  0.11880297988E-01  0.24419232266E-01  0.00000000000E+00 0. -1.
     999901    1    3    3    0    0 -0.48387506448E-01 -0.99672893209E-01 -0.42949463509E-01  0.88798687650E+00  0.88000000000E+00 0. -1.
        -11    1    4    4    0    0  0.32011666120E-01  0.33674172443E-01  0.16223209808E-01  0.49215346336E-01  0.51100000000E-03 0.  1.
         11    1    4    4    0    0  0.36819299197E-01  0.72099738195E-01  0.14845955713E-01  0.82308544898E-01  0.51100000000E-03 0. -1.
</event>
<event>
 8    1  0.1111182E+005  0.1043930E+01  0.7957747E-01            NaN
         13   -1    0    0    0    0  0.00000000000E+00  0.00000000000E+00  0.74505805969E-08  0.10566000000E+00  0.10566000000E+00 0.  1.
     999900   -1    0    0    0    0 -0.00000000000E+00 -0.00000000000E+00 -0.74505805969E-08  0.93827000000E+00  0.93827000000E+00 0. -1.
     999902    2    1    2    0    0  0.21937114916E-01  0.55289506606E-02 -0.85664172502E-02  0.10197393032E+01  0.10194523318E+01 0.  0.
     999903    2    3    3    0    0 -0.90248255681E-02  0.12015892998E+00  0.45345739433E-01  0.13012972899E+00  0.18918095873E-01 0.  0.
         14    1    1    2    0    0 -0.21937114916E-01 -0.55289506606E-02  0.85664172502E-02  0.24190696781E-01  0.00000000000E+00 0. -1.
     999901    1    3    3    0    0  0.30961940485E-01 -0.11462997932E+00 -0.53912156683E-01  0.88960957423E+00  0.88000000000E+00 0.  1.
        -11    1    4    4    0    0 -0.74967213738E-02  0.79684531538E-01  0.39329208336E-01  0.89178882854E-01  0.51100000000E-03 0.  1.
         11    1    4    4    0    0 -0.15281041943E-02  0.40474398446E-01  0.60165310974E-02  0.40950846138E-01  0.51100000000E-03 0. -1.
</event>
<event>
 8    1  0.1111182E+005  0.1043930E+01  0.7957747E-01            NaN
         13   -1    0    0    0    0  0.00000000000E+00  0.00000000000E+00  0.74505805969E-08  0.10566000000E+00  0.10566000000E+00 0. -1.
     999900   -1    0    0    0    0 -0.00000000000E+00 -0.00000000000E+00 -0.74505805969E-08  0.93827000000E+00  0.93827000000E+00 0. -1.
     999902    2    1    2    0    0  0.35031447333E-02  0.19223145436E-01  0.12857227284E-01  0.10205396251E+01  0.10202715407E+01 0.  0.
     999903    2    3    3    0    0  0.11905541542E+00 -0.12485313896E-01 -0.47505565492E-01  0.13037030392E+00  0.20237647819E-01 0.  0.
         14    1    1    2    0    0 -0.35031447333E-02 -0.19223145436E-01 -0.12857227284E-01  0.23390374877E-01  0.00000000000E+00 0.  1.
     999901    1    3    3    0    0 -0.11555227068E+00  0.31708459332E-01  0.60362792776E-01  0.89016932120E+00  0.88000000000E+00 0.  1.
        -11    1    4    4    0    0  0.15205791826E-01 -0.85897995392E-02 -0.74632421310E-02  0.18998996429E-01  0.51100000000E-03 0. -1.
         11    1    4    4    0    0  0.10384962359E+00 -0.38955143568E-02 -0.40042323361E-01  0.11137130749E+00  0.51100000000E-03 0.  1.
</event>
<event>
 8    1  0.1111182E+005  0.1043930E+01  0.7957747E-01            NaN
         13   -1    0    0    0    0  0.00000000000E+00  0.00000000000E+00  0.74505805969E-08  0.10566000000E+00  0.10566000000E+00 0. -1.
     999900   -1    0    0    0    0 -0.00000000000E+00 -0.00000000000E+00 -0.74505805969E-08  0.93827000000E+00  0.93827000000E+00 0. -1.
     999902    2    1    2    0    0  0.66808669116E-03 -0.18183584760E-01 -0.15627004379E-01  0.10199447470E+01  0.10196626867E+01 0.  0.
     999903    2    3    3    0    0  0.15095463824E-01 -0.48571186179E-01  0.11540133255E+00  0.12960774307E+00  0.29894252860E-01 0.  0.
         14    1    1    2    0    0 -0.66808669116E-03  0.18183584760E-01  0.15627004379E-01  0.23985252977E-01  0.00000000000E+00 0. -1.
     999901    1    3    3    0    0 -0.14427377133E-01  0.30387601419E-01 -0.13102833693E+00  0.89033700395E+00  0.88000000000E+00 0. -1.
        -11    1    4    4    0    0 -0.33317171686E-02 -0.37036660064E-01  0.75661002453E-01  0.84306956659E-01  0.51100000000E-03 0. -1.
         11    1    4    4    0    0  0.18427180993E-01 -0.11534526115E-01  0.39740330098E-01  0.45300786409E-01  0.51100000000E-03 0.  1.
</event>
<event>
 8    1  0.1111182E+005  0.1043930E+01  0.7957747E-01            NaN
         13   -1    0    0    0    0  0.00000000000E+00  0.00000000000E+00  0.74505805969E-08  0.10566000000E+00  0.10566000000E+00 0. -1.
     999900   -1    0    0    0    0 -0.00000000000E+00 -0.00000000000E+00 -0.74505805969E-08  0.93827000000E+00  0.93827000000E+00 0.  1.
     999902    2    1    2    0    0 -0.89985636280E-02 -0.17999974588E-01 -0.13470975023E-01  0.10197134684E+01  0.10194258763E+01 0.  0.
     999903    2    3    3    0    0 -0.14590935824E-01 -0.71647675900E-01  0.10544116972E+00  0.13007902180E+00  0.21364146874E-01 0.  0.
         14    1    1    2    0    0  0.89985636280E-02  0.17999974588E-01  0.13470975023E-01  0.24216531556E-01  0.00000000000E+00 0.  1.
     999901    1    3    3    0    0  0.55923721958E-02  0.53647701312E-01 -0.11891214474E+00  0.88963444664E+00  0.88000000000E+00 0.  1.
        -11    1    4    4    0    0 -0.11236926180E-01 -0.45711348203E-01  0.49422082111E-01  0.68253931650E-01  0.51100000000E-03 0. -1.
         11    1    4    4    0    0 -0.33540096435E-02 -0.25936327697E-01  0.56019087607E-01  0.61825090153E-01  0.51100000000E-03 0.  1.
</event>
<event>
 8    1  0.1111182E+005  0.1043930E+01  0.7957747E-01            NaN
         13   -1    0    0    0    0  0.00000000000E+00  0.00000000000E+00  0.74505805969E-08  0.10566000000E+00  0.10566000000E+00 0. -1.
     999900   -1    0    0    0    0 -0.00000000000E+00 -0.00000000000E+00 -0.74505805969E-08  0.93827000000E+00  0.93827000000E+00 0. -1.
     999902    2    1    2    0    0 -0.17184285813E-01 -0.13835891036E-01  0.64160937433E-02  0.10209539730E+01  0.10206954086E+01 0.  0.
     999903    2    3    3    0    0 -0.23693989795E-01  0.43343805363E-01 -0.11893327931E+00  0.13021026164E+00  0.19222296749E-01 0.  0.
         14    1    1    2    0    0  0.17184285813E-01  0.13835891036E-01 -0.64160937433E-02  0.22976027042E-01  0.00000000000E+00 0.  1.
     999901    1    3    3    0    0  0.65097039819E-02 -0.57179696399E-01  0.12534937306E+00  0.89074371132E+00  0.88000000000E+00 0.  1.
        -11    1    4    4    0    0 -0.21237226496E-01  0.40440179526E-01 -0.89063285673E-01  0.10009474454E+00  0.51100000000E-03 0. -1.
         11    1    4    4    0    0 -0.24567632996E-02  0.29036258373E-02 -0.29869993641E-01  0.30115517097E-01  0.51100000000E-03 0.  1.
</event>
<event>
 8    1  0.1111182E+005  0.1043930E+01  0.7957747E-01            NaN
         13   -1    0    0    0    0  0.00000000000E+00  0.00000000000E+00  0.74505805969E-08  0.10566000000E+00  0.10566000000E+00 0.  1.
     999900   -1    0    0    0    0 -0.00000000000E+00 -0.00000000000E+00 -0.74505805969E-08  0.93827000000E+00  0.93827000000E+00 0. -1.
     999902    2    1    2    0    0 -0.19883173034E-01 -0.59999677508E-02 -0.13390979217E-01  0.10192184944E+01  0.10189188785E+01 0.  0.
     999903    2    3    3    0    0 -0.40108389662E-01  0.10767088916E+00  0.55045387787E-01  0.12904229871E+00  0.20499191365E-01 0.  0.
         14    1    1    2    0    0  0.19883173034E-01  0.59999677508E-02  0.13390979217E-01  0.24711505565E-01  0.00000000000E+00 0.  1.
     999901    1    3    3    0    0  0.20225216629E-01 -0.11367085691E+00 -0.68436367003E-01  0.89017619572E+00  0.88000000000E+00 0. -1.
        -11    1    4    4    0    0  0.21386105337E-02  0.95861882504E-02  0.60067377188E-02  0.11524351574E-01  0.51100000000E-03 0. -1.
         11    1    4    4    0    0 -0.42247000196E-01  0.98084700912E-01  0.49038650068E-01  0.11751794714E+00  0.51100000000E-03 0.  1.
</event>
<event>
 7    1  0.1111182E+005  0.1043930E+01  0.7957747E-01            NaN
         13   -1    0    0    0    0  0.00000000000E+00  0.00000000000E+00  0.74505805969E-08  0.10566000000E+00  0.10566000000E+00 0. -1.
     999900   -1    0    0    0    0 -0.00000000000E+00 -0.00000000000E+00 -0.74505805969E-08  0.93827000000E+00  0.93827000000E+00 0.  1.
     999902    2    1    2    0    0  0.44215824233E-02  0.22120474401E-01 -0.82305012833E-02  0.10199173589E+01  0.10196346464E+01 0.  0.
         14    1    1    2    0    0 -0.44215824233E-02 -0.22120474401E-01  0.82305012833E-02  0.24012641050E-01  0.00000000000E+00 0. -1.
     999901    1    3    3    0    0  0.36199218767E-01  0.69214953797E-01  0.87745267755E-01  0.88780646837E+00  0.88000000000E+00 0. -1.
        -11    1    3    3    0    0  0.10879814902E-01  0.17494391282E-02 -0.53412474129E-01  0.54539750853E-01  0.51100000000E-03 0.  1.
         11    1    3    3    0    0 -0.42657451246E-01 -0.48843918525E-01 -0.42563294909E-01  0.77571139725E-01  0.51100000000E-03 0. -1.
</event>
<event>
 8    1  0.1111182E+005  0.1043930E+01  0.7957747E-01            NaN
         13   -1    0    0    0    0  0.00000000000E+00  0.00000000000E+00  0.74505805969E-08  0.10566000000E+00  0.10566000000E+00 0. -1.
     999900   -1    0    0    0    0 -0.00000000000E+00 -0.00000000000E+00 -0.74505805969E-08  0.93827000000E+00  0.93827000000E+00 0.  1.
     999902    2    1    2    0    0 -0.20320918040E-01 -0.88454368533E-02 -0.83907414027E-02  0.10202321941E+01  0.10199569324E+01 0.  0.
     999903    2    3    3    0    0 -0.51506735779E-01 -0.17575977638E-02 -0.12002746195E+00  0.13260302037E+00  0.22824031349E-01 0.  0.
         14    1    1    2    0    0  0.20320918040E-01  0.88454368533E-02  0.83907414027E-02  0.23697805899E-01  0.00000000000E+00 0.  1.
     999901    1    3    3    0    0  0.31185817739E-01 -0.70878390894E-02  0.11163672055E+00  0.88762917374E+00  0.88000000000E+00 0. -1.
        -11    1    4    4    0    0 -0.19968794045E-01  0.99497741455E-02 -0.55798014514E-01  0.60095176894E-01  0.51100000000E-03 0. -1.
         11    1    4    4    0    0 -0.31537941734E-01 -0.11707371909E-01 -0.64229447437E-01  0.72507843472E-01  0.51100000000E-03 0.  1.
</event>
<event>
 8    1  0.1111182E+005  0.1043930E+01  0.7957747E-01            NaN
         13   -1    0    0    0    0  0.00000000000E+00  0.00000000000E+00  0.74505805969E-08  0.10566000000E+00  0.10566000000E+00 0. -1.
     999900   -1    0    0    0    0 -0.00000000000E+00 -0.00000000000E+00 -0.74505805969E-08  0.93827000000E+00  0.93827000000E+00 0.  1.
     999902    2    1    2    0    0 -0.56974362690E-02  0.13950912980E-01  0.19109632863E-01  0.10195934674E+01  0.10193029833E+01 0.  0.
     999903    2    3    3    0    0  0.11961414699E+00 -0.42866022553E-01  0.12326784902E-01  0.12887624843E+00  0.17666288057E-01 0.  0.
         14    1    1    2    0    0  0.56974362690E-02 -0.13950912980E-01 -0.19109632863E-01  0.24336532645E-01  0.00000000000E+00 0.  1.
     999901    1    3    3    0    0 -0.12531158326E+00  0.56816935532E-01  0.67828479611E-02  0.89071721892E+00  0.88000000000E+00 0.  1.
        -11    1    4    4    0    0  0.63732968659E-01 -0.18141607438E-01 -0.12463215548E-02  0.66278379981E-01  0.51100000000E-03 0. -1.
         11    1    4    4    0    0  0.55881178332E-01 -0.24724415115E-01  0.13573106457E-01  0.62597868450E-01  0.51100000000E-03 0.  1.
</event>
<event>
 8    1  0.1111182E+005  0.1043930E+01  0.7957747E-01            NaN
         13   -1    0    0    0    0  0.00000000000E+00  0.00000000000E+00  0.74505805969E-08  0.10566000000E+00  0.10566000000E+00 0. -1.
     999900   -1    0    0    0    0 -0.00000000000E+00 -0.00000000000E+00 -0.74505805969E-08  0.93827000000E+00  0.93827000000E+00 0.  1.
     999902    2    1    2    0    0  0.13278813053E-01 -0.17851537354E-01 -0.77954777899E-02  0.10203551461E+01  0.10200827665E+01 0.  0.
     999903    2    3    3    0    0 -0.46349662939E-01 -0.12201517900E+00  0.72266334364E-02  0.13208081730E+00  0.18897695861E-01 0.  0.
         14    1    1    2    0    0 -0.13278813053E-01  0.17851537354E-01  0.77954777899E-02  0.23574853891E-01  0.00000000000E+00 0. -1.
     999901    1    3    3    0    0  0.59628475992E-01  0.10416364164E+00 -0.15022111226E-01  0.88827432881E+00  0.88000000000E+00 0.  1.
        -11    1    4    4    0    0 -0.17542934501E-01 -0.34469468081E-01  0.97183170730E-02  0.39882396975E-01  0.51100000000E-03 0.  1.
         11    1    4    4    0    0 -0.28806728438E-01 -0.87545710915E-01 -0.24916836366E-02  0.92198420329E-01  0.51100000000E-03 0. -1.
</event>
<event>
 8    1  0.1111182E+005  0.1043930E+01  0.7957747E-01            NaN
         13   -1    0    0    0    0  0.00000000000E+00  0.00000000000E+00  0.74505805969E-08  0.10566000000E+00  0.10566000000E+00 0. -1.
     999900   -1    0    0    0    0 -0.00000000000E+00 -0.00000000000E+00 -0.74505805969E-08  0.93827000000E+00  0.93827000000E+00 0. -1.
     999902    2    1    2    0    0  0.46975414581E-02  0.14519544911E-01  0.16130915539E-01  0.10217243585E+01  0.10214830269E+01 0.  0.
     999903    2    3    3    0    0 -0.18294255533E-01  0.25878955711E-01 -0.12355349712E+00  0.13033813797E+00  0.26798571301E-01 0.  0.
         14    1    1    2    0    0 -0.46975414581E-02 -0.14519544911E-01 -0.16130915539E-01  0.22205641542E-01  0.00000000000E+00 0.  1.
     999901    1    3    3    0    0  0.22991796991E-01 -0.11359410800E-01  0.13968441266E+00  0.89138622049E+00  0.88000000000E+00 0.  1.
        -11    1    4    4    0    0  0.10684242689E-02 -0.46705669621E-02 -0.89919917315E-02  0.10201605877E-01  0.51100000000E-03 0.  1.
         11    1    4    4    0    0 -0.19362679802E-01  0.30549522673E-01 -0.11456150539E+00  0.12013653209E+00  0.51100000000E-03 0. -1.
</event>
<event>
 8    1  0.1111182E+005  0.1043930E+01  0.7957747E-01            NaN
         13   -1    0    0    0    0  0.00000000000E+00  0.00000000000E+00  0.74505805969E-08  0.10566000000E+00  0.10566000000E+00 0.  1.
     999900   -1    0    0    0    0 -0.00000000000E+00 -0.00000000000E+00 -0.74505805969E-08  0.93827000000E+00  0.93827000000E+00 0. -1.
     999902    2    1    2    0    0 -0.23595866572E-01 -0.12744992430E-02 -0.48383261659E-02  0.10198094969E+01  0.10195242083E+01 0.  0.
     999903    2    3    3    0    0  0.78877125866E-01 -0.30057671864E-01 -0.95037690465E-01  0.12881841364E+00  0.20903503567E-01 0.  0.
         14    1    1    2    0    0  0.23595866572E-01  0.12744992430E-02  0.48383261659E-02  0.24120503056E-01  0.00000000000E+00 0.  1.
     999901    1    3    3    0    0 -0.10247299244E+00  0.28783172621E-01  0.90199364299E-01  0.89099108330E+00  0.88000000000E+00 0.  1.
        -11    1    4    4    0    0  0.22144213683E-01 -0.43576725257E-02 -0.13825209233E-01  0.26471740419E-01  0.51100000000E-03 0.  1.
         11    1    4    4    0    0  0.56732912183E-01 -0.25699999339E-01 -0.81212481232E-01  0.10234667322E+00  0.51100000000E-03 0. -1.
</event>
<event>
 8    1  0.1111182E+005  0.1043930E+01  0.7957747E-01            NaN
         13   -1    0    0    0    0  0.00000000000E+00  0.00000000000E+00  0.74505805969E-08  0.10566000000E+00  0.10566000000E+00 0.  1.
     999900   -1    0    0    0    0 -0.00000000000E+00 -0.00000000000E+00 -0.74505805969E-08  0.93827000000E+00  0.93827000000E+00 0.  1.
     999902    2    1    2    0    0  0.21490680638E-01  0.28596042685E-02  0.59497190188E-02  0.10214483220E+01  0.10212008855E+01 0.  0.
     999903    2    3    3    0    0  0.55337025321E-01  0.38650769173E-01 -0.11215612289E+00  0.13219269369E+00  0.18434859165E-01 0.  0.
         14    1    1    2    0    0 -0.21490680638E-01 -0.28596042685E-02 -0.59497190188E-02  0.22481678034E-01  0.00000000000E+00 0. -1.
     999901    1    3    3    0    0 -0.33846344684E-01 -0.35791164904E-01  0.11810584191E+00  0.88925562828E+00  0.88000000000E+00 0. -1.
        -11    1    4    4    0    0  0.27617946715E-01  0.94199481739E-02 -0.55023352802E-01  0.62284162345E-01  0.51100000000E-03 0. -1.
         11    1    4    4    0    0  0.27719078606E-01  0.29230820999E-01 -0.57132770091E-01  0.69908531341E-01  0.51100000000E-03 0.  1.
</event>
<event>
 8    1  0.1111182E+005  0.1043930E+01  0.7957747E-01            NaN
         13   -1    0    0    0    0  0.00000000000E+00  0.00000000000E+00  0.74505805969E-08  0.10566000000E+00  0.10566000000E+00 0.  1.
     999900   -1    0    0    0    0 -0.00000000000E+00 -0.00000000000E+00 -0.74505805969E-08  0.93827000000E+00  0.93827000000E+00 0.  1.
     999902    2    1    2    0    0  0.24331805091E-01 -0.21044857345E-01 -0.87857733528E-03  0.10117477897E+01  0.10112358258E+01 0.  0.
     999903    2    3    3    0    0  0.10531302497E+00 -0.10670568512E-01 -0.64548805765E-01  0.12567810747E+00  0.20585045784E-01 0.  0.
         14    1    1    2    0    0 -0.24331805091E-01  0.21044857345E-01  0.87857733528E-03  0.32182210268E-01  0.00000000000E+00 0.  1.
     999901    1    3    3    0    0 -0.80981219879E-01 -0.10374288832E-01  0.63670228430E-01  0.88606968227E+00  0.88000000000E+00 0. -1.
        -11    1    4    4    0    0  0.63081427061E-01  0.35810756596E-02 -0.40160363621E-01  0.74867926845E-01  0.51100000000E-03 0.  1.
         11    1    4    4    0    0  0.42231597908E-01 -0.14251644172E-01 -0.24388442144E-01  0.50810180621E-01  0.51100000000E-03 0. -1.
</event>
<event>
 8    1  0.1111182E+005  0.1043930E+01  0.7957747E-01            NaN
         13   -1    0    0    0    0  0.00000000000E+00  0.00000000000E+00  0.74505805969E-08  0.10566000000E+00  0.10566000000E+00 0. -1.
     999900   -1    0    0    0    0 -0.00000000000E+00 -0.00000000000E+00 -0.74505805969E-08  0.93827000000E+00  0.93827000000E+00 0. -1.
     999902    2    1    2    0    0 -0.22023548994E-01 -0.87979206596E-02 -0.20321097951E-02  0.10201272777E+01  0.10198495444E+01 0.  0.
     999903    2    3    3    0    0  0.86261784618E-01  0.31431509724E-01  0.86805035721E-01  0.12814288381E+00  0.21364670709E-01 0.  0.
         14    1    1    2    0    0  0.22023548994E-01  0.87979206596E-02  0.20321097951E-02  0.23802722290E-01  0.00000000000E+00 0. -1.
     999901    1    3    3    0    0 -0.10828533361E+00 -0.40229430384E-01 -0.88837145516E-01  0.89198439390E+00  0.88000000000E+00 0. -1.
        -11    1    4    4    0    0  0.64958993738E-01  0.32984814358E-01  0.68699171537E-01  0.10013743624E+00  0.51100000000E-03 0. -1.
         11    1    4    4    0    0  0.21302790881E-01 -0.15533046334E-02  0.18105864184E-01  0.28005447567E-01  0.51100000000E-03 0.  1.
</event>
<event>
 8    1  0.1280211E+005  0.1043930E+01  0.7957747E-01            NaN
         13   -1    0    0    0    0  0.00000000000E+00  0.00000000000E+00  0.74505805969E-08  0.10566000000E+00  0.10566000000E+00 0. -1.
     999900   -1    0    0    0    0 -0.00000000000E+00 -0.00000000000E+00 -0.74505805969E-08  0.93827000000E+00  0.93827000000E+00 0.  1.
     999902    2    1    2    0    0 -0.77113652607E-02  0.56159769157E-02  0.20185772168E-01  0.10216035639E+01  0.10213595704E+01 0.  0.
     999903    2    3    3    0    0  0.11512382877E+00 -0.54678163460E-01  0.21940759050E-01  0.13102681357E+00  0.21057812234E-01 0.  0.
         14    1    1    2    0    0  0.77113652607E-02 -0.56159769157E-02 -0.20185772168E-01  0.22326436099E-01  0.00000000000E+00 0.  1.
     999901    1    3    3    0    0 -0.12283519403E+00  0.60294140376E-01 -0.17549868829E-02  0.89057675033E+00  0.88000000000E+00 0.  1.
        -11    1    4    4    0    0  0.59742756027E-01 -0.16876889329E-01  0.89261209427E-02  0.62721312543E-01  0.51100000000E-03 0. -1.
         11    1    4    4    0    0  0.55381072742E-01 -0.37801274132E-01  0.13014638108E-01  0.68305501024E-01  0.51100000000E-03 0.  1.
</event>
<event>
 8    1  0.1111182E+005  0.1043930E+01  0.7957747E-01            NaN
         13   -1    0    0    0    0  0.00000000000E+00  0.00000000000E+00  0.74505805969E-08  0.10566000000E+00  0.10566000000E+00 0. -1.
     999900   -1    0    0    0    0 -0.00000000000E+00 -0.00000000000E+00 -0.74505805969E-08  0.93827000000E+00  0.93827000000E+00 0.  1.
     999902    2    1    2    0    0 -0.13919868536E-01  0.15956132726E-01 -0.10514300112E-01  0.10202886925E+01  0.10200147571E+01 0.  0.
     999903    2    3    3    0    0 -0.55624115632E-01  0.60196605089E-01  0.10051880485E+00  0.13123030637E+00  0.19992240410E-01 0.  0.
         14    1    1    2    0    0  0.13919868536E-01 -0.15956132726E-01  0.10514300112E-01  0.23641307462E-01  0.00000000000E+00 0.  1.
     999901    1    3    3    0    0  0.41704247095E-01 -0.44240472362E-01 -0.11103310496E+00  0.88905838617E+00  0.88000000000E+00 0.  1.
        -11    1    4    4    0    0 -0.29501497411E-01  0.44403603795E-01  0.70762747177E-01  0.88598227344E-01  0.51100000000E-03 0.  1.
         11    1    4    4    0    0 -0.26122618221E-01  0.15793001294E-01  0.29756057675E-01  0.42632079025E-01  0.51100000000E-03 0. -1.
</event>
<event>
 8    1  0.1111182E+005  0.1043930E+01  0.7957747E-01            NaN
         13   -1    0    0    0    0  0.00000000000E+00  0.00000000000E+00  0.74505805969E-08  0.10566000000E+00  0.10566000000E+00 0.  1.
     999900   -1    0    0    0    0 -0.00000000000E+00 -0.00000000000E+00 -0.74505805969E-08  0.93827000000E+00  0.93827000000E+00 0. -1.
     999902    2    1    2    0    0  0.22671059898E-01 -0.20537491887E-02 -0.57614835538E-03  0.10211588167E+01  0.10209048938E+01 0.  0.
     999903    2    3    3    0    0  0.59833803625E-01 -0.10725672552E+00 -0.46442127415E-01  0.13292887811E+00  0.20715361729E-01 0.  0.
         14    1    1    2    0    0 -0.22671059898E-01  0.20537491887E-02  0.57614835538E-03  0.22771183315E-01  0.00000000000E+00 0.  1.
     999901    1    3    3    0    0 -0.37162743727E-01  0.10520297633E+00  0.45865979060E-01  0.88822993858E+00  0.88000000000E+00 0.  1.
        -11    1    4    4    0    0  0.30277443187E-01 -0.33857255865E-01 -0.16938614262E-01  0.48479017262E-01  0.51100000000E-03 0. -1.
         11    1    4    4    0    0  0.29556360438E-01 -0.73399469652E-01 -0.29503513153E-01  0.84449860846E-01  0.51100000000E-03 0.  1.
</event>
<event>
 8    1  0.1111182E+005  0.1043930E+01  0.7957747E-01            NaN
         13   -1    0    0    0    0  0.00000000000E+00  0.00000000000E+00  0.74505805969E-08  0.10566000000E+00  0.10566000000E+00 0. -1.
     999900   -1    0    0    0    0 -0.00000000000E+00 -0.00000000000E+00 -0.74505805969E-08  0.93827000000E+00  0.93827000000E+00 0.  1.
     999902    2    1    2    0    0 -0.15660639093E-01 -0.11542016861E-01 -0.14077477910E-01  0.10199164798E+01  0.10196337463E+01 0.  0.
     999903    2    3    3    0    0 -0.24867426279E-04 -0.39791283762E-01  0.12093380567E+00  0.12903458796E+00  0.21014106098E-01 0.  0.
         14    1    1    2    0    0  0.15660639093E-01  0.11542016861E-01  0.14077477910E-01  0.24013520240E-01  0.00000000000E+00 0.  1.
     999901    1    3    3    0    0 -0.15635771667E-01  0.28249266901E-01 -0.13501128358E+00  0.89088189180E+00  0.88000000000E+00 0.  1.
        -11    1    4    4    0    0  0.53046783661E-02 -0.18448724517E-01  0.82894060540E-01  0.85089255742E-01  0.51100000000E-03 0. -1.
         11    1    4    4    0    0 -0.53295457923E-02 -0.21342559245E-01  0.38039745131E-01  0.43945332222E-01  0.51100000000E-03 0.  1.
</event>
<event>
 8    1  0.1111182E+005  0.1043930E+01  0.7957747E-01            NaN
         13   -1    0    0    0    0  0.00000000000E+00  0.00000000000E+00  0.74505805969E-08  0.10566000000E+00  0.10566000000E+00 0.  1.
     999900   -1    0    0    0    0 -0.00000000000E+00 -0.00000000000E+00 -0.74505805969E-08  0.93827000000E+00  0.93827000000E+00 0. -1.
     999902    2    1    2    0    0  0.47288831917E-02 -0.77667790354E-02  0.22018393870E-01  0.10201078494E+01  0.10198296571E+01 0.  0.
     999903    2    3    3    0    0 -0.12192673991E+00  0.12997081831E-01  0.40512228335E-01  0.13060528798E+00  0.19530656991E-01 0.  0.
         14    1    1    2    0    0 -0.47288831917E-02  0.77667790354E-02 -0.22018393870E-01  0.23822150647E-01  0.00000000000E+00 0. -1.
     999901    1    3    3    0    0  0.12665562310E+00 -0.20763860867E-01 -0.18493834465E-01  0.88950256138E+00  0.88000000000E+00 0.  1.
        -11    1    4    4    0    0 -0.61065363950E-01  0.95167613346E-02  0.30155357352E-01  0.68768845553E-01  0.51100000000E-03 0. -1.
         11    1    4    4    0    0 -0.60861375957E-01  0.34803204965E-02  0.10356870982E-01  0.61836442424E-01  0.51100000000E-03 0.  1.
</event>
<event>
 8    1  0.1111182E+005  0.1043930E+01  0.7957747E-01            NaN
         13   -1    0    0    0    0  0.00000000000E+00  0.00000000000E+00  0.74505805969E-08  0.10566000000E+00  0.10566000000E+00 0.  1.
     999900   -1    0    0    0    0 -0.00000000000E+00 -0.00000000000E+00 -0.74505805969E-08  0.93827000000E+00  0.93827000000E+00 0.  1.
     999902    2    1    2    0    0  0.21556667274E-01  0.31044238575E-02  0.86002020148E-02  0.10205143893E+01  0.10202457194E+01 0.  0.
     999903    2    3    3    0    0  0.30099866515E-01 -0.90848575561E-01 -0.86328496072E-01  0.13039551514E+00  0.19771582855E-01 0.  0.
         14    1    1    2    0    0 -0.21556667274E-01 -0.31044238575E-02 -0.86002020148E-02  0.23415610736E-01  0.00000000000E+00 0. -1.
     999901    1    3    3    0    0 -0.85431992409E-02  0.93952999419E-01  0.94928698087E-01  0.89011887413E+00  0.88000000000E+00 0. -1.
        -11    1    4    4    0    0  0.25196320410E-01 -0.46184643500E-01 -0.50467752585E-01  0.72904945165E-01  0.51100000000E-03 0.  1.
         11    1    4    4    0    0  0.49035461048E-02 -0.44663932061E-01 -0.35860743487E-01  0.57490569975E-01  0.51100000000E-03 0. -1.
</event>
<event>
 8    1  0.1111182E+005  0.1043930E+01  0.7957747E-01            NaN
         13   -1    0    0    0    0  0.00000000000E+00  0.00000000000E+00  0.74505805969E-08  0.10566000000E+00  0.10566000000E+00 0.  1.
     999900   -1    0    0    0    0 -0.00000000000E+00 -0.00000000000E+00 -0.74505805969E-08  0.93827000000E+00  0.93827000000E+00 0.  1.
     999902    2    1    2    0    0 -0.55440161550E-03  0.15987014749E-01 -0.17296308393E-01  0.10203704099E+01  0.10200983870E+01 0.  0.
     999903    2    3    3    0    0 -0.18460358165E-03  0.96909576359E-01  0.85023156853E-01  0.13075371115E+00  0.21819617525E-01 0.  0.
         14    1    1    2    0    0  0.55440161550E-03 -0.15987014749E-01  0.17296308393E-01  0.23559590102E-01  0.00000000000E+00 0.  1.
     999901    1    3    3    0    0 -0.36979803385E-03 -0.80922561610E-01 -0.10231946525E+00  0.88961669875E+00  0.88000000000E+00 0.  1.
        -11    1    4    4    0    0 -0.62530844775E-02  0.11304293740E-01  0.16315518359E-01  0.20816949410E-01  0.51100000000E-03 0.  1.
         11    1    4    4    0    0  0.60684808959E-02  0.85605282619E-01  0.68707638494E-01  0.10993676174E+00  0.51100000000E-03 0. -1.
</event>
<event>
 8    1  0.1111182E+005  0.1043930E+01  0.7957747E-01            NaN
         13   -1    0    0    0    0  0.00000000000E+00  0.00000000000E+00  0.74505805969E-08  0.10566000000E+00  0.10566000000E+00 0. -1.
     999900   -1    0    0    0    0 -0.00000000000E+00 -0.00000000000E+00 -0.74505805969E-08  0.93827000000E+00  0.93827000000E+00 0. -1.
     999902    2    1    2    0    0 -0.18144038407E-01  0.14852227104E-01 -0.55908122952E-02  0.10198249806E+01  0.10195400625E+01 0.  0.
     999903    2    3    3    0    0  0.28428636121E-01  0.12027802414E+00 -0.39910423019E-01  0.13164625510E+00  0.21515207957E-01 0.  0.
         14    1    1    2    0    0  0.18144038407E-01 -0.14852227104E-01  0.55908122952E-02  0.24105019431E-01  0.00000000000E+00 0. -1.
     999901    1    3    3    0    0 -0.46572674528E-01 -0.10542579704E+00  0.34319610724E-01  0.88817872547E+00  0.88000000000E+00 0.  1.
        -11    1    4    4    0    0  0.25649024669E-01  0.64514237760E-01 -0.25691329536E-01  0.74028811111E-01  0.51100000000E-03 0. -1.
         11    1    4    4    0    0  0.27796114527E-02  0.55763786382E-01 -0.14219093483E-01  0.57617443990E-01  0.51100000000E-03 0.  1.
</event>
<event>
 8    1  0.1111182E+005  0.1043930E+01  0.7957747E-01            NaN
         13   -1    0    0    0    0  0.00000000000E+00  0.00000000000E+00  0.74505805969E-08  0.10566000000E+00  0.10566000000E+00 0.  1.
     999900   -1    0    0    0    0 -0.00000000000E+00 -0.00000000000E+00 -0.74505805969E-08  0.93827000000E+00  0.93827000000E+00 0.  1.
     999902    2    1    2    0    0 -0.20177709387E-01 -0.63298595385E-02  0.71076245304E-02  0.10216202397E+01  0.10213766146E+01 0.  0.
     999903    2    3    3    0    0  0.58289880824E-01 -0.11457190620E+00  0.18808114573E-01  0.13144587204E+00  0.19996004788E-01 0.  0.
         14    1    1    2    0    0  0.20177709387E-01  0.63298595385E-02 -0.71076245304E-02  0.22309760293E-01  0.00000000000E+00 0. -1.
     999901    1    3    3    0    0 -0.78467590211E-01  0.10824204666E+00 -0.11700490042E-01  0.89017436766E+00  0.88000000000E+00 0.  1.
        -11    1    4    4    0    0  0.11673703998E-01 -0.30746913360E-01 -0.31664530538E-02  0.33044448734E-01  0.51100000000E-03 0. -1.
         11    1    4    4    0    0  0.46616176826E-01 -0.83824992837E-01  0.21974567626E-01  0.98401423309E-01  0.51100000000E-03 0.  1.
</event>
<event>
 8    1  0.1111182E+005  0.1043930E+01  0.7957747E-01            NaN
         13   -1    0    0    0    0  0.00000000000E+00  0.00000000000E+00  0.74505805969E-08  0.10566000000E+00  0.10566000000E+00 0.  1.
     999900   -1    0    0    0    0 -0.00000000000E+00 -0.00000000000E+00 -0.74505805969E-08  0.93827000000E+00  0.93827000000E+00 0.  1.
     999902    2    1    2    0    0 -0.33973991285E-02  0.20340536667E-01 -0.12242354120E-01  0.10199476109E+01  0.10196656187E+01 0.  0.
     999903    2    3    3    0    0 -0.83763111452E-01  0.47898027598E-01 -0.88635097078E-01  0.13256161022E+00  0.20147460917E-01 0.  0.
         14    1    1    2    0    0  0.33973991285E-02 -0.20340536667E-01  0.12242354120E-01  0.23982389104E-01  0.00000000000E+00 0.  1.
     999901    1    3    3    0    0  0.80365712323E-01 -0.27557490930E-01  0.76392742958E-01  0.88738600068E+00  0.88000000000E+00 0. -1.
        -11    1    4    4    0    0 -0.18728210970E-01  0.21004578761E-01 -0.27204452014E-01  0.39144367991E-01  0.51100000000E-03 0. -1.
         11    1    4    4    0    0 -0.65034900482E-01  0.26893448837E-01 -0.61430645064E-01  0.93417242226E-01  0.51100000000E-03 0.  1.
</event>
<event>
 8    1  0.1111182E+005  0.1043930E+01  0.7957747E-01            NaN
         13   -1    0    0    0    0  0.00000000000E+00  0.00000000000E+00  0.74505805969E-08  0.10566000000E+00  0.10566000000E+00 0.  1.
     999900   -1    0    0    0    0 -0.00000000000E+00 -0.00000000000E+00 -0.74505805969E-08  0.93827000000E+00  0.93827000000E+00 0. -1.
     999902    2    1    2    0    0 -0.69203821499E-02  0.10712486060E-01 -0.19745916885E-01  0.10204236119E+01  0.10201528305E+01 0.  0.
     999903    2    3    3    0    0 -0.64893039396E-01  0.24247245618E-01  0.10708352803E+00  0.12934015523E+00  0.21516465728E-01 0.  0.
         14    1    1    2    0    0  0.69203821499E-02 -0.10712486060E-01  0.19745916885E-01  0.23506388075E-01  0.00000000000E+00 0.  1.
     999901    1    3    3    0    0  0.57972657247E-01 -0.13534759559E-01 -0.12682944491E+00  0.89108345670E+00  0.88000000000E+00 0. -1.
        -11    1    4    4    0    0 -0.24868433549E-01  0.15103874796E-01  0.61210999454E-01  0.67776202285E-01  0.51100000000E-03 0. -1.
         11    1    4    4    0    0 -0.40024605847E-01  0.91433708222E-02  0.45872528573E-01  0.61563952942E-01  0.51100000000E-03 0.  1.
</event>
<event>
 8    1  0.1111182E+005  0.1043930E+01  0.7957747E-01            NaN
         13   -1    0    0    0    0  0.00000000000E+00  0.00000000000E+00  0.74505805969E-08  0.10566000000E+00  0.10566000000E+00 0.  1.
     999900   -1    0    0    0    0 -0.00000000000E+00 -0.00000000000E+00 -0.74505805969E-08  0.93827000000E+00  0.93827000000E+00 0.  1.
     999902    2    1    2    0    0  0.57328501294E-02  0.10544792049E-01  0.21567499866E-01  0.10192477136E+01  0.10189488145E+01 0.  0.
     999903    2    3    3    0    0  0.12644677827E+00  0.24649690397E-01 -0.48449938024E-02  0.13050229427E+00  0.20272638562E-01 0.  0.
         14    1    1    2    0    0 -0.57328501294E-02 -0.10544792049E-01 -0.21567499866E-01  0.24682286370E-01  0.00000000000E+00 0. -1.
     999901    1    3    3    0    0 -0.12071392814E+00 -0.14104898348E-01  0.26412493669E-01  0.88874541936E+00  0.88000000000E+00 0. -1.
        -11    1    4    4    0    0  0.56756615333E-01  0.77633351671E-02 -0.11689181009E-01  0.58467776002E-01  0.51100000000E-03 0.  1.
         11    1    4    4    0    0  0.69690162937E-01  0.16886355230E-01  0.68441872062E-02  0.72034518272E-01  0.51100000000E-03 0. -1.
</event>
<event>
 8    1  0.1111182E+005  0.1043930E+01  0.7957747E-01            NaN
         13   -1    0    0    0    0  0.00000000000E+00  0.00000000000E+00  0.74505805969E-08  0.10566000000E+00  0.10566000000E+00 0.  1.
     999900   -1    0    0    0    0 -0.00000000000E+00 -0.00000000000E+00 -0.74505805969E-08  0.93827000000E+00  0.93827000000E+00 0.  1.
     999902    2    1    2    0    0 -0.19249745893E-01 -0.87714605378E-02  0.10330377495E-01  0.10203883786E+01  0.10201167753E+01 0.  0.
     999903    2    3    3    0    0 -0.61725871626E-01 -0.10962997155E+00  0.39465104939E-01  0.13313109192E+00  0.18373329523E-01 0.  0.
         14    1    1    2    0    0  0.19249745893E-01  0.87714605378E-02 -0.10330377495E-01  0.23541621357E-01  0.00000000000E+00 0. -1.
     999901    1    3    3    0    0  0.42476125733E-01  0.10085851101E+00 -0.29134727445E-01  0.88725728672E+00  0.88000000000E+00 0.  1.
        -11    1    4    4    0    0 -0.20210881985E-01 -0.47256888668E-01  0.86895359109E-02  0.52129285748E-01  0.51100000000E-03 0. -1.
         11    1    4    4    0    0 -0.41514989642E-01 -0.62373082882E-01  0.30775569029E-01  0.81001806172E-01  0.51100000000E-03 0.  1.
</event>
<event>
 8    1  0.1240319E+005  0.1043930E+01  0.7957747E-01            NaN
         13   -1    0    0    0    0  0.00000000000E+00  0.00000000000E+00  0.74505805969E-08  0.10566000000E+00  0.10566000000E+00 0.  1.
     999900   -1    0    0    0    0 -0.00000000000E+00 -0.00000000000E+00 -0.74505805969E-08  0.93827000000E+00  0.93827000000E+00 0.  1.
     999902    2    1    2    0    0  0.65186161643E-02  0.18556339095E-01 -0.13191204847E-01  0.10202479823E+01  0.10199730915E+01 0.  0.
     999903    2    3    3    0    0 -0.62465002943E-01  0.10819224238E+00 -0.42496277493E-01  0.13252498375E+00  0.12227011659E-01 0.  0.
         14    1    1    2    0    0 -0.65186161643E-02 -0.18556339095E-01  0.13191204847E-01  0.23682017706E-01  0.00000000000E+00 0.  1.
     999901    1    3    3    0    0  0.68983619107E-01 -0.89635903281E-01  0.29305072646E-01  0.88772299854E+00  0.88000000000E+00 0. -1.
        -11    1    4    4    0    0 -0.28014190806E-01  0.50739254447E-01 -0.13419172159E-01  0.59494555472E-01  0.51100000000E-03 0. -1.
         11    1    4    4    0    0 -0.34450812137E-01  0.57452987929E-01 -0.29077105334E-01  0.73030428278E-01  0.51100000000E-03 0.  1.
</event>
<event>
 8    1  0.1111182E+005  0.1043930E+01  0.7957747E-01            NaN
         13   -1    0    0    0    0  0.00000000000E+00  0.00000000000E+00  0.74505805969E-08  0.10566000000E+00  0.10566000000E+00 0. -1.
     999900   -1    0    0    0    0 -0.00000000000E+00 -0.00000000000E+00 -0.74505805969E-08  0.93827000000E+00  0.93827000000E+00 0.  1.
     999902    2    1    2    0    0 -0.79340914340E-02  0.11892045959E-01  0.20543629900E-01  0.10189017900E+01  0.10185943483E+01 0.  0.
     999903    2    3    3    0    0 -0.91409207233E-01 -0.55814496236E-01  0.72487500121E-01  0.13084186163E+00  0.19855828436E-01 0.  0.
         14    1    1    2    0    0  0.79340914340E-02 -0.11892045959E-01 -0.20543629900E-01  0.25028209953E-01  0.00000000000E+00 0.  1.
     999901    1    3    3    0    0  0.83475115799E-01  0.67706542195E-01 -0.51943870221E-01  0.88805992842E+00  0.88000000000E+00 0.  1.
        -11    1    4    4    0    0 -0.37221487540E-01 -0.25001940251E-01  0.18995147635E-01  0.48699208471E-01  0.51100000000E-03 0. -1.
         11    1    4    4    0    0 -0.54187719693E-01 -0.30812555985E-01  0.53492352486E-01  0.82142653155E-01  0.51100000000E-03 0.  1.
</event>
<event>
 8    1  0.1111182E+005  0.1043930E+01  0.7957747E-01            NaN
         13   -1    0    0    0    0  0.00000000000E+00  0.00000000000E+00  0.74505805969E-08  0.10566000000E+00  0.10566000000E+00 0. -1.
     999900   -1    0    0    0    0 -0.00000000000E+00 -0.00000000000E+00 -0.74505805969E-08  0.93827000000E+00  0.93827000000E+00 0.  1.
     999902    2    1    2    0    0 -0.23753858892E-01  0.12228954070E-02  0.20472233070E-02  0.10200567428E+01  0.10197773415E+01 0.  0.
     999903    2    3    3    0    0 -0.64679699630E-01 -0.59868612998E-01  0.96023148491E-01  0.13200349477E+00  0.20898880825E-01 0.  0.
         14    1    1    2    0    0  0.23753858892E-01 -0.12228954070E-02 -0.20472233070E-02  0.23873257187E-01  0.00000000000E+00 0.  1.
     999901    1    3    3    0    0  0.40925840738E-01  0.61091508405E-01 -0.93975925184E-01  0.88805324804E+00  0.88000000000E+00 0.  1.
        -11    1    4    4    0    0 -0.28071844607E-01 -0.16329917474E-01  0.24883131240E-01  0.40916084926E-01  0.51100000000E-03 0. -1.
         11    1    4    4    0    0 -0.36607855023E-01 -0.43538695524E-01  0.71140017251E-01  0.91087409848E-01  0.51100000000E-03 0.  1.
</event>
<event>
 8    1  0.1111182E+005  0.1043930E+01  0.7957747E-01            NaN
         13   -1    0    0    0    0  0.00000000000E+00  0.00000000000E+00  0.74505805969E-08  0.10566000000E+00  0.10566000000E+00 0. -1.
     999900   -1    0    0    0    0 -0.00000000000E+00 -0.00000000000E+00 -0.74505805969E-08  0.93827000000E+00  0.93827000000E+00 0.  1.
     999902    2    1    2    0    0  0.12871031510E-01  0.18801312099E-01  0.10516575723E-02  0.10211208182E+01  0.10208660376E+01 0.  0.
     999903    2    3    3    0    0  0.12409603815E+00  0.35402056701E-01  0.27558801105E-01  0.13356844487E+00  0.20685976956E-01 0.  0.
         14    1    1    2    0    0 -0.12871031510E-01 -0.18801312099E-01 -0.10516575723E-02  0.22809181757E-01  0.00000000000E+00 0. -1.
     999901    1    3    3    0    0 -0.11122500664E+00 -0.16600744602E-01 -0.26507143533E-01  0.88755237337E+00  0.88000000000E+00 0.  1.
        -11    1    4    4    0    0  0.16715417664E-01 -0.18026662402E-02  0.92916480043E-03  0.16845749063E-01  0.51100000000E-03 0. -1.
         11    1    4    4    0    0  0.10738062049E+00  0.37204722942E-01  0.26629636305E-01  0.11672269581E+00  0.51100000000E-03 0.  1.
</event>
<event>
 8    1  0.1111182E+005  0.1043930E+01  0.7957747E-01            NaN
         13   -1    0    0    0    0  0.00000000000E+00  0.00000000000E+00  0.74505805969E-08  0.10566000000E+00  0.10566000000E+00 0. -1.
     999900   -1    0    0    0    0 -0.00000000000E+00 -0.00000000000E+00 -0.74505805969E-08  0.93827000000E+00  0.93827000000E+00 0.  1.
     999902    2    1    2    0    0 -0.95653408944E-02 -0.67448332745E-02  0.21254891200E-01  0.10196656450E+01  0.10193769022E+01 0.  0.
     999903    2    3    3    0    0 -0.92355190574E-01  0.89732299019E-01  0.94793918409E-02  0.13045213937E+00  0.18615452779E-01 0.  0.
         14    1    1    2    0    0  0.95653408944E-02  0.67448332745E-02 -0.21254891200E-01  0.24264354973E-01  0.00000000000E+00 0.  1.
     999901    1    3    3    0    0  0.82789849680E-01 -0.96477132294E-01  0.11775499359E-01  0.88921350566E+00  0.88000000000E+00 0.  1.
        -11    1    4    4    0    0 -0.58249726540E-01  0.65450045861E-01  0.12347888368E-01  0.88484295857E-01  0.51100000000E-03 0.  1.
         11    1    4    4    0    0 -0.34105464034E-01  0.24282253158E-01 -0.28684965270E-02  0.41967843509E-01  0.51100000000E-03 0. -1.
</event>
<event>
 8    1  0.1111182E+005  0.1043930E+01  0.7957747E-01            NaN
         13   -1    0    0    0    0  0.00000000000E+00  0.00000000000E+00  0.74505805969E-08  0.10566000000E+00  0.10566000000E+00 0.  1.
     999900   -1    0    0    0    0 -0.00000000000E+00 -0.00000000000E+00 -0.74505805969E-08  0.93827000000E+00  0.93827000000E+00 0. -1.
     999902    2    1    2    0    0 -0.13461442094E-03 -0.77830491023E-02  0.22260565968E-01  0.10203476598E+01  0.10200751051E+01 0.  0.
     999903    2    3    3    0    0  0.10980076561E+00 -0.33128669180E-01  0.62434670712E-01  0.13223609754E+00  0.20846595325E-01 0.  0.
         14    1    1    2    0    0  0.13461442094E-03  0.77830491023E-02 -0.22260565968E-01  0.23582340248E-01  0.00000000000E+00 0. -1.
     999901    1    3    3    0    0 -0.10993538003E+00  0.25345620078E-01 -0.40174104744E-01  0.88811156221E+00  0.88000000000E+00 0. -1.
        -11    1    4    4    0    0  0.72742990653E-01 -0.16350358027E-01  0.30668102654E-01  0.80620534222E-01  0.51100000000E-03 0.  1.
         11    1    4    4    0    0  0.37057774954E-01 -0.16778311153E-01  0.31766568058E-01  0.51615563320E-01  0.51100000000E-03 0. -1.
</event>
<event>
 8    1  0.1111182E+005  0.1043930E+01  0.7957747E-01            NaN
         13   -1    0    0    0    0  0.00000000000E+00  0.00000000000E+00  0.74505805969E-08  0.10566000000E+00  0.10566000000E+00 0.  1.
     999900   -1    0    0    0    0 -0.00000000000E+00 -0.00000000000E+00 -0.74505805969E-08  0.93827000000E+00  0.93827000000E+00 0.  1.
     999902    2    1    2    0    0  0.15285194910E-01  0.28167787339E-02 -0.18426829523E-01  0.10198235803E+01  0.10195386287E+01 0.  0.
     999903    2    3    3    0    0 -0.12077070015E+00  0.31496325050E-01  0.20648525420E-01  0.12804972647E+00  0.19818938955E-01 0.  0.
         14    1    1    2    0    0 -0.15285194910E-01 -0.28167787339E-02  0.18426829523E-01  0.24106419728E-01  0.00000000000E+00 0.  1.
     999901    1    3    3    0    0  0.13605589506E+00 -0.28679546316E-01 -0.39075354943E-01  0.89177385380E+00  0.88000000000E+00 0. -1.
        -11    1    4    4    0    0 -0.11450706071E+00  0.32011621071E-01  0.15490813218E-01  0.11990344970E+00  0.51100000000E-03 0. -1.
         11    1    4    4    0    0 -0.62636394428E-02 -0.51529602115E-03  0.51577122017E-02  0.81462767700E-02  0.51100000000E-03 0.  1.
</event>
<event>
 8    1  0.1111182E+005  0.1043930E+01  0.7957747E-01            NaN
         13   -1    0    0    0    0  0.00000000000E+00  0.00000000000E+00  0.74505805969E-08  0.10566000000E+00  0.10566000000E+00 0. -1.
     999900   -1    0    0    0    0 -0.00000000000E+00 -0.00000000000E+00 -0.74505805969E-08  0.93827000000E+00  0.93827000000E+00 0. -1.
     999902    2    1    2    0    0 -0.50207378057E-02  0.24254087116E-01 -0.23806670153E-02  0.10190475539E+01  0.10187437268E+01 0.  0.
     999903    2    3    3    0    0 -0.62674891472E-01 -0.83805381259E-01 -0.70629811227E-01  0.12794778627E+00  0.20750465714E-01 0.  0.
         14    1    1    2    0    0  0.50207378057E-02 -0.24254087116E-01  0.23806670153E-02  0.24882446129E-01  0.00000000000E+00 0.  1.
     999901    1    3    3    0    0  0.57654153666E-01  0.10805946837E+00  0.68249144212E-01  0.89109976761E+00  0.88000000000E+00 0.  1.
        -11    1    4    4    0    0 -0.31973766613E-01 -0.59403069426E-01 -0.44257628928E-01  0.80684851416E-01  0.51100000000E-03 0.  1.
         11    1    4    4    0    0 -0.30701124859E-01 -0.24402311832E-01 -0.26372182299E-01  0.47262934849E-01  0.51100000000E-03 0. -1.
</event>
<event>
 8    1  0.1111182E+005  0.1043930E+01  0.7957747E-01            NaN
         13   -1    0    0    0    0  0.00000000000E+00  0.00000000000E+00  0.74505805969E-08  0.10566000000E+00  0.10566000000E+00 0. -1.
     999900   -1    0    0    0    0 -0.00000000000E+00 -0.00000000000E+00 -0.74505805969E-08  0.93827000000E+00  0.93827000000E+00 0.  1.
     999902    2    1    2    0    0  0.17591305323E-01  0.11427882480E-01 -0.83466394291E-02  0.10213530890E+01  0.10211035283E+01 0.  0.
     999903    2    3    3    0    0 -0.11806719952E+00  0.11269447842E-01 -0.49022815152E-01  0.13002946297E+00  0.20917953483E-01 0.  0.
         14    1    1    2    0    0 -0.17591305323E-01 -0.11427882480E-01  0.83466394291E-02  0.22576911009E-01  0.00000000000E+00 0.  1.
     999901    1    3    3    0    0  0.13565850484E+00  0.15843463820E-03  0.40676175722E-01  0.89132362602E+00  0.88000000000E+00 0.  1.
        -11    1    4    4    0    0 -0.20348488622E-01  0.10063333290E-01 -0.93255086621E-02  0.24547054791E-01  0.51100000000E-03 0.  1.
         11    1    4    4    0    0 -0.97718710894E-01  0.12061145518E-02 -0.39697306490E-01  0.10548240818E+00  0.51100000000E-03 0. -1.
</event>
<event>
 8    1  0.1111182E+005  0.1043930E+01  0.7957747E-01            NaN
         13   -1    0    0    0    0  0.00000000000E+00  0.00000000000E+00  0.74505805969E-08  0.10566000000E+00  0.10566000000E+00 0. -1.
     999900   -1    0    0    0    0 -0.00000000000E+00 -0.00000000000E+00 -0.74505805969E-08  0.93827000000E+00  0.93827000000E+00 0. -1.
     999902    2    1    2    0    0 -0.13041743970E-01  0.71901043346E-02  0.17335288794E-01  0.10210761836E+01  0.10208203935E+01 0.  0.
     999903    2    3    3    0    0 -0.72801056491E-01  0.51649784122E-01  0.98380386243E-01  0.13421872811E+00  0.19190428629E-01 0.  0.
         14    1    1    2    0    0  0.13041743970E-01 -0.71901043346E-02 -0.17335288794E-01  0.22853816392E-01  0.00000000000E+00 0.  1.
     999901    1    3    3    0    0  0.59759312521E-01 -0.44459679787E-01 -0.81045097449E-01  0.88685745550E+00  0.88000000000E+00 0.  1.
        -11    1    4    4    0    0 -0.13367944521E-01  0.81880937435E-02  0.29408593441E-01  0.33329766111E-01  0.51100000000E-03 0.  1.
         11    1    4    4    0    0 -0.59433111970E-01  0.43461690378E-01  0.68971792802E-01  0.10088896199E+00  0.51100000000E-03 0. -1.
</event>
<event>
 8    1  0.1111182E+005  0.1043930E+01  0.7957747E-01            NaN
         13   -1    0    0    0    0  0.00000000000E+00  0.00000000000E+00  0.74505805969E-08  0.10566000000E+00  0.10566000000E+00 0.  1.
     999900   -1    0    0    0    0 -0.00000000000E+00 -0.00000000000E+00 -0.74505805969E-08  0.93827000000E+00  0.93827000000E+00 0. -1.
     999902    2    1    2    0    0  0.17135570184E-01 -0.20283975018E-01  0.57390976415E-02  0.10167637590E+01  0.10164007758E+01 0.  0.
     999903    2    3    3    0    0  0.17921843336E-01  0.12213102375E+00  0.85127799803E-02  0.12530969770E+00  0.19821036396E-01 0.  0.
         14    1    1    2    0    0 -0.17135570184E-01  0.20283975018E-01 -0.57390976415E-02  0.27166240995E-01  0.00000000000E+00 0. -1.
     999901    1    3    3    0    0 -0.78627315201E-03 -0.14241499877E+00 -0.27736823388E-02  0.89145406130E+00  0.88000000000E+00 0. -1.
        -11    1    4    4    0    0  0.20647930027E-01  0.99917453442E-01  0.11697543451E-01  0.10269823835E+00  0.51100000000E-03 0. -1.
         11    1    4    4    0    0 -0.27260866913E-02  0.22213570311E-01 -0.31847634710E-02  0.22611459351E-01  0.51100000000E-03 0.  1.
</event>
<event>
 8    1  0.1111182E+005  0.1043930E+01  0.7957747E-01            NaN
         13   -1    0    0    0    0  0.00000000000E+00  0.00000000000E+00  0.74505805969E-08  0.10566000000E+00  0.10566000000E+00 0. -1.
     999900   -1    0    0    0    0 -0.00000000000E+00 -0.00000000000E+00 -0.74505805969E-08  0.93827000000E+00  0.93827000000E+00 0. -1.
     999902    2    1    2    0    0 -0.21162029629E-01  0.14557361355E-02 -0.11340601814E-01  0.10198767276E+01  0.10195930460E+01 0.  0.
     999903    2    3    3    0    0  0.76451297985E-01 -0.99713953236E-01  0.16943153941E-01  0.12826939324E+00  0.19449764578E-01 0.  0.
         14    1    1    2    0    0  0.21162029629E-01 -0.14557361355E-02  0.11340601814E-01  0.24053272443E-01  0.00000000000E+00 0. -1.
     999901    1    3    3    0    0 -0.97613327614E-01  0.10116968937E+00 -0.28283755755E-01  0.89160733432E+00  0.88000000000E+00 0. -1.
        -11    1    4    4    0    0  0.42995452859E-01 -0.69145321462E-01  0.59958176878E-02  0.81644934915E-01  0.51100000000E-03 0. -1.
         11    1    4    4    0    0  0.33455845126E-01 -0.30568631774E-01  0.10947336253E-01  0.46624458321E-01  0.51100000000E-03 0.  1.
</event>
<event>
 8    1  0.1111182E+005  0.1043930E+01  0.7957747E-01            NaN
         13   -1    0    0    0    0  0.00000000000E+00  0.00000000000E+00  0.74505805969E-08  0.10566000000E+00  0.10566000000E+00 0.  1.
     999900   -1    0    0    0    0 -0.00000000000E+00 -0.00000000000E+00 -0.74505805969E-08  0.93827000000E+00  0.93827000000E+00 0.  1.
     999902    2    1    2    0    0 -0.50751598501E-02 -0.16955947807E-01  0.15879028419E-01  0.10201517545E+01  0.10198745988E+01 0.  0.
     999903    2    3    3    0    0 -0.57543181424E-01  0.11083603652E+00 -0.22740575841E-01  0.12853796013E+00  0.20224457606E-01 0.  0.
         14    1    1    2    0    0  0.50751598501E-02  0.16955947807E-01 -0.15879028419E-01  0.23778245459E-01  0.00000000000E+00 0. -1.
     999901    1    3    3    0    0  0.52468021574E-01 -0.12779198433E+00  0.38619604261E-01  0.89161379441E+00  0.88000000000E+00 0. -1.
        -11    1    4    4    0    0 -0.43056760778E-01  0.65127576476E-01 -0.19517966018E-01  0.80477934770E-01  0.51100000000E-03 0. -1.
         11    1    4    4    0    0 -0.14486420646E-01  0.45708460045E-01 -0.32226098234E-02  0.48060025363E-01  0.51100000000E-03 0.  1.
</event>
<event>
 8    1  0.1111182E+005  0.1043930E+01  0.7957747E-01            NaN
         13   -1    0    0    0    0  0.00000000000E+00  0.00000000000E+00  0.74505805969E-08  0.10566000000E+00  0.10566000000E+00 0.  1.
     999900   -1    0    0    0    0 -0.00000000000E+00 -0.00000000000E+00 -0.74505805969E-08  0.93827000000E+00  0.93827000000E+00 0.  1.
     999902    2    1    2    0    0 -0.18623860708E-02  0.23542692848E-01 -0.11110951674E-01  0.10178305725E+01  0.10174958940E+01 0.  0.
     999903    2    3    3    0    0 -0.67241817084E-02 -0.88343323773E-01  0.86547379010E-01  0.12537370110E+00  0.19451443092E-01 0.  0.
         14    1    1    2    0    0  0.18623860708E-02 -0.23542692848E-01  0.11110951674E-01  0.26099427494E-01  0.00000000000E+00 0.  1.
     999901    1    3    3    0    0  0.48617956375E-02  0.11188601662E+00 -0.97658330684E-01  0.89245687141E+00  0.88000000000E+00 0.  1.
        -11    1    4    4    0    0 -0.12517343775E-01 -0.66503278949E-01  0.59351943244E-01  0.90012689628E-01  0.51100000000E-03 0. -1.
         11    1    4    4    0    0  0.57931620663E-02 -0.21840044824E-01  0.27195435766E-01  0.35361011469E-01  0.51100000000E-03 0.  1.
</event>
<event>
 8    1  0.1111182E+005  0.1043930E+01  0.7957747E-01            NaN
         13   -1    0    0    0    0  0.00000000000E+00  0.00000000000E+00  0.74505805969E-08  0.10566000000E+00  0.10566000000E+00 0.  1.
     999900   -1    0    0    0    0 -0.00000000000E+00 -0.00000000000E+00 -0.74505805969E-08  0.93827000000E+00  0.93827000000E+00 0.  1.
     999902    2    1    2    0    0 -0.12719294063E-01  0.14714462391E-02  0.20089520266E-01  0.10201070191E+01  0.10198288072E+01 0.  0.
     999903    2    3    3    0    0 -0.49022308207E-01  0.40724797551E-01  0.11549849270E+00  0.13333669569E+00  0.19418464520E-01 0.  0.
         14    1    1    2    0    0  0.12719294063E-01 -0.14714462391E-02 -0.20089520266E-01  0.23822980922E-01  0.00000000000E+00 0. -1.
     999901    1    3    3    0    0  0.36303014144E-01 -0.39253351312E-01 -0.95408972431E-01  0.88677032339E+00  0.88000000000E+00 0.  1.
        -11    1    4    4    0    0 -0.15985084889E-01  0.21861744074E-01  0.34630930801E-01  0.43966137902E-01  0.51100000000E-03 0.  1.
         11    1    4    4    0    0 -0.33037223318E-01  0.18863053477E-01  0.80867561896E-01  0.89370557787E-01  0.51100000000E-03 0. -1.
</event>
<event>
 8    1  0.1111182E+005  0.1043930E+01  0.7957747E-01            NaN
         13   -1    0    0    0    0  0.00000000000E+00  0.00000000000E+00  0.74505805969E-08  0.10566000000E+00  0.10566000000E+00 0.  1.
     999900   -1    0    0    0    0 -0.00000000000E+00 -0.00000000000E+00 -0.74505805969E-08  0.93827000000E+00  0.93827000000E+00 0.  1.
     999902    2    1    2    0    0 -0.22379112809E-01 -0.74574266388E-02 -0.21467783201E-02  0.10202435786E+01  0.10199685844E+01 0.  0.
     999903    2    3    3    0    0 -0.12360218365E+00  0.39495473051E-01 -0.21399322758E-01  0.13298862913E+00  0.19764925245E-01 0.  0.
         14    1    1    2    0    0  0.22379112809E-01  0.74574266388E-02  0.21467783201E-02  0.23686421413E-01  0.00000000000E+00 0. -1.
     999901    1    3    3    0    0  0.10122307084E+00 -0.46952899690E-01  0.19252544438E-01  0.88725494945E+00  0.88000000000E+00 0. -1.
        -11    1    4    4    0    0 -0.47999013289E-01  0.54717323387E-02 -0.63952235740E-02  0.48734024429E-01  0.51100000000E-03 0.  1.
         11    1    4    4    0    0 -0.75603170361E-01  0.34023740713E-01 -0.15004099184E-01  0.84254604706E-01  0.51100000000E-03 0. -1.
</event>
<event>
 8    1  0.1111182E+005  0.1043930E+01  0.7957747E-01            NaN
         13   -1    0    0    0    0  0.00000000000E+00  0.00000000000E+00  0.74505805969E-08  0.10566000000E+00  0.10566000000E+00 0. -1.
     999900   -1    0    0    0    0 -0.00000000000E+00 -0.00000000000E+00 -0.74505805969E-08  0.93827000000E+00  0.93827000000E+00 0. -1.
     999902    2    1    2    0    0  0.83850503662E-02 -0.21117720725E-01  0.59579770044E-02  0.10204403281E+01  0.10201699361E+01 0.  0.
     999903    2    3    3    0    0  0.61644388948E-01  0.12961687536E-01 -0.11210196815E+00  0.13030768970E+00  0.21099921774E-01 0.  0.
         14    1    1    2    0    0 -0.83850503662E-02  0.21117720725E-01 -0.59579770044E-02  0.23489671949E-01  0.00000000000E+00 0. -1.
     999901    1    3    3    0    0 -0.53259338582E-01 -0.34079408262E-01  0.11805994515E+00  0.89013263835E+00  0.88000000000E+00 0.  1.
        -11    1    4    4    0    0  0.54827537762E-01  0.39766728006E-02 -0.96308412196E-01  0.11089384205E+00  0.51100000000E-03 0. -1.
         11    1    4    4    0    0  0.68168511856E-02  0.89850147356E-02 -0.15793555953E-01  0.19413847649E-01  0.51100000000E-03 0.  1.
</event>
<event>
 8    1  0.1111182E+005  0.1043930E+01  0.7957747E-01            NaN
         13   -1    0    0    0    0  0.00000000000E+00  0.00000000000E+00  0.74505805969E-08  0.10566000000E+00  0.10566000000E+00 0.  1.
     999900   -1    0    0    0    0 -0.00000000000E+00 -0.00000000000E+00 -0.74505805969E-08  0.93827000000E+00  0.93827000000E+00 0.  1.
     999902    2    1    2    0    0 -0.10775503933E-01  0.23907865866E-01  0.19298167558E-02  0.10176351007E+01  0.10172953241E+01 0.  0.
     999903    2    3    3    0    0  0.78053804535E-01  0.83686292017E-01  0.56053677406E-01  0.12949462841E+00  0.23044569018E-01 0.  0.
         14    1    1    2    0    0  0.10775503933E-01 -0.23907865866E-01 -0.19298167558E-02  0.26294899277E-01  0.00000000000E+00 0.  1.
     999901    1    3    3    0    0 -0.88829308468E-01 -0.59778426152E-01 -0.54123860650E-01  0.88814047232E+00  0.88000000000E+00 0. -1.
        -11    1    4    4    0    0  0.17406416765E-01  0.18873503394E-01  0.23916231438E-01  0.35091875444E-01  0.51100000000E-03 0.  1.
         11    1    4    4    0    0  0.60647387771E-01  0.64812788623E-01  0.32137445967E-01  0.94402752962E-01  0.51100000000E-03 0. -1.
</event>
<event>
 8    1  0.1111182E+005  0.1043930E+01  0.7957747E-01            NaN
         13   -1    0    0    0    0  0.00000000000E+00  0.00000000000E+00  0.74505805969E-08  0.10566000000E+00  0.10566000000E+00 0.  1.
     999900   -1    0    0    0    0 -0.00000000000E+00 -0.00000000000E+00 -0.74505805969E-08  0.93827000000E+00  0.93827000000E+00 0.  1.
     999902    2    1    2    0    0 -0.14846532586E-01 -0.16797241063E-01  0.89194556178E-02  0.10198027638E+01  0.10195173140E+01 0.  0.
     999903    2    3    3    0    0  0.86238815622E-01 -0.94330469326E-01  0.16487421497E-01  0.13059698155E+00  0.21174649001E-01 0.  0.
         14    1    1    2    0    0  0.14846532586E-01  0.16797241063E-01 -0.89194556178E-02  0.24127236180E-01  0.00000000000E+00 0. -1.
     999901    1    3    3    0    0 -0.10108534821E+00  0.77533228263E-01 -0.75679658788E-02  0.88920578227E+00  0.88000000000E+00 0.  1.
        -11    1    4    4    0    0  0.61422466044E-01 -0.59053010798E-01  0.19317777274E-01  0.87369417184E-01  0.51100000000E-03 0.  1.
         11    1    4    4    0    0  0.24816349578E-01 -0.35277458528E-01 -0.28303557771E-02  0.43227564370E-01  0.51100000000E-03 0. -1.
</event>
<event>
 8    1  0.1111182E+005  0.1043930E+01  0.7957747E-01            NaN
         13   -1    0    0    0    0  0.00000000000E+00  0.00000000000E+00  0.74505805969E-08  0.10566000000E+00  0.10566000000E+00 0. -1.
     999900   -1    0    0    0    0 -0.00000000000E+00 -0.00000000000E+00 -0.74505805969E-08  0.93827000000E+00  0.93827000000E+00 0. -1.
     999902    2    1    2    0    0 -0.97243911609E-02  0.21606977737E-01 -0.21017196491E-02  0.10201425559E+01  0.10198651832E+01 0.  0.
     999903    2    3    3    0    0 -0.75899913922E-01 -0.93369053881E-01  0.42078807845E-01  0.12910349579E+00  0.20457502306E-01 0.  0.
         14    1    1    2    0    0  0.97243911609E-02 -0.21606977737E-01  0.21017196491E-02  0.23787444080E-01  0.00000000000E+00 0. -1.
     999901    1    3    3    0    0  0.66175522761E-01  0.11497603162E+00 -0.44180527494E-01  0.89103906013E+00  0.88000000000E+00 0. -1.
        -11    1    4    4    0    0 -0.26642268311E-01 -0.26390680872E-01  0.22328054985E-01  0.43647241127E-01  0.51100000000E-03 0. -1.
         11    1    4    4    0    0 -0.49257645612E-01 -0.66978373010E-01  0.19750752860E-01  0.85456254667E-01  0.51100000000E-03 0.  1.
</event>
<event>
 8    1  0.1111182E+005  0.1043930E+01  0.7957747E-01            NaN
         13   -1    0    0    0    0  0.00000000000E+00  0.00000000000E+00  0.74505805969E-08  0.10566000000E+00  0.10566000000E+00 0.  1.
     999900   -1    0    0    0    0 -0.00000000000E+00 -0.00000000000E+00 -0.74505805969E-08  0.93827000000E+00  0.93827000000E+00 0.  1.
     999902    2    1    2    0    0  0.55187149858E-03 -0.23010731605E-01  0.70358938681E-03  0.10209019004E+01  0.10206421493E+01 0.  0.
     999903    2    3    3    0    0  0.16032096651E-01 -0.48282481298E-01 -0.12043719569E+00  0.13210868011E+00  0.18956770079E-01 0.  0.
         14    1    1    2    0    0 -0.55187149858E-03  0.23010731605E-01 -0.70358938681E-03  0.23028099557E-01  0.00000000000E+00 0. -1.
     999901    1    3    3    0    0 -0.15480225152E-01  0.25271749693E-01  0.12114078507E+00  0.88879322033E+00  0.88000000000E+00 0. -1.
        -11    1    4    4    0    0  0.11848310439E-01 -0.18957098290E-01 -0.71368643414E-01  0.74789694608E-01  0.51100000000E-03 0. -1.
         11    1    4    4    0    0  0.41837862116E-02 -0.29325383009E-01 -0.49068552274E-01  0.57318985501E-01  0.51100000000E-03 0.  1.
</event>
<event>
 8    1  0.1111182E+005  0.1043930E+01  0.7957747E-01            NaN
         13   -1    0    0    0    0  0.00000000000E+00  0.00000000000E+00  0.74505805969E-08  0.10566000000E+00  0.10566000000E+00 0.  1.
     999900   -1    0    0    0    0 -0.00000000000E+00 -0.00000000000E+00 -0.74505805969E-08  0.93827000000E+00  0.93827000000E+00 0.  1.
     999902    2    1    2    0    0  0.22720719707E-01  0.51555635087E-02 -0.46629084169E-02  0.10201696622E+01  0.10198929287E+01 0.  0.
     999903    2    3    3    0    0  0.55782737363E-01  0.10285320274E+00 -0.59233465833E-01  0.13246708165E+00  0.18666256805E-01 0.  0.
         14    1    1    2    0    0 -0.22720719707E-01 -0.51555635087E-02  0.46629084169E-02  0.23760337834E-01  0.00000000000E+00 0.  1.
     999901    1    3    3    0    0 -0.33062017656E-01 -0.97697639235E-01  0.54570557416E-01  0.88770258052E+00  0.88000000000E+00 0. -1.
        -11    1    4    4    0    0  0.23497880558E-01  0.45540933886E-01 -0.36300719438E-01  0.62802312080E-01  0.51100000000E-03 0.  1.
         11    1    4    4    0    0  0.32284856805E-01  0.57312268857E-01 -0.22932746395E-01  0.69664769566E-01  0.51100000000E-03 0. -1.
</event>
<event>
 8    1  0.1111182E+005  0.1043930E+01  0.7957747E-01            NaN
         13   -1    0    0    0    0  0.00000000000E+00  0.00000000000E+00  0.74505805969E-08  0.10566000000E+00  0.10566000000E+00 0.  1.
     999900   -1    0    0    0    0 -0.00000000000E+00 -0.00000000000E+00 -0.74505805969E-08  0.93827000000E+00  0.93827000000E+00 0.  1.
     999902    2    1    2    0    0 -0.67044660769E-02 -0.63305201842E-02  0.21578867955E-01  0.10204635795E+01  0.10201937287E+01 0.  0.
     999903    2    3    3    0    0  0.29307294332E-01 -0.12640730327E+00  0.58842233322E-02  0.13144074364E+00  0.20107739400E-01 0.  0.
         14    1    1    2    0    0  0.67044660769E-02  0.63305201842E-02 -0.21578867955E-01  0.23466420549E-01  0.00000000000E+00 0. -1.
     999901    1    3    3    0    0 -0.36011760409E-01  0.12007678308E+00  0.15694644622E-01  0.88902283581E+00  0.88000000000E+00 0. -1.
        -11    1    4    4    0    0  0.79557205659E-02 -0.25641115160E-01 -0.66863269806E-02  0.27671797301E-01  0.51100000000E-03 0.  1.
         11    1    4    4    0    0  0.21351573766E-01 -0.10076618811E+00  0.12570550313E-01  0.10376894634E+00  0.51100000000E-03 0. -1.
</event>
<event>
 8    1  0.1111182E+005  0.1043930E+01  0.7957747E-01            NaN
         13   -1    0    0    0    0  0.00000000000E+00  0.00000000000E+00  0.74505805969E-08  0.10566000000E+00  0.10566000000E+00 0.  1.
     999900   -1    0    0    0    0 -0.00000000000E+00 -0.00000000000E+00 -0.74505805969E-08  0.93827000000E+00  0.93827000000E+00 0. -1.
     999902    2    1    2    0    0 -0.13459660739E-01 -0.19331798465E-01  0.44144674825E-03  0.10203699539E+01  0.10200979203E+01 0.  0.
     999903    2    3    3    0    0  0.88707562833E-01  0.89677747962E-01  0.20560145137E-02  0.12777607666E+00  0.20282218485E-01 0.  0.
         14    1    1    2    0    0  0.13459660739E-01  0.19331798465E-01 -0.44144674825E-03  0.23560046144E-01  0.00000000000E+00 0. -1.
     999901    1    3    3    0    0 -0.10216722357E+00 -0.10900954643E+00 -0.16145677654E-02  0.89259387720E+00  0.88000000000E+00 0.  1.
        -11    1    4    4    0    0  0.48593197164E-01  0.56271469812E-01 -0.74111112158E-02  0.74719226548E-01  0.51100000000E-03 0. -1.
         11    1    4    4    0    0  0.40114365669E-01  0.33406278150E-01  0.94671257295E-02  0.53056850109E-01  0.51100000000E-03 0.  1.
</event>
<event>
 8    1  0.1111182E+005  0.1043930E+01  0.7957747E-01            NaN
         13   -1    0    0    0    0  0.00000000000E+00  0.00000000000E+00  0.74505805969E-08  0.10566000000E+00  0.10566000000E+00 0. -1.
     999900   -1    0    0    0    0 -0.00000000000E+00 -0.00000000000E+00 -0.74505805969E-08  0.93827000000E+00  0.93827000000E+00 0. -1.
     999902    2    1    2    0    0 -0.23196152585E-01  0.28796912305E-02  0.80938739538E-02  0.10191940967E+01  0.10188938815E+01 0.  0.
     999903    2    3    3    0    0  0.75348159764E-01 -0.83037462963E-01 -0.57244620260E-01  0.12713924542E+00  0.17744738402E-01 0.  0.
         14    1    1    2    0    0  0.23196152585E-01 -0.28796912305E-02 -0.80938739538E-02  0.24735903296E-01  0.00000000000E+00 0.  1.
     999901    1    3    3    0    0 -0.98544312348E-01  0.85917154193E-01  0.65338494214E-01  0.89205485129E+00  0.88000000000E+00 0.  1.
        -11    1    4    4    0    0  0.57736725451E-01 -0.51779344123E-01 -0.41415785735E-01  0.87921319216E-01  0.51100000000E-03 0. -1.
         11    1    4    4    0    0  0.17611434313E-01 -0.31258118840E-01 -0.15828834525E-01  0.39217926199E-01  0.51100000000E-03 0.  1.
</event>
<event>
 8    1  0.1111182E+005  0.1043930E+01  0.7957747E-01            NaN
         13   -1    0    0    0    0  0.00000000000E+00  0.00000000000E+00  0.74505805969E-08  0.10566000000E+00  0.10566000000E+00 0.  1.
     999900   -1    0    0    0    0 -0.00000000000E+00 -0.00000000000E+00 -0.74505805969E-08  0.93827000000E+00  0.93827000000E+00 0. -1.
     999902    2    1    2    0    0 -0.11850178022E-01  0.11044372291E-01 -0.18411504549E-01  0.10194067788E+01  0.10191117663E+01 0.  0.
     999903    2    3    3    0    0  0.94420098422E-01  0.84578652392E-01 -0.20015199126E-01  0.12996693606E+00  0.20544898323E-01 0.  0.
         14    1    1    2    0    0  0.11850178022E-01 -0.11044372291E-01  0.18411504549E-01  0.24523221204E-01  0.00000000000E+00 0.  1.
     999901    1    3    3    0    0 -0.10627027644E+00 -0.73534280101E-01  0.16036945766E-02  0.88943984273E+00  0.88000000000E+00 0. -1.
        -11    1    4    4    0    0  0.33897602563E-01  0.39972799001E-01 -0.10393375770E-02  0.52423405681E-01  0.51100000000E-03 0. -1.
         11    1    4    4    0    0  0.60522495859E-01  0.44605853390E-01 -0.18975861549E-01  0.77543530382E-01  0.51100000000E-03 0.  1.
</event>
<event>
 8    1  0.1111182E+005  0.1043930E+01  0.7957747E-01            NaN
         13   -1    0    0    0    0  0.00000000000E+00  0.00000000000E+00  0.74505805969E-08  0.10566000000E+00  0.10566000000E+00 0.  1.
     999900   -1    0    0    0    0 -0.00000000000E+00 -0.00000000000E+00 -0.74505805969E-08  0.93827000000E+00  0.93827000000E+00 0. -1.
     999902    2    1    2    0    0 -0.32968441285E-02  0.27009649346E-01 -0.51052732731E-02  0.10162450916E+01  0.10158679206E+01 0.  0.
     999903    2    3    3    0    0 -0.10143421774E+00 -0.11721166619E-02  0.74979499912E-01  0.12672908446E+00  0.12168034109E-01 0.  0.
         14    1    1    2    0    0  0.32968441285E-02 -0.27009649346E-01  0.51052732731E-02  0.27684908419E-01  0.00000000000E+00 0.  1.
     999901    1    3    3    0    0  0.98137373611E-01  0.28181766008E-01 -0.80084773185E-01  0.88951600712E+00  0.88000000000E+00 0. -1.
        -11    1    4    4    0    0 -0.43971099322E-01 -0.61103639301E-02  0.35321511756E-01  0.56733274511E-01  0.51100000000E-03 0.  1.
         11    1    4    4    0    0 -0.57463118417E-01  0.49382472682E-02  0.39657988157E-01  0.69995809946E-01  0.51100000000E-03 0. -1.
</event>
<event>
 8    1  0.1111182E+005  0.1043930E+01  0.7957747E-01            NaN
         13   -1    0    0    0    0  0.00000000000E+00  0.00000000000E+00  0.74505805969E-08  0.10566000000E+00  0.10566000000E+00 0. -1.
     999900   -1    0    0    0    0 -0.00000000000E+00 -0.00000000000E+00 -0.74505805969E-08  0.93827000000E+00  0.93827000000E+00 0. -1.
     999902    2    1    2    0    0  0.22641610136E-02 -0.19318710855E-01 -0.12568905275E-01  0.10207714941E+01  0.10205087588E+01 0.  0.
     999903    2    3    3    0    0 -0.73959336558E-01  0.30634524838E-01 -0.10195803493E+00  0.13156074080E+00  0.22457294105E-01 0.  0.
         14    1    1    2    0    0 -0.22641610136E-02  0.19318710855E-01  0.12568905275E-01  0.23158505867E-01  0.00000000000E+00 0.  1.
     999901    1    3    3    0    0  0.76223497572E-01 -0.49953235693E-01  0.89389129651E-01  0.88921075333E+00  0.88000000000E+00 0.  1.
        -11    1    4    4    0    0 -0.13411438341E-01  0.88635634671E-02 -0.35928538609E-01  0.39364329580E-01  0.51100000000E-03 0.  1.
         11    1    4    4    0    0 -0.60547898217E-01  0.21770961371E-01 -0.66029496316E-01  0.92196411222E-01  0.51100000000E-03 0. -1.
</event>
<event>
 8    1  0.1111182E+005  0.1043930E+01  0.7957747E-01            NaN
         13   -1    0    0    0    0  0.00000000000E+00  0.00000000000E+00  0.74505805969E-08  0.10566000000E+00  0.10566000000E+00 0. -1.
     999900   -1    0    0    0    0 -0.00000000000E+00 -0.00000000000E+00 -0.74505805969E-08  0.93827000000E+00  0.93827000000E+00 0.  1.
     999902    2    1    2    0    0  0.15280856192E-01  0.24556462000E-02 -0.19488137716E-01  0.10190438136E+01  0.10187398940E+01 0.  0.
     999903    2    3    3    0    0 -0.48806282922E-01  0.52047713276E-01 -0.10790703021E+00  0.13090844377E+00  0.20051827134E-01 0.  0.
         14    1    1    2    0    0 -0.15280856192E-01 -0.24556462000E-02  0.19488137716E-01  0.24886186447E-01  0.00000000000E+00 0. -1.
     999901    1    3    3    0    0  0.64087139114E-01 -0.49592067076E-01  0.88418892491E-01  0.88813536979E+00  0.88000000000E+00 0. -1.
        -11    1    4    4    0    0 -0.32661966644E-01  0.36235163197E-01 -0.55858355067E-01  0.74163387657E-01  0.51100000000E-03 0. -1.
         11    1    4    4    0    0 -0.16144316278E-01  0.15812550079E-01 -0.52048675139E-01  0.56745056109E-01  0.51100000000E-03 0.  1.
</event>
<event>
 8    1  0.1111182E+005  0.1043930E+01  0.7957747E-01            NaN
         13   -1    0    0    0    0  0.00000000000E+00  0.00000000000E+00  0.74505805969E-08  0.10566000000E+00  0.10566000000E+00 0.  1.
     999900   -1    0    0    0    0 -0.00000000000E+00 -0.00000000000E+00 -0.74505805969E-08  0.93827000000E+00  0.93827000000E+00 0.  1.
     999902    2    1    2    0    0 -0.15312697881E-01  0.68027909047E-03  0.17937295422E-01  0.10203357621E+01  0.10200629291E+01 0.  0.
     999903    2    3    3    0    0  0.32558701298E-01  0.95829419851E-01  0.81587687780E-01  0.13163086038E+00  0.20658796409E-01 0.  0.
         14    1    1    2    0    0  0.15312697881E-01 -0.68027909047E-03 -0.17937295422E-01  0.23594237922E-01  0.00000000000E+00 0. -1.
     999901    1    3    3    0    0 -0.47871399179E-01 -0.95149140760E-01 -0.63650392358E-01  0.88870490169E+00  0.88000000000E+00 0.  1.
        -11    1    4    4    0    0  0.15210306003E-01  0.32142526701E-01  0.17530130082E-01  0.39649237232E-01  0.51100000000E-03 0. -1.
         11    1    4    4    0    0  0.17348395295E-01  0.63686893150E-01  0.64057557699E-01  0.91981623152E-01  0.51100000000E-03 0.  1.
</event>
<event>
 7    1  0.1111182E+005  0.1043930E+01  0.7957747E-01            NaN
         13   -1    0    0    0    0  0.00000000000E+00  0.00000000000E+00  0.74505805969E-08  0.10566000000E+00  0.10566000000E+00 0.  1.
     999900   -1    0    0    0    0 -0.00000000000E+00 -0.00000000000E+00 -0.74505805969E-08  0.93827000000E+00  0.93827000000E+00 0. -1.
     999903    2    1    2    0    0 -0.55555530388E-01 -0.21033524404E-01 -0.10139700345E+00  0.11977270767E+00  0.23137050155E-01 0.  0.
         14    1    1    2    0    0  0.40885856894E-02  0.87695260184E-02  0.39200492218E-01  0.40376970041E-01  0.00000000000E+00 0.  1.
     999901    1    1    2    0    0  0.51466944699E-01  0.12263998386E-01  0.62196511227E-01  0.88378032229E+00  0.88000000000E+00 0.  1.
        -11    1    3    3    0    0 -0.42458429324E-01 -0.59976209836E-02 -0.59212145040E-01  0.73109704687E-01  0.51100000000E-03 0. -1.
         11    1    3    3    0    0 -0.13097101064E-01 -0.15035903421E-01 -0.42184858405E-01  0.46663002985E-01  0.51100000000E-03 0.  1.
</event>
<event>
 8    1  0.1111182E+005  0.1043930E+01  0.7957747E-01            NaN
         13   -1    0    0    0    0  0.00000000000E+00  0.00000000000E+00  0.74505805969E-08  0.10566000000E+00  0.10566000000E+00 0.  1.
     999900   -1    0    0    0    0 -0.00000000000E+00 -0.00000000000E+00 -0.74505805969E-08  0.93827000000E+00  0.93827000000E+00 0. -1.
     999902    2    1    2    0    0  0.66353925214E-03  0.13353720216E-01  0.20567037305E-01  0.10193990980E+01  0.10191038985E+01 0.  0.
     999903    2    3    3    0    0  0.23985453237E-01 -0.55988683087E-01  0.11490002580E+00  0.13133885611E+00  0.18380549339E-01 0.  0.
         14    1    1    2    0    0 -0.66353925214E-03 -0.13353720216E-01 -0.20567037305E-01  0.24530901970E-01  0.00000000000E+00 0. -1.
     999901    1    3    3    0    0 -0.23321913985E-01  0.69342403302E-01 -0.94332988493E-01  0.88806024192E+00  0.88000000000E+00 0. -1.
        -11    1    4    4    0    0  0.14131253865E-01 -0.12496557215E-01  0.38458383638E-01  0.42838822009E-01  0.51100000000E-03 0. -1.
         11    1    4    4    0    0  0.98541993725E-02 -0.43492125872E-01  0.76441642160E-01  0.88500034098E-01  0.51100000000E-03 0.  1.
</event>
<event>
 8    1  0.1111182E+005  0.1043930E+01  0.7957747E-01            NaN
         13   -1    0    0    0    0  0.00000000000E+00  0.00000000000E+00  0.74505805969E-08  0.10566000000E+00  0.10566000000E+00 0.  1.
     999900   -1    0    0    0    0 -0.00000000000E+00 -0.00000000000E+00 -0.74505805969E-08  0.93827000000E+00  0.93827000000E+00 0.  1.
     999902    2    1    2    0    0  0.33873446193E-02  0.15351901559E-01 -0.15805277234E-01  0.10216373606E+01  0.10213941133E+01 0.  0.
     999903    2    3    3    0    0  0.99333475252E-01 -0.74974271649E-01  0.33484814669E-01  0.13046173773E+00  0.20267004804E-01 0.  0.
         14    1    1    2    0    0 -0.33873446193E-02 -0.15351901559E-01  0.15805277234E-01  0.22292639447E-01  0.00000000000E+00 0.  1.
     999901    1    3    3    0    0 -0.95946130633E-01  0.90326173209E-01 -0.49290091904E-01  0.89117562282E+00  0.88000000000E+00 0.  1.
        -11    1    4    4    0    0  0.20784168169E-01 -0.26631525262E-01  0.70511549658E-02  0.34513760902E-01  0.51100000000E-03 0. -1.
         11    1    4    4    0    0  0.78549307083E-01 -0.48342746387E-01  0.26433659704E-01  0.95947976830E-01  0.51100000000E-03 0.  1.
</event>
<event>
 8    1  0.1111182E+005  0.1043930E+01  0.7957747E-01            NaN
         13   -1    0    0    0    0  0.00000000000E+00  0.00000000000E+00  0.74505805969E-08  0.10566000000E+00  0.10566000000E+00 0. -1.
     999900   -1    0    0    0    0 -0.00000000000E+00 -0.00000000000E+00 -0.74505805969E-08  0.93827000000E+00  0.93827000000E+00 0.  1.
     999902    2    1    2    0    0  0.89464395344E-02  0.12028420105E-01 -0.15586631995E-01  0.10223044418E+01  0.10220756855E+01 0.  0.
     999903    2    3    3    0    0  0.33265373012E-03 -0.46988416300E-01  0.11952711628E+00  0.12999681029E+00  0.20110127632E-01 0.  0.
         14    1    1    2    0    0 -0.89464395344E-02 -0.12028420105E-01  0.15586631995E-01  0.21625558201E-01  0.00000000000E+00 0.  1.
     999901    1    3    3    0    0  0.86137858043E-02  0.59016836405E-01 -0.13511374827E+00  0.89230763151E+00  0.88000000000E+00 0. -1.
        -11    1    4    4    0    0 -0.68433312824E-02 -0.41283128203E-01  0.10070665812E+00  0.10905604049E+00  0.51100000000E-03 0. -1.
         11    1    4    4    0    0  0.71759850125E-02 -0.57052880972E-02  0.18820458161E-01  0.20940769794E-01  0.51100000000E-03 0.  1.
</event>
<event>
 8    1  0.1111182E+005  0.1043930E+01  0.7957747E-01            NaN
         13   -1    0    0    0    0  0.00000000000E+00  0.00000000000E+00  0.74505805969E-08  0.10566000000E+00  0.10566000000E+00 0.  1.
     999900   -1    0    0    0    0 -0.00000000000E+00 -0.00000000000E+00 -0.74505805969E-08  0.93827000000E+00  0.93827000000E+00 0. -1.
     999902    2    1    2    0    0 -0.76493582761E-02 -0.65677838376E-02 -0.20537510181E-01  0.10210512371E+01  0.10207948820E+01 0.  0.
     999903    2    3    3    0    0 -0.86070996160E-01  0.77306112589E-01  0.56723883919E-01  0.13023469775E+00  0.18947983215E-01 0.  0.
         14    1    1    2    0    0  0.76493582761E-02  0.65677838376E-02  0.20537510181E-01  0.22878762882E-01  0.00000000000E+00 0.  1.
     999901    1    3    3    0    0  0.78421637884E-01 -0.83873896427E-01 -0.77261394101E-01  0.89081653937E+00  0.88000000000E+00 0. -1.
        -11    1    4    4    0    0 -0.72039720016E-01  0.62533112970E-01  0.38423067623E-01  0.10284310733E+00  0.51100000000E-03 0. -1.
         11    1    4    4    0    0 -0.14031276144E-01  0.14772999619E-01  0.18300816296E-01  0.27391590426E-01  0.51100000000E-03 0.  1.
</event>
<event>
 7    1  0.1111182E+005  0.1043930E+01  0.7957747E-01            NaN
         13   -1    0    0    0    0  0.00000000000E+00  0.00000000000E+00  0.74505805969E-08  0.10566000000E+00  0.10566000000E+00 0.  1.
     999900   -1    0    0    0    0 -0.00000000000E+00 -0.00000000000E+00 -0.74505805969E-08  0.93827000000E+00  0.93827000000E+00 0.  1.
     999902    2    1    2    0    0 -0.21227424468E-02 -0.10757611422E-01  0.20773529901E-01  0.10204401770E+01  0.10201697815E+01 0.  0.
         14    1    1    2    0    0  0.21227424468E-02  0.10757611422E-01 -0.20773529901E-01  0.23489822978E-01  0.00000000000E+00 0. -1.
     999901    1    3    3    0    0 -0.57254865228E-01 -0.11096766581E+00  0.63570886532E-01  0.89108540559E+00  0.88000000000E+00 0.  1.
        -11    1    3    3    0    0  0.35193026342E-01  0.35662932268E-01 -0.14089491673E-02  0.50126241629E-01  0.51100000000E-03 0. -1.
         11    1    3    3    0    0  0.19939096439E-01  0.64547122120E-01 -0.41388407463E-01  0.79228529799E-01  0.51100000000E-03 0.  1.
</event>
<event>
 8    1  0.1111182E+005  0.1043930E+01  0.7957747E-01            NaN
         13   -1    0    0    0    0  0.00000000000E+00  0.00000000000E+00  0.74505805969E-08  0.10566000000E+00  0.10566000000E+00 0. -1.
     999900   -1    0    0    0    0 -0.00000000000E+00 -0.00000000000E+00 -0.74505805969E-08  0.93827000000E+00  0.93827000000E+00 0.  1.
     999902    2    1    2    0    0 -0.14672547963E-01 -0.98833875792E-02 -0.15494669268E-01  0.10204129894E+01  0.10201419603E+01 0.  0.
     999903    2    3    3    0    0 -0.39029153493E-02  0.87670173926E-01  0.91619211548E-01  0.12850152188E+00  0.20427164696E-01 0.  0.
         14    1    1    2    0    0  0.14672547963E-01  0.98833875792E-02  0.15494669268E-01  0.23517010641E-01  0.00000000000E+00 0. -1.
     999901    1    3    3    0    0 -0.10769632613E-01 -0.97553561505E-01 -0.10711388082E+00  0.89191146747E+00  0.88000000000E+00 0. -1.
        -11    1    4    4    0    0 -0.83224383610E-02  0.47858535493E-01  0.38586870073E-01  0.62039584644E-01  0.51100000000E-03 0. -1.
         11    1    4    4    0    0  0.44195230116E-02  0.39811638433E-01  0.53032341476E-01  0.66461937240E-01  0.51100000000E-03 0.  1.
</event>
<event>
 8    1  0.1111182E+005  0.1043930E+01  0.7957747E-01            NaN
         13   -1    0    0    0    0  0.00000000000E+00  0.00000000000E+00  0.74505805969E-08  0.10566000000E+00  0.10566000000E+00 0. -1.
     999900   -1    0    0    0    0 -0.00000000000E+00 -0.00000000000E+00 -0.74505805969E-08  0.93827000000E+00  0.93827000000E+00 0. -1.
     999902    2    1    2    0    0 -0.20791841800E-01  0.68784350336E-02  0.11536725749E-01  0.10191770286E+01  0.10188763939E+01 0.  0.
     999903    2    3    3    0    0  0.41106022882E-01 -0.10746588506E+00 -0.50927145070E-01  0.12743283635E+00  0.20172558273E-01 0.  0.
         14    1    1    2    0    0  0.20791841800E-01 -0.68784350336E-02 -0.11536725749E-01  0.24752971436E-01  0.00000000000E+00 0. -1.
     999901    1    3    3    0    0 -0.61897864682E-01  0.11434432009E+00  0.62463870818E-01  0.89174419221E+00  0.88000000000E+00 0. -1.
        -11    1    4    4    0    0  0.22989939349E-01 -0.40646328569E-01 -0.12928530163E-01  0.48456881355E-01  0.51100000000E-03 0.  1.
         11    1    4    4    0    0  0.18116083533E-01 -0.66819556486E-01 -0.37998614907E-01  0.78975954996E-01  0.51100000000E-03 0. -1.
</event>
<event>
 8    1  0.1111182E+005  0.1043930E+01  0.7957747E-01            NaN
         13   -1    0    0    0    0  0.00000000000E+00  0.00000000000E+00  0.74505805969E-08  0.10566000000E+00  0.10566000000E+00 0. -1.
     999900   -1    0    0    0    0 -0.00000000000E+00 -0.00000000000E+00 -0.74505805969E-08  0.93827000000E+00  0.93827000000E+00 0.  1.
     999902    2    1    2    0    0  0.78119688190E-02 -0.17813121753E-01  0.11560640428E-01  0.10213029681E+01  0.10210522857E+01 0.  0.
     999903    2    3    3    0    0  0.54133981781E-01  0.47340938116E-01 -0.10636303315E+00  0.12984530051E+00  0.19366332561E-01 0.  0.
         14    1    1    2    0    0 -0.78119688190E-02  0.17813121753E-01 -0.11560640428E-01  0.22627031854E-01  0.00000000000E+00 0.  1.
     999901    1    3    3    0    0 -0.46322012962E-01 -0.65154059869E-01  0.11792367358E+00  0.89145766764E+00  0.88000000000E+00 0. -1.
        -11    1    4    4    0    0  0.21481598755E-01  0.31608797404E-01 -0.55481527787E-01  0.67372369745E-01  0.51100000000E-03 0. -1.
         11    1    4    4    0    0  0.32652383025E-01  0.15732140712E-01 -0.50881505366E-01  0.62472930762E-01  0.51100000000E-03 0.  1.
</event>
<event>
 8    1  0.1111182E+005  0.1043930E+01  0.7957747E-01            NaN
         13   -1    0    0    0    0  0.00000000000E+00  0.00000000000E+00  0.74505805969E-08  0.10566000000E+00  0.10566000000E+00 0.  1.
     999900   -1    0    0    0    0 -0.00000000000E+00 -0.00000000000E+00 -0.74505805969E-08  0.93827000000E+00  0.93827000000E+00 0.  1.
     999902    2    1    2    0    0 -0.33342799111E-02 -0.11672095648E-01 -0.20506635395E-01  0.10200998230E+01  0.10198214410E+01 0.  0.
     999903    2    3    3    0    0  0.18646135958E-01  0.93434403677E-01 -0.87717133729E-01  0.13102852894E+00  0.19912651007E-01 0.  0.
         14    1    1    2    0    0  0.33342799111E-02  0.11672095648E-01  0.20506635395E-01  0.23830176973E-01  0.00000000000E+00 0.  1.
     999901    1    3    3    0    0 -0.21980415870E-01 -0.10510649932E+00  0.67210498334E-01  0.88907129409E+00  0.88000000000E+00 0.  1.
        -11    1    4    4    0    0  0.20808566654E-01  0.86973644569E-01 -0.75532304605E-01  0.11705896572E+00  0.51100000000E-03 0. -1.
         11    1    4    4    0    0 -0.21624306957E-02  0.64607591080E-02 -0.12184829124E-01  0.13969563219E-01  0.51100000000E-03 0.  1.
</event>
<event>
 8    1  0.1111182E+005  0.1043930E+01  0.7957747E-01            NaN
         13   -1    0    0    0    0  0.00000000000E+00  0.00000000000E+00  0.74505805969E-08  0.10566000000E+00  0.10566000000E+00 0.  1.
     999900   -1    0    0    0    0 -0.00000000000E+00 -0.00000000000E+00 -0.74505805969E-08  0.93827000000E+00  0.93827000000E+00 0. -1.
     999902    2    1    2    0    0 -0.21608448796E-01 -0.47130895453E-02  0.90724335026E-02  0.10200250356E+01  0.10197448828E+01 0.  0.
     999903    2    3    3    0    0 -0.91449539007E-01 -0.77047361184E-01 -0.51950239698E-01  0.13219971982E+00  0.21877487622E-01 0.  0.
         14    1    1    2    0    0  0.21608448796E-01  0.47130895453E-02 -0.90724335026E-02  0.23904964382E-01  0.00000000000E+00 0.  1.
     999901    1    3    3    0    0  0.69841090210E-01  0.72334271638E-01  0.61022673201E-01  0.88782531580E+00  0.88000000000E+00 0.  1.
        -11    1    4    4    0    0 -0.19516822801E-01 -0.26181389620E-01 -0.74549271290E-02  0.33499381997E-01  0.51100000000E-03 0. -1.
         11    1    4    4    0    0 -0.71932716206E-01 -0.50865971564E-01 -0.44495312569E-01  0.98700337818E-01  0.51100000000E-03 0.  1.
</event>
<event>
 8    1  0.1111182E+005  0.1043930E+01  0.7957747E-01            NaN
         13   -1    0    0    0    0  0.00000000000E+00  0.00000000000E+00  0.74505805969E-08  0.10566000000E+00  0.10566000000E+00 0. -1.
     999900   -1    0    0    0    0 -0.00000000000E+00 -0.00000000000E+00 -0.74505805969E-08  0.93827000000E+00  0.93827000000E+00 0.  1.
     999902    2    1    2    0    0 -0.13055330782E-01  0.19018852049E-01  0.25649172991E-02  0.10207192870E+01  0.10204553522E+01 0.  0.
     999903    2    3    3    0    0  0.87908709014E-01  0.23312931874E-01  0.91337636077E-01  0.13049865594E+00  0.20393663819E-01 0.  0.
         14    1    1    2    0    0  0.13055330782E-01 -0.19018852049E-01 -0.25649172991E-02  0.23210712954E-01  0.00000000000E+00 0.  1.
     999901    1    3    3    0    0 -0.10096403980E+00 -0.42940798246E-02 -0.88772718778E-01  0.89022063111E+00  0.88000000000E+00 0.  1.
        -11    1    4    4    0    0  0.93565663692E-02  0.86688646626E-02  0.81245230104E-02  0.15131541359E-01  0.51100000000E-03 0.  1.
         11    1    4    4    0    0  0.78552142645E-01  0.14644067211E-01  0.83213113067E-01  0.11536711458E+00  0.51100000000E-03 0. -1.
</event>
<event>
 8    1  0.1111182E+005  0.1043930E+01  0.7957747E-01            NaN
         13   -1    0    0    0    0  0.00000000000E+00  0.00000000000E+00  0.74505805969E-08  0.10566000000E+00  0.10566000000E+00 0. -1.
     999900   -1    0    0    0    0 -0.00000000000E+00 -0.00000000000E+00 -0.74505805969E-08  0.93827000000E+00  0.93827000000E+00 0.  1.
     999902    2    1    2    0    0  0.18722651297E-01  0.10630318260E-01 -0.10184893925E-01  0.10201124980E+01  0.10198344156E+01 0.  0.
     999903    2    3    3    0    0 -0.22295314122E-01 -0.25450390968E-01 -0.12439940572E+00  0.13105161944E+00  0.23548065348E-01 0.  0.
         14    1    1    2    0    0 -0.18722651297E-01 -0.10630318260E-01  0.10184893925E-01  0.23817502013E-01  0.00000000000E+00 0.  1.
     999901    1    3    3    0    0  0.41017965419E-01  0.36080709228E-01  0.11421451179E+00  0.88906087855E+00  0.88000000000E+00 0. -1.
        -11    1    4    4    0    0 -0.23457355434E-01 -0.10455627635E-01 -0.87766712194E-01  0.91448480378E-01  0.51100000000E-03 0. -1.
         11    1    4    4    0    0  0.11620413115E-02 -0.14994763332E-01 -0.36632693524E-01  0.39603139058E-01  0.51100000000E-03 0.  1.
</event>
<event>
 8    1  0.1111182E+005  0.1043930E+01  0.7957747E-01            NaN
         13   -1    0    0    0    0  0.00000000000E+00  0.00000000000E+00  0.74505805969E-08  0.10566000000E+00  0.10566000000E+00 0.  1.
     999900   -1    0    0    0    0 -0.00000000000E+00 -0.00000000000E+00 -0.74505805969E-08  0.93827000000E+00  0.93827000000E+00 0. -1.
     999902    2    1    2    0    0  0.73579620152E-02  0.20499433188E-01 -0.92112801454E-02  0.10202822930E+01  0.10200082075E+01 0.  0.
     999903    2    3    3    0    0 -0.11552065912E+00 -0.53231470872E-01  0.62422797716E-03  0.12863654550E+00  0.19192680973E-01 0.  0.
         14    1    1    2    0    0 -0.73579620152E-02 -0.20499433188E-01  0.92112801454E-02  0.23647707034E-01  0.00000000000E+00 0.  1.
     999901    1    3    3    0    0  0.12287862114E+00  0.73730904060E-01 -0.98355081226E-02  0.89164574746E+00  0.88000000000E+00 0. -1.
        -11    1    4    4    0    0 -0.52642574103E-01 -0.22475612400E-01  0.96785912033E-02  0.58054543403E-01  0.51100000000E-03 0.  1.
         11    1    4    4    0    0 -0.62878085021E-01 -0.30755858472E-01 -0.90543632262E-02  0.70582002102E-01  0.51100000000E-03 0. -1.
</event>
<event>
 8    1  0.1111182E+005  0.1043930E+01  0.7957747E-01            NaN
         13   -1    0    0    0    0  0.00000000000E+00  0.00000000000E+00  0.74505805969E-08  0.10566000000E+00  0.10566000000E+00 0.  1.
     999900   -1    0    0    0    0 -0.00000000000E+00 -0.00000000000E+00 -0.74505805969E-08  0.93827000000E+00  0.93827000000E+00 0.  1.
     999902    2    1    2    0    0  0.71965614507E-02  0.43665047589E-02 -0.21832373281E-01  0.10205310816E+01  0.10202627990E+01 0.  0.
     999903    2    3    3    0    0 -0.77963853390E-01  0.83513958968E-01  0.57326500345E-01  0.12936176935E+00  0.19879535981E-01 0.  0.
         14    1    1    2    0    0 -0.71965614507E-02 -0.43665047589E-02  0.21832373281E-01  0.23398918428E-01  0.00000000000E+00 0.  1.
     999901    1    3    3    0    0  0.85160414840E-01 -0.79147454209E-01 -0.79158873626E-01  0.89116931222E+00  0.88000000000E+00 0.  1.
        -11    1    4    4    0    0 -0.21532976963E-01  0.11530522532E-01  0.13901815030E-01  0.28109493572E-01  0.51100000000E-03 0. -1.
         11    1    4    4    0    0 -0.56430876427E-01  0.71983436436E-01  0.43424685315E-01  0.10125227578E+00  0.51100000000E-03 0.  1.
</event>
<event>
 8    1  0.1111182E+005  0.1043930E+01  0.7957747E-01            NaN
         13   -1    0    0    0    0  0.00000000000E+00  0.00000000000E+00  0.74505805969E-08  0.10566000000E+00  0.10566000000E+00 0.  1.
     999900   -1    0    0    0    0 -0.00000000000E+00 -0.00000000000E+00 -0.74505805969E-08  0.93827000000E+00  0.93827000000E+00 0. -1.
     999902    2    1    2    0    0  0.17756070638E-01  0.10275291909E-01 -0.13880894993E-01  0.10191602823E+01  0.10188592357E+01 0.  0.
     999903    2    3    3    0    0  0.50557019807E-01  0.11726492676E+00  0.22015849080E-01  0.13134765542E+00  0.21457718286E-01 0.  0.
         14    1    1    2    0    0 -0.17756070638E-01 -0.10275291909E-01  0.13880894993E-01  0.24769717684E-01  0.00000000000E+00 0.  1.
     999901    1    3    3    0    0 -0.32800949168E-01 -0.10698963486E+00 -0.35896744073E-01  0.88781262689E+00  0.88000000000E+00 0. -1.
        -11    1    4    4    0    0  0.89845334264E-02  0.45488599284E-01  0.11140979920E-01  0.47689800380E-01  0.51100000000E-03 0.  1.
         11    1    4    4    0    0  0.41572486380E-01  0.71776327481E-01  0.10874869160E-01  0.83657855045E-01  0.51100000000E-03 0. -1.
</event>
<event>
 8    1  0.1111182E+005  0.1043930E+01  0.7957747E-01            NaN
         13   -1    0    0    0    0  0.00000000000E+00  0.00000000000E+00  0.74505805969E-08  0.10566000000E+00  0.10566000000E+00 0.  1.
     999900   -1    0    0    0    0 -0.00000000000E+00 -0.00000000000E+00 -0.74505805969E-08  0.93827000000E+00  0.93827000000E+00 0. -1.
     999902    2    1    2    0    0 -0.16034413536E-01 -0.13956158909E-01  0.10601760778E-01  0.10201755452E+01  0.10198989504E+01 0.  0.
     999903    2    3    3    0    0  0.79336812018E-01  0.91602509876E-01  0.37111138700E-01  0.12835658922E+00  0.20318164855E-01 0.  0.
         14    1    1    2    0    0  0.16034413536E-01  0.13956158909E-01 -0.10601760778E-01  0.23754454751E-01  0.00000000000E+00 0. -1.
     999901    1    3    3    0    0 -0.95371225554E-01 -0.10555866878E+00 -0.26509377922E-01  0.89181895603E+00  0.88000000000E+00 0.  1.
        -11    1    4    4    0    0  0.12620693366E-01  0.27765418761E-01  0.79494392027E-02  0.31522295041E-01  0.51100000000E-03 0.  1.
         11    1    4    4    0    0  0.66716118653E-01  0.63837091115E-01  0.29161699498E-01  0.96834294177E-01  0.51100000000E-03 0. -1.
</event>
<event>
 8    1  0.1111182E+005  0.1043930E+01  0.7957747E-01            NaN
         13   -1    0    0    0    0  0.00000000000E+00  0.00000000000E+00  0.74505805969E-08  0.10566000000E+00  0.10566000000E+00 0.  1.
     999900   -1    0    0    0    0 -0.00000000000E+00 -0.00000000000E+00 -0.74505805969E-08  0.93827000000E+00  0.93827000000E+00 0.  1.
     999902    2    1    2    0    0 -0.22407515600E-01 -0.19757362316E-03  0.54225046679E-02  0.10208748629E+01  0.10206144945E+01 0.  0.
     999903    2    3    3    0    0 -0.96999987037E-01 -0.78568133472E-01 -0.41325454483E-01  0.13301713040E+00  0.20095141411E-01 0.  0.
         14    1    1    2    0    0  0.22407515600E-01  0.19757362316E-03 -0.54225046679E-02  0.23055137119E-01  0.00000000000E+00 0. -1.
     999901    1    3    3    0    0  0.74592471437E-01  0.78370559849E-01  0.46747959151E-01  0.88785773248E+00  0.88000000000E+00 0.  1.
        -11    1    4    4    0    0 -0.55072126921E-01 -0.31830204880E-01 -0.22324207713E-01  0.67414631033E-01  0.51100000000E-03 0. -1.
         11    1    4    4    0    0 -0.41927860116E-01 -0.46737928592E-01 -0.19001246771E-01  0.65602499364E-01  0.51100000000E-03 0.  1.
</event>
<event>
 8    1  0.1111182E+005  0.1043930E+01  0.7957747E-01            NaN
         13   -1    0    0    0    0  0.00000000000E+00  0.00000000000E+00  0.74505805969E-08  0.10566000000E+00  0.10566000000E+00 0. -1.
     999900   -1    0    0    0    0 -0.00000000000E+00 -0.00000000000E+00 -0.74505805969E-08  0.93827000000E+00  0.93827000000E+00 0. -1.
     999902    2    1    2    0    0  0.22851849693E-01  0.21057303072E-02 -0.64729138126E-02  0.10200859285E+01  0.10198072179E+01 0.  0.
     999903    2    3    3    0    0 -0.99682916587E-02 -0.83528789039E-01  0.96393235817E-01  0.12936045037E+00  0.19132296531E-01 0.  0.
         14    1    1    2    0    0 -0.22851849693E-01 -0.21057303072E-02  0.64729138126E-02  0.23844071543E-01  0.00000000000E+00 0. -1.
     999901    1    3    3    0    0  0.32820141352E-01  0.85634519346E-01 -0.10286614963E+00  0.89072547809E+00  0.88000000000E+00 0. -1.
        -11    1    4    4    0    0 -0.12102556248E-01 -0.43944066768E-01  0.61468626259E-01  0.76525851887E-01  0.51100000000E-03 0. -1.
         11    1    4    4    0    0  0.21342645897E-02 -0.39584722271E-01  0.34924609558E-01  0.52834598478E-01  0.51100000000E-03 0.  1.
</event>
<event>
 8    1  0.1111182E+005  0.1043930E+01  0.7957747E-01            NaN
         13   -1    0    0    0    0  0.00000000000E+00  0.00000000000E+00  0.74505805969E-08  0.10566000000E+00  0.10566000000E+00 0. -1.
     999900   -1    0    0    0    0 -0.00000000000E+00 -0.00000000000E+00 -0.74505805969E-08  0.93827000000E+00  0.93827000000E+00 0.  1.
     999902    2    1    2    0    0  0.23265790594E-01  0.15651004156E-02 -0.12673127179E-01  0.10173903183E+01  0.10170441018E+01 0.  0.
     999903    2    3    3    0    0 -0.47381098953E-01  0.11580468531E+00 -0.13067072751E-01  0.12719830479E+00  0.18787407283E-01 0.  0.
         14    1    1    2    0    0 -0.23265790594E-01 -0.15651004156E-02  0.12673127179E-01  0.26539681682E-01  0.00000000000E+00 0. -1.
     999901    1    3    3    0    0  0.70646889547E-01 -0.11423958490E+00  0.39394557249E-03  0.89019201353E+00  0.88000000000E+00 0.  1.
        -11    1    4    4    0    0 -0.22496150288E-01  0.53226435848E-01 -0.15424187401E-01  0.59810508515E-01  0.51100000000E-03 0.  1.
         11    1    4    4    0    0 -0.24884948665E-01  0.62578249465E-01  0.23571146491E-02  0.67387796273E-01  0.51100000000E-03 0. -1.
</event>
<event>
 8    1  0.1111182E+005  0.1043930E+01  0.7957747E-01            NaN
         13   -1    0    0    0    0  0.00000000000E+00  0.00000000000E+00  0.74505805969E-08  0.10566000000E+00  0.10566000000E+00 0. -1.
     999900   -1    0    0    0    0 -0.00000000000E+00 -0.00000000000E+00 -0.74505805969E-08  0.93827000000E+00  0.93827000000E+00 0.  1.
     999902    2    1    2    0    0 -0.80683261686E-02 -0.14127419553E-01 -0.19627009209E-01  0.10184368370E+01  0.10181177189E+01 0.  0.
     999903    2    3    3    0    0 -0.94134380714E-01  0.89554389245E-03 -0.89428972842E-01  0.13135996922E+00  0.19895142618E-01 0.  0.
         14    1    1    2    0    0  0.80683261686E-02  0.14127419553E-01  0.19627009209E-01  0.25493163022E-01  0.00000000000E+00 0. -1.
     999901    1    3    3    0    0  0.86066054546E-01 -0.15022963445E-01  0.69801963633E-01  0.88707686775E+00  0.88000000000E+00 0. -1.
        -11    1    4    4    0    0 -0.68128116099E-02  0.48542525892E-02 -0.11663206833E-01  0.14362091939E-01  0.51100000000E-03 0.  1.
         11    1    4    4    0    0 -0.87321569104E-01 -0.39587086967E-02 -0.77765766009E-01  0.11699787729E+00  0.51100000000E-03 0. -1.
</event>
<event>
 8    1  0.1111182E+005  0.1043930E+01  0.7957747E-01            NaN
         13   -1    0    0    0    0  0.00000000000E+00  0.00000000000E+00  0.74505805969E-08  0.10566000000E+00  0.10566000000E+00 0.  1.
     999900   -1    0    0    0    0 -0.00000000000E+00 -0.00000000000E+00 -0.74505805969E-08  0.93827000000E+00  0.93827000000E+00 0.  1.
     999902    2    1    2    0    0 -0.20194630427E-01 -0.95538190006E-02  0.77861007255E-02  0.10202715571E+01  0.10199972198E+01 0.  0.
     999903    2    3    3    0    0 -0.11624302970E+00 -0.12373423937E-02  0.62173114455E-01  0.13333728330E+00  0.19984043355E-01 0.  0.
         14    1    1    2    0    0  0.20194630427E-01  0.95538190006E-02 -0.77861007255E-02  0.23658442892E-01  0.00000000000E+00 0. -1.
     999901    1    3    3    0    0  0.96048399269E-01 -0.83164766069E-02 -0.54387013730E-01  0.88693427380E+00  0.88000000000E+00 0.  1.
        -11    1    4    4    0    0 -0.77475869649E-01  0.61088353894E-02  0.33878868261E-01  0.84781289701E-01  0.51100000000E-03 0. -1.
         11    1    4    4    0    0 -0.38767160047E-01 -0.73461777831E-02  0.28294246194E-01  0.48555993603E-01  0.51100000000E-03 0.  1.
</event>
<event>
 8    1  0.1111182E+005  0.1043930E+01  0.7957747E-01            NaN
         13   -1    0    0    0    0  0.00000000000E+00  0.00000000000E+00  0.74505805969E-08  0.10566000000E+00  0.10566000000E+00 0. -1.
     999900   -1    0    0    0    0 -0.00000000000E+00 -0.00000000000E+00 -0.74505805969E-08  0.93827000000E+00  0.93827000000E+00 0. -1.
     999902    2    1    2    0    0 -0.23196565769E-01  0.19261527361E-02  0.69539059288E-02  0.10196370476E+01  0.10193476156E+01 0.  0.
     999903    2    3    3    0    0 -0.29043874785E-01 -0.25263467424E-01 -0.12229718192E+00  0.12976103930E+00  0.19988425802E-01 0.  0.
         14    1    1    2    0    0  0.23196565769E-01 -0.19261527361E-02 -0.69539059288E-02  0.24292952383E-01  0.00000000000E+00 0.  1.
     999901    1    3    3    0    0  0.58473090161E-02  0.27189620160E-01  0.12925108785E+00  0.88987600832E+00  0.88000000000E+00 0.  1.
        -11    1    4    4    0    0  0.17116184983E-02 -0.22932830419E-02 -0.24930328192E-01  0.25099226477E-01  0.51100000000E-03 0.  1.
         11    1    4    4    0    0 -0.30755493283E-01 -0.22970184382E-01 -0.97366853728E-01  0.10466181282E+00  0.51100000000E-03 0. -1.
</event>
<event>
 8    1  0.1111182E+005  0.1043930E+01  0.7957747E-01            NaN
         13   -1    0    0    0    0  0.00000000000E+00  0.00000000000E+00  0.74505805969E-08  0.10566000000E+00  0.10566000000E+00 0.  1.
     999900   -1    0    0    0    0 -0.00000000000E+00 -0.00000000000E+00 -0.74505805969E-08  0.93827000000E+00  0.93827000000E+00 0.  1.
     999902    2    1    2    0    0  0.10128835176E-01 -0.13299829921E-01 -0.15988142054E-01  0.10207977830E+01  0.10205356507E+01 0.  0.
     999903    2    3    3    0    0  0.77554418546E-01  0.12622782382E-01 -0.10578114286E+00  0.13328385401E+00  0.20022814094E-01 0.  0.
         14    1    1    2    0    0 -0.10128835176E-01  0.13299829921E-01  0.15988142054E-01  0.23132217020E-01  0.00000000000E+00 0. -1.
     999901    1    3    3    0    0 -0.67425583370E-01 -0.25922612302E-01  0.89793000804E-01  0.88751392897E+00  0.88000000000E+00 0. -1.
        -11    1    4    4    0    0  0.36294423725E-01  0.14952793036E-01 -0.58933247950E-01  0.70811440093E-01  0.51100000000E-03 0.  1.
         11    1    4    4    0    0  0.41259994821E-01 -0.23300106538E-02 -0.46847894909E-01  0.62472413917E-01  0.51100000000E-03 0. -1.
</event>
<event>
 8    1  0.1111182E+005  0.1043930E+01  0.7957747E-01            NaN
         13   -1    0    0    0    0  0.00000000000E+00  0.00000000000E+00  0.74505805969E-08  0.10566000000E+00  0.10566000000E+00 0.  1.
     999900   -1    0    0    0    0 -0.00000000000E+00 -0.00000000000E+00 -0.74505805969E-08  0.93827000000E+00  0.93827000000E+00 0.  1.
     999902    2    1    2    0    0  0.52250581187E-02 -0.57357353576E-02 -0.22276545799E-01  0.10203409266E+01  0.10200682144E+01 0.  0.
     999903    2    3    3    0    0 -0.58239789607E-02 -0.12786510956E+00  0.42932583215E-02  0.13144069609E+00  0.29577348555E-01 0.  0.
         14    1    1    2    0    0 -0.52250581187E-02  0.57357353576E-02  0.22276545799E-01  0.23589073427E-01  0.00000000000E+00 0.  1.
     999901    1    3    3    0    0  0.11049037079E-01  0.12212937420E+00 -0.26569804120E-01  0.88890023048E+00  0.88000000000E+00 0. -1.
        -11    1    4    4    0    0 -0.33214387579E-02 -0.91829766255E-01 -0.10324800645E-01  0.92469457418E-01  0.51100000000E-03 0.  1.
         11    1    4    4    0    0 -0.25025402028E-02 -0.36035343305E-01  0.14618058966E-01  0.38971238671E-01  0.51100000000E-03 0. -1.
</event>
<event>
 8    1  0.1111182E+005  0.1043930E+01  0.7957747E-01            NaN
         13   -1    0    0    0    0  0.00000000000E+00  0.00000000000E+00  0.74505805969E-08  0.10566000000E+00  0.10566000000E+00 0. -1.
     999900   -1    0    0    0    0 -0.00000000000E+00 -0.00000000000E+00 -0.74505805969E-08  0.93827000000E+00  0.93827000000E+00 0. -1.
     999902    2    1    2    0    0  0.18149542387E-01 -0.12317445883E-01  0.83375761230E-02  0.10204642689E+01  0.10201944342E+01 0.  0.
     999903    2    3    3    0    0 -0.12033331530E+00  0.20887618088E-01 -0.32742459152E-01  0.12806993482E+00  0.20333229292E-01 0.  0.
         14    1    1    2    0    0 -0.18149542387E-01  0.12317445883E-01 -0.83375761230E-02  0.23465731132E-01  0.00000000000E+00 0. -1.
     999901    1    3    3    0    0  0.13848285768E+00 -0.33205063971E-01  0.41080035275E-01  0.89239433405E+00  0.88000000000E+00 0.  1.
        -11    1    4    4    0    0 -0.85778952407E-01  0.71216125506E-02 -0.28290134500E-01  0.90605402005E-01  0.51100000000E-03 0. -1.
         11    1    4    4    0    0 -0.34554362889E-01  0.13766005538E-01 -0.44523246519E-02  0.37464532814E-01  0.51100000000E-03 0.  1.
</event>
<event>
 8    1  0.1111182E+005  0.1043930E+01  0.7957747E-01            NaN
         13   -1    0    0    0    0  0.00000000000E+00  0.00000000000E+00  0.74505805969E-08  0.10566000000E+00  0.10566000000E+00 0. -1.
     999900   -1    0    0    0    0 -0.00000000000E+00 -0.00000000000E+00 -0.74505805969E-08  0.93827000000E+00  0.93827000000E+00 0. -1.
     999902    2    1    2    0    0 -0.22108034177E-01  0.13896640771E-02 -0.84974590189E-02  0.10202044199E+01  0.10199285050E+01 0.  0.
     999903    2    3    3    0    0 -0.40392521892E-01 -0.42081149660E-01  0.11478296799E+00  0.13036055841E+00  0.20405059856E-01 0.  0.
         14    1    1    2    0    0  0.22108034177E-01 -0.13896640771E-02  0.84974590189E-02  0.23725580102E-01  0.00000000000E+00 0.  1.
     999901    1    3    3    0    0  0.18284487715E-01  0.43470813737E-01 -0.12328042701E+00  0.88984386148E+00  0.88000000000E+00 0. -1.
        -11    1    4    4    0    0 -0.22268838221E-01 -0.97484813433E-02  0.52979124747E-01  0.58292219242E-01  0.51100000000E-03 0. -1.
         11    1    4    4    0    0 -0.18123683671E-01 -0.32332668316E-01  0.61803843243E-01  0.72068339171E-01  0.51100000000E-03 0.  1.
</event>
<event>
 7    1  0.1111182E+005  0.1043930E+01  0.7957747E-01            NaN
         13   -1    0    0    0    0  0.00000000000E+00  0.00000000000E+00  0.74505805969E-08  0.10566000000E+00  0.10566000000E+00 0.  1.
     999900   -1    0    0    0    0 -0.00000000000E+00 -0.00000000000E+00 -0.74505805969E-08  0.93827000000E+00  0.93827000000E+00 0. -1.
     999903    2    1    2    0    0  0.10959553320E+00  0.28338457412E-01 -0.93910009447E-02  0.11582803461E+00  0.22664810549E-01 0.  0.
         14    1    1    2    0    0 -0.34434303255E-02  0.81945845115E-03 -0.39726710566E-01  0.39884085259E-01  0.00000000000E+00 0. -1.
     999901    1    1    2    0    0 -0.10615210287E+00 -0.29157915863E-01  0.49117711510E-01  0.88821788013E+00  0.88000000000E+00 0. -1.
        -11    1    3    3    0    0  0.15517320859E-01  0.10817319893E-01  0.35722348488E-02  0.19256781640E-01  0.51100000000E-03 0.  1.
         11    1    3    3    0    0  0.94078212339E-01  0.17521137520E-01 -0.12963235794E-01  0.96571252969E-01  0.51100000000E-03 0. -1.
</event>
<event>
 8    1  0.1111182E+005  0.1043930E+01  0.7957747E-01            NaN
         13   -1    0    0    0    0  0.00000000000E+00  0.00000000000E+00  0.74505805969E-08  0.10566000000E+00  0.10566000000E+00 0. -1.
     999900   -1    0    0    0    0 -0.00000000000E+00 -0.00000000000E+00 -0.74505805969E-08  0.93827000000E+00  0.93827000000E+00 0.  1.
     999902    2    1    2    0    0  0.46453682713E-02  0.21901151519E-01  0.80959187756E-02  0.10201227787E+01  0.10198449391E+01 0.  0.
     999903    2    3    3    0    0 -0.19780801323E-01  0.93832308165E-01  0.90063302464E-01  0.13305492278E+00  0.19910596882E-01 0.  0.
         14    1    1    2    0    0 -0.46453682713E-02 -0.21901151519E-01 -0.80959187756E-02  0.23807221280E-01  0.00000000000E+00 0.  1.
     999901    1    3    3    0    0  0.24426169594E-01 -0.71931156646E-01 -0.81967383688E-01  0.88706785594E+00  0.88000000000E+00 0.  1.
        -11    1    4    4    0    0 -0.28853486375E-02  0.60301113201E-01  0.56722494429E-01  0.82838710669E-01  0.51100000000E-03 0. -1.
         11    1    4    4    0    0 -0.16895452686E-01  0.33531194964E-01  0.33340808035E-01  0.50216212109E-01  0.51100000000E-03 0.  1.
</event>
<event>
 8    1  0.1111182E+005  0.1043930E+01  0.7957747E-01            NaN
         13   -1    0    0    0    0  0.00000000000E+00  0.00000000000E+00  0.74505805969E-08  0.10566000000E+00  0.10566000000E+00 0. -1.
     999900   -1    0    0    0    0 -0.00000000000E+00 -0.00000000000E+00 -0.74505805969E-08  0.93827000000E+00  0.93827000000E+00 0. -1.
     999902    2    1    2    0    0  0.68976350312E-03  0.18635016637E-01  0.14606941971E-01  0.10202424004E+01  0.10199673785E+01 0.  0.
     999903    2    3    3    0    0  0.12389804256E+00 -0.30031519168E-01  0.17159039023E-01  0.13032373847E+00  0.20909976010E-01 0.  0.
         14    1    1    2    0    0 -0.68976350312E-03 -0.18635016637E-01 -0.14606941971E-01  0.23687599551E-01  0.00000000000E+00 0. -1.
     999901    1    3    3    0    0 -0.12320827905E+00  0.48666535805E-01 -0.25520970524E-02  0.88991866198E+00  0.88000000000E+00 0. -1.
        -11    1    4    4    0    0  0.18684881541E-01  0.29507056922E-02  0.28272216906E-02  0.19133367862E-01  0.51100000000E-03 0. -1.
         11    1    4    4    0    0  0.10521316101E+00 -0.32982224860E-01  0.14331817333E-01  0.11119037061E+00  0.51100000000E-03 0.  1.
</event>
<event>
 8    1  0.1111182E+005  0.1043930E+01  0.7957747E-01            NaN
         13   -1    0    0    0    0  0.00000000000E+00  0.00000000000E+00  0.74505805969E-08  0.10566000000E+00  0.10566000000E+00 0.  1.
     999900   -1    0    0    0    0 -0.00000000000E+00 -0.00000000000E+00 -0.74505805969E-08  0.93827000000E+00  0.93827000000E+00 0.  1.
     999902    2    1    2    0    0 -0.62931772157E-02  0.83298503833E-02 -0.21857622844E-01  0.10197071562E+01  0.10194194123E+01 0.  0.
     999903    2    3    3    0    0  0.10453961113E+00 -0.25885894446E-01  0.65249619843E-01  0.12783143843E+00  0.22017128184E-01 0.  0.
         14    1    1    2    0    0  0.62931772157E-02 -0.83298503833E-02  0.21857622844E-01  0.24222843831E-01  0.00000000000E+00 0.  1.
     999901    1    3    3    0    0 -0.11083278835E+00  0.34215744829E-01 -0.87107242687E-01  0.89187571774E+00  0.88000000000E+00 0.  1.
        -11    1    4    4    0    0  0.22093374012E-01 -0.81860543235E-02  0.25117479853E-01  0.34442380519E-01  0.51100000000E-03 0. -1.
         11    1    4    4    0    0  0.82446237122E-01 -0.17699840123E-01  0.40132139990E-01  0.93389057909E-01  0.51100000000E-03 0.  1.
</event>
<event>
 8    1  0.1111182E+005  0.1043930E+01  0.7957747E-01            NaN
         13   -1    0    0    0    0  0.00000000000E+00  0.00000000000E+00  0.74505805969E-08  0.10566000000E+00  0.10566000000E+00 0. -1.
     999900   -1    0    0    0    0 -0.00000000000E+00 -0.00000000000E+00 -0.74505805969E-08  0.93827000000E+00  0.93827000000E+00 0. -1.
     999902    2    1    2    0    0  0.77755189474E-02  0.24349900620E-01  0.25068900534E-02  0.10182461363E+01  0.10179221647E+01 0.  0.
     999903    2    3    3    0    0  0.75982879524E-01 -0.62106843355E-01 -0.79064412710E-01  0.12763910175E+00  0.20246011114E-01 0.  0.
         14    1    1    2    0    0 -0.77755189474E-02 -0.24349900620E-01 -0.25068900534E-02  0.25683863667E-01  0.00000000000E+00 0. -1.
     999901    1    3    3    0    0 -0.68207360576E-01  0.86456743975E-01  0.81571302764E-01  0.89060703458E+00  0.88000000000E+00 0. -1.
        -11    1    4    4    0    0  0.95733513494E-02 -0.18237234073E-01 -0.15690451231E-01  0.25897821212E-01  0.51100000000E-03 0.  1.
         11    1    4    4    0    0  0.66409528174E-01 -0.43869609282E-01 -0.63373961480E-01  0.10174128054E+00  0.51100000000E-03 0. -1.
</event>
<event>
 8    1  0.1111182E+005  0.1043930E+01  0.7957747E-01            NaN
         13   -1    0    0    0    0  0.00000000000E+00  0.00000000000E+00  0.74505805969E-08  0.10566000000E+00  0.10566000000E+00 0.  1.
     999900   -1    0    0    0    0 -0.00000000000E+00 -0.00000000000E+00 -0.74505805969E-08  0.93827000000E+00  0.93827000000E+00 0. -1.
     999902    2    1    2    0    0  0.10636671268E-01 -0.19436478580E-01 -0.79785887031E-02  0.10203806188E+01  0.10201088344E+01 0.  0.
     999903    2    3    3    0    0  0.63534791507E-01  0.10926578343E+00 -0.18478030728E-01  0.12938526439E+00  0.20577362812E-01 0.  0.
         14    1    1    2    0    0 -0.10636671268E-01  0.19436478580E-01  0.79785887031E-02  0.23549381158E-01  0.00000000000E+00 0. -1.
     999901    1    3    3    0    0 -0.52898120239E-01 -0.12870226201E+00  0.10499442025E-01  0.89099535445E+00  0.88000000000E+00 0. -1.
        -11    1    4    4    0    0  0.43686952382E-01  0.57652639072E-01 -0.15663926289E-01  0.74013487340E-01  0.51100000000E-03 0.  1.
         11    1    4    4    0    0  0.19847839125E-01  0.51613144362E-01 -0.28141044392E-02  0.55371777050E-01  0.51100000000E-03 0. -1.
</event>
<event>
 8    1  0.1111182E+005  0.1043930E+01  0.7957747E-01            NaN
         13   -1    0    0    0    0  0.00000000000E+00  0.00000000000E+00  0.74505805969E-08  0.10566000000E+00  0.10566000000E+00 0. -1.
     999900   -1    0    0    0    0 -0.00000000000E+00 -0.00000000000E+00 -0.74505805969E-08  0.93827000000E+00  0.93827000000E+00 0. -1.
     999902    2    1    2    0    0  0.73694055800E-02 -0.22206927916E-01  0.47057162565E-02  0.10200637152E+01  0.10197844789E+01 0.  0.
     999903    2    3    3    0    0 -0.69957523891E-01 -0.49599100539E-01  0.97642768820E-01  0.13137531034E+00  0.19267484024E-01 0.  0.
         14    1    1    2    0    0 -0.73694055800E-02  0.22206927916E-01 -0.47057162565E-02  0.23866284829E-01  0.00000000000E+00 0. -1.
     999901    1    3    3    0    0  0.77326929471E-01  0.27392172623E-01 -0.92937052564E-01  0.88868840483E+00  0.88000000000E+00 0. -1.
        -11    1    4    4    0    0 -0.37178335503E-01 -0.32616115097E-01  0.67677814530E-01  0.83824741547E-01  0.51100000000E-03 0.  1.
         11    1    4    4    0    0 -0.32779188388E-01 -0.16982985442E-01  0.29964954290E-01  0.47550568793E-01  0.51100000000E-03 0. -1.
</event>
<event>
 8    1  0.1111182E+005  0.1043930E+01  0.7957747E-01            NaN
         13   -1    0    0    0    0  0.00000000000E+00  0.00000000000E+00  0.74505805969E-08  0.10566000000E+00  0.10566000000E+00 0.  1.
     999900   -1    0    0    0    0 -0.00000000000E+00 -0.00000000000E+00 -0.74505805969E-08  0.93827000000E+00  0.93827000000E+00 0. -1.
     999902    2    1    2    0    0  0.13476542973E-01  0.18060353734E-01 -0.34063928610E-03  0.10213931497E+01  0.10211444837E+01 0.  0.
     999903    2    3    3    0    0 -0.46678109768E-01  0.15845527098E-01  0.11997251491E+00  0.13116916506E+00  0.19545302981E-01 0.  0.
         14    1    1    2    0    0 -0.13476542973E-01 -0.18060353734E-01  0.34063928610E-03  0.22536850327E-01  0.00000000000E+00 0. -1.
     999901    1    3    3    0    0  0.60154652742E-01  0.22148266358E-02 -0.12031315420E+00  0.89022398461E+00  0.88000000000E+00 0. -1.
        -11    1    4    4    0    0 -0.26178303155E-01  0.17254749259E-01  0.58847245628E-01  0.66680502151E-01  0.51100000000E-03 0.  1.
         11    1    4    4    0    0 -0.20499806614E-01 -0.14092221604E-02  0.61125269283E-01  0.64488662912E-01  0.51100000000E-03 0. -1.
</event>
<event>
 8    1  0.1111182E+005  0.1043930E+01  0.7957747E-01            NaN
         13   -1    0    0    0    0  0.00000000000E+00  0.00000000000E+00  0.74505805969E-08  0.10566000000E+00  0.10566000000E+00 0.  1.
     999900   -1    0    0    0    0 -0.00000000000E+00 -0.00000000000E+00 -0.74505805969E-08  0.93827000000E+00  0.93827000000E+00 0. -1.
     999902    2    1    2    0    0 -0.16197878172E-01  0.14848114473E-01  0.98004037601E-02  0.10198699569E+01  0.10195861137E+01 0.  0.
     999903    2    3    3    0    0 -0.80331323443E-01 -0.55123893674E-01  0.85700114151E-01  0.13151757930E+00  0.21461568443E-01 0.  0.
         14    1    1    2    0    0  0.16197878172E-01 -0.14848114473E-01 -0.98004037601E-02  0.24060043112E-01  0.00000000000E+00 0. -1.
     999901    1    3    3    0    0  0.64133445271E-01  0.69972008147E-01 -0.75899710391E-01  0.88835237759E+00  0.88000000000E+00 0. -1.
        -11    1    4    4    0    0 -0.50744688586E-01 -0.28289999073E-01  0.38573838899E-01  0.69739154252E-01  0.51100000000E-03 0. -1.
         11    1    4    4    0    0 -0.29586634857E-01 -0.26833894601E-01  0.47126275252E-01  0.61778425050E-01  0.51100000000E-03 0.  1.
</event>
<event>
 8    1  0.1111182E+005  0.1043930E+01  0.7957747E-01            NaN
         13   -1    0    0    0    0  0.00000000000E+00  0.00000000000E+00  0.74505805969E-08  0.10566000000E+00  0.10566000000E+00 0. -1.
     999900   -1    0    0    0    0 -0.00000000000E+00 -0.00000000000E+00 -0.74505805969E-08  0.93827000000E+00  0.93827000000E+00 0. -1.
     999902    2    1    2    0    0  0.21970734131E-01  0.82030400621E-02  0.32688317017E-02  0.10202511427E+01  0.10199763261E+01 0.  0.
     999903    2    3    3    0    0 -0.11338470855E+00 -0.64139542811E-02  0.55905599751E-01  0.12822794691E+00  0.20487541201E-01 0.  0.
         14    1    1    2    0    0 -0.21970734131E-01 -0.82030400621E-02 -0.32688317017E-02  0.23678857346E-01  0.00000000000E+00 0. -1.
     999901    1    3    3    0    0  0.13535544268E+00  0.14616994343E-01 -0.52636768049E-01  0.89202319574E+00  0.88000000000E+00 0. -1.
        -11    1    4    4    0    0 -0.28112347916E-01  0.16461972946E-02  0.50502160984E-02  0.28614329881E-01  0.51100000000E-03 0. -1.
         11    1    4    4    0    0 -0.85272360632E-01 -0.80601515757E-02  0.50855383653E-01  0.99613617034E-01  0.51100000000E-03 0.  1.
</event>
<event>
 8    1  0.1111182E+005  0.1043930E+01  0.7957747E-01            NaN
         13   -1    0    0    0    0  0.00000000000E+00  0.00000000000E+00  0.74505805969E-08  0.10566000000E+00  0.10566000000E+00 0. -1.
     999900   -1    0    0    0    0 -0.00000000000E+00 -0.00000000000E+00 -0.74505805969E-08  0.93827000000E+00  0.93827000000E+00 0. -1.
     999902    2    1    2    0    0 -0.20551024039E-01 -0.74352613590E-02  0.96206013599E-02  0.10200514810E+01  0.10197719550E+01 0.  0.
     999903    2    3    3    0    0 -0.77189587566E-01  0.46700973927E-01 -0.92308837607E-01  0.13071000022E+00  0.20614782650E-01 0.  0.
         14    1    1    2    0    0  0.20551024039E-01  0.74352613590E-02 -0.96206013599E-02  0.23878519030E-01  0.00000000000E+00 0. -1.
     999901    1    3    3    0    0  0.56638563526E-01 -0.54136235286E-01  0.10192943897E+00  0.88934148075E+00  0.88000000000E+00 0.  1.
        -11    1    4    4    0    0 -0.11036608840E-01  0.16410221269E-01 -0.19684885293E-01  0.27908026207E-01  0.51100000000E-03 0. -1.
         11    1    4    4    0    0 -0.66152978725E-01  0.30290752658E-01 -0.72623952314E-01  0.10280197402E+00  0.51100000000E-03 0.  1.
</event>
<event>
 8    1  0.1111182E+005  0.1043930E+01  0.7957747E-01            NaN
         13   -1    0    0    0    0  0.00000000000E+00  0.00000000000E+00  0.74505805969E-08  0.10566000000E+00  0.10566000000E+00 0. -1.
     999900   -1    0    0    0    0 -0.00000000000E+00 -0.00000000000E+00 -0.74505805969E-08  0.93827000000E+00  0.93827000000E+00 0.  1.
     999902    2    1    2    0    0 -0.17609749369E-01  0.11884051095E-01  0.44643058797E-02  0.10222213849E+01  0.10219908491E+01 0.  0.
     999903    2    3    3    0    0  0.77777221663E-01  0.36301723180E-02 -0.10276140191E+00  0.13055768529E+00  0.20565240259E-01 0.  0.
         14    1    1    2    0    0  0.17609749369E-01 -0.11884051095E-01 -0.44643058797E-02  0.21708615116E-01  0.00000000000E+00 0.  1.
     999901    1    3    3    0    0 -0.95386971032E-01  0.82538787770E-02  0.10722570779E+00  0.89166369959E+00  0.88000000000E+00 0. -1.
        -11    1    4    4    0    0  0.14548744941E-01 -0.74116826160E-02 -0.21627292881E-01  0.27103504145E-01  0.51100000000E-03 0.  1.
         11    1    4    4    0    0  0.63228476722E-01  0.11041854934E-01 -0.81134109024E-01  0.10345418115E+00  0.51100000000E-03 0. -1.
</event>
<event>
 8    1  0.1111182E+005  0.1043930E+01  0.7957747E-01            NaN
         13   -1    0    0    0    0  0.00000000000E+00  0.00000000000E+00  0.74505805969E-08  0.10566000000E+00  0.10566000000E+00 0.  1.
     999900   -1    0    0    0    0 -0.00000000000E+00 -0.00000000000E+00 -0.74505805969E-08  0.93827000000E+00  0.93827000000E+00 0.  1.
     999902    2    1    2    0    0  0.12572049553E-02 -0.14926309223E-01 -0.17975767320E-01  0.10205312077E+01  0.10202629281E+01 0.  0.
     999903    2    3    3    0    0 -0.10393400736E+00 -0.78427844814E-01 -0.48564634472E-02  0.13189756421E+00  0.20498231114E-01 0.  0.
         14    1    1    2    0    0 -0.12572049553E-02  0.14926309223E-01  0.17975767320E-01  0.23398792321E-01  0.00000000000E+00 0.  1.
     999901    1    3    3    0    0  0.10519121232E+00  0.63501535591E-01 -0.13119303873E-01  0.88863364347E+00  0.88000000000E+00 0. -1.
        -11    1    4    4    0    0 -0.81824663186E-01 -0.71203691239E-01 -0.56824089158E-02  0.10861764149E+00  0.51100000000E-03 0. -1.
         11    1    4    4    0    0 -0.22109344176E-01 -0.72241535756E-02  0.82594546864E-03  0.23279922716E-01  0.51100000000E-03 0.  1.
</event>
<event>
 8    1  0.1111182E+005  0.1043930E+01  0.7957747E-01            NaN
         13   -1    0    0    0    0  0.00000000000E+00  0.00000000000E+00  0.74505805969E-08  0.10566000000E+00  0.10566000000E+00 0.  1.
     999900   -1    0    0    0    0 -0.00000000000E+00 -0.00000000000E+00 -0.74505805969E-08  0.93827000000E+00  0.93827000000E+00 0.  1.
     999902    2    1    2    0    0 -0.24696532756E-01  0.14503243855E-02 -0.26484009359E-02  0.10190495619E+01  0.10187457845E+01 0.  0.
     999903    2    3    3    0    0 -0.74290377102E-01 -0.95530432086E-01  0.45936824603E-01  0.13100376319E+00  0.20166073750E-01 0.  0.
         14    1    1    2    0    0  0.24696532756E-01 -0.14503243855E-02  0.26484009359E-02  0.24880438069E-01  0.00000000000E+00 0. -1.
     999901    1    3    3    0    0  0.49593844346E-01  0.96980756471E-01 -0.48585225539E-01  0.88804579874E+00  0.88000000000E+00 0. -1.
        -11    1    4    4    0    0 -0.39426430199E-01 -0.42892492690E-01  0.12617482887E-01  0.59612677534E-01  0.51100000000E-03 0.  1.
         11    1    4    4    0    0 -0.34863946903E-01 -0.52637939396E-01  0.33319341717E-01  0.71391085655E-01  0.51100000000E-03 0. -1.
</event>
<event>
 8    1  0.1111182E+005  0.1043930E+01  0.7957747E-01            NaN
         13   -1    0    0    0    0  0.00000000000E+00  0.00000000000E+00  0.74505805969E-08  0.10566000000E+00  0.10566000000E+00 0.  1.
     999900   -1    0    0    0    0 -0.00000000000E+00 -0.00000000000E+00 -0.74505805969E-08  0.93827000000E+00  0.93827000000E+00 0. -1.
     999902    2    1    2    0    0 -0.72382748359E-02  0.74136113905E-02  0.22735106772E-01  0.10189452179E+01  0.10186388554E+01 0.  0.
     999903    2    3    3    0    0  0.18471541717E-01 -0.95410746558E-01 -0.79296166156E-01  0.12673211337E+00  0.18131138373E-01 0.  0.
         14    1    1    2    0    0  0.72382748359E-02 -0.74136113905E-02 -0.22735106772E-01  0.24984782096E-01  0.00000000000E+00 0. -1.
     999901    1    3    3    0    0 -0.25709816553E-01  0.10282435795E+00  0.10203127293E+00  0.89221310454E+00  0.88000000000E+00 0. -1.
        -11    1    4    4    0    0  0.96299630845E-02 -0.62991361542E-01 -0.40974827779E-01  0.75761767735E-01  0.51100000000E-03 0.  1.
         11    1    4    4    0    0  0.88415786323E-02 -0.32419385017E-01 -0.38321338378E-01  0.50970345630E-01  0.51100000000E-03 0. -1.
</event>
<event>
 8    1  0.1111182E+005  0.1043930E+01  0.7957747E-01            NaN
         13   -1    0    0    0    0  0.00000000000E+00  0.00000000000E+00  0.74505805969E-08  0.10566000000E+00  0.10566000000E+00 0. -1.
     999900   -1    0    0    0    0 -0.00000000000E+00 -0.00000000000E+00 -0.74505805969E-08  0.93827000000E+00  0.93827000000E+00 0.  1.
     999902    2    1    2    0    0  0.22918131516E-01 -0.45585638578E-02 -0.19712435913E-02  0.10204799028E+01  0.10202104317E+01 0.  0.
     999903    2    3    3    0    0  0.12072741272E+00 -0.49651327622E-01 -0.20620549167E-01  0.13371735882E+00  0.20365718397E-01 0.  0.
         14    1    1    2    0    0 -0.22918131516E-01  0.45585638578E-02  0.19712435913E-02  0.23450097184E-01  0.00000000000E+00 0. -1.
     999901    1    3    3    0    0 -0.97809281203E-01  0.45092763764E-01  0.18649305576E-01  0.88676254399E+00  0.88000000000E+00 0. -1.
        -11    1    4    4    0    0  0.56967143030E-01 -0.18762457678E-01 -0.18857793115E-03  0.59979845663E-01  0.51100000000E-03 0. -1.
         11    1    4    4    0    0  0.63760269689E-01 -0.30888869943E-01 -0.20431971236E-01  0.73737513158E-01  0.51100000000E-03 0.  1.
</event>
<event>
 8    1  0.1111182E+005  0.1043930E+01  0.7957747E-01            NaN
         13   -1    0    0    0    0  0.00000000000E+00  0.00000000000E+00  0.74505805969E-08  0.10566000000E+00  0.10566000000E+00 0.  1.
     999900   -1    0    0    0    0 -0.00000000000E+00 -0.00000000000E+00 -0.74505805969E-08  0.93827000000E+00  0.93827000000E+00 0. -1.
     999902    2    1    2    0    0  0.21327990243E-01 -0.96354104912E-02  0.20857388438E-02  0.10204337320E+01  0.10201631864E+01 0.  0.
     999903    2    3    3    0    0  0.74746039178E-01  0.51267920351E-01 -0.93438885784E-01  0.13156498041E+00  0.19056459874E-01 0.  0.
         14    1    1    2    0    0 -0.21327990243E-01  0.96354104912E-02 -0.20857388438E-02  0.23496267995E-01  0.00000000000E+00 0.  1.
     999901    1    3    3    0    0 -0.53418048934E-01 -0.60903330842E-01  0.95524624627E-01  0.88886875160E+00  0.88000000000E+00 0.  1.
        -11    1    4    4    0    0  0.18012775764E-01  0.40937082920E-02 -0.14310582904E-01  0.23372471892E-01  0.51100000000E-03 0. -1.
         11    1    4    4    0    0  0.56733263414E-01  0.47174212059E-01 -0.79128302879E-01  0.10819250851E+00  0.51100000000E-03 0.  1.
</event>
<event>
 8    1  0.1111182E+005  0.1043930E+01  0.7957747E-01            NaN
         13   -1    0    0    0    0  0.00000000000E+00  0.00000000000E+00  0.74505805969E-08  0.10566000000E+00  0.10566000000E+00 0. -1.
     999900   -1    0    0    0    0 -0.00000000000E+00 -0.00000000000E+00 -0.74505805969E-08  0.93827000000E+00  0.93827000000E+00 0. -1.
     999902    2    1    2    0    0  0.16877418657E-01  0.70072104795E-02 -0.15002138923E-01  0.10202865563E+01  0.10200125707E+01 0.  0.
     999903    2    3    3    0    0 -0.71910421767E-01 -0.24797201867E-01 -0.10439455596E+00  0.13074408653E+00  0.20243094306E-01 0.  0.
         14    1    1    2    0    0 -0.16877418657E-01 -0.70072104795E-02  0.15002138923E-01  0.23643443732E-01  0.00000000000E+00 0. -1.
     999901    1    3    3    0    0  0.88787840425E-01  0.31804412346E-01  0.89392417042E-01  0.88954246974E+00  0.88000000000E+00 0.  1.
        -11    1    4    4    0    0 -0.17757868757E-01 -0.15036219390E-01 -0.37359196280E-01  0.44015911487E-01  0.51100000000E-03 0. -1.
         11    1    4    4    0    0 -0.54152553010E-01 -0.97609824764E-02 -0.67035359685E-01  0.86728175038E-01  0.51100000000E-03 0.  1.
</event>
<event>
 8    1  0.1111182E+005  0.1043930E+01  0.7957747E-01            NaN
         13   -1    0    0    0    0  0.00000000000E+00  0.00000000000E+00  0.74505805969E-08  0.10566000000E+00  0.10566000000E+00 0. -1.
     999900   -1    0    0    0    0 -0.00000000000E+00 -0.00000000000E+00 -0.74505805969E-08  0.93827000000E+00  0.93827000000E+00 0. -1.
     999902    2    1    2    0    0  0.83544517561E-02  0.22788829595E-01 -0.23862596694E-02  0.10195410301E+01  0.10192492777E+01 0.  0.
     999903    2    3    3    0    0 -0.19053833275E-01  0.19613356699E-01  0.12551570551E+00  0.12986681420E+00  0.19064752226E-01 0.  0.
         14    1    1    2    0    0 -0.83544517561E-02 -0.22788829595E-01  0.23862596694E-02  0.24388969919E-01  0.00000000000E+00 0. -1.
     999901    1    3    3    0    0  0.27408285031E-01  0.31754728968E-02 -0.12790196517E+00  0.88967421589E+00  0.88000000000E+00 0. -1.
        -11    1    4    4    0    0 -0.19472816178E-01  0.71919887312E-02  0.72804396124E-01  0.75707704283E-01  0.51100000000E-03 0.  1.
         11    1    4    4    0    0  0.41898290354E-03  0.12421367967E-01  0.52711309382E-01  0.54159109913E-01  0.51100000000E-03 0. -1.
</event>
<event>
 8    1  0.1111182E+005  0.1043930E+01  0.7957747E-01            NaN
         13   -1    0    0    0    0  0.00000000000E+00  0.00000000000E+00  0.74505805969E-08  0.10566000000E+00  0.10566000000E+00 0.  1.
     999900   -1    0    0    0    0 -0.00000000000E+00 -0.00000000000E+00 -0.74505805969E-08  0.93827000000E+00  0.93827000000E+00 0. -1.
     999902    2    1    2    0    0  0.11136713845E-01  0.20636417441E-01  0.67233745222E-03  0.10204706701E+01  0.10202009843E+01 0.  0.
     999903    2    3    3    0    0  0.12706781083E+00 -0.52218534740E-02  0.29600780135E-01  0.13201947608E+00  0.19479208823E-01 0.  0.
         14    1    1    2    0    0 -0.11136713845E-01 -0.20636417441E-01 -0.67233745222E-03  0.23459329865E-01  0.00000000000E+00 0.  1.
     999901    1    3    3    0    0 -0.11593109699E+00  0.25858270915E-01 -0.28928442683E-01  0.88845119406E+00  0.88000000000E+00 0. -1.
        -11    1    4    4    0    0  0.12426181906E-01  0.42753129098E-03 -0.27939259569E-02  0.12753819938E-01  0.51100000000E-03 0. -1.
         11    1    4    4    0    0  0.11464162893E+00 -0.56493847650E-02  0.32394706092E-01  0.11926565614E+00  0.51100000000E-03 0.  1.
</event>
<event>
 8    1  0.1111182E+005  0.1043930E+01  0.7957747E-01            NaN
         13   -1    0    0    0    0  0.00000000000E+00  0.00000000000E+00  0.74505805969E-08  0.10566000000E+00  0.10566000000E+00 0.  1.
     999900   -1    0    0    0    0 -0.00000000000E+00 -0.00000000000E+00 -0.74505805969E-08  0.93827000000E+00  0.93827000000E+00 0.  1.
     999902    2    1    2    0    0  0.17548112841E-02  0.22041759093E-01 -0.11650077395E-01  0.10189371448E+01  0.10186305819E+01 0.  0.
     999903    2    3    3    0    0  0.78534995970E-01 -0.34384599597E-01 -0.95355530497E-01  0.12984449859E+00  0.20417402753E-01 0.  0.
         14    1    1    2    0    0 -0.17548112841E-02 -0.22041759093E-01  0.11650077395E-01  0.24992855176E-01  0.00000000000E+00 0.  1.
     999901    1    3    3    0    0 -0.76780184686E-01  0.56426358690E-01  0.83705453103E-01  0.88909264624E+00  0.88000000000E+00 0. -1.
        -11    1    4    4    0    0  0.63417026114E-01 -0.21715065743E-01 -0.63268345785E-01  0.92175962055E-01  0.51100000000E-03 0. -1.
         11    1    4    4    0    0  0.15117969856E-01 -0.12669533854E-01 -0.32087184712E-01  0.37668536531E-01  0.51100000000E-03 0.  1.
</event>
<event>
 8    1  0.1111182E+005  0.1043930E+01  0.7957747E-01            NaN
         13   -1    0    0    0    0  0.00000000000E+00  0.00000000000E+00  0.74505805969E-08  0.10566000000E+00  0.10566000000E+00 0.  1.
     999900   -1    0    0    0    0 -0.00000000000E+00 -0.00000000000E+00 -0.74505805969E-08  0.93827000000E+00  0.93827000000E+00 0.  1.
     999902    2    1    2    0    0  0.14109510321E-01  0.14447946448E-01  0.10301086555E-01  0.10212598914E+01  0.10210082429E+01 0.  0.
     999903    2    3    3    0    0 -0.26765942079E-01 -0.61982374079E-01  0.11077732443E+00  0.13131165087E+00  0.20320031846E-01 0.  0.
         14    1    1    2    0    0 -0.14109510321E-01 -0.14447946448E-01 -0.10301086555E-01  0.22670108564E-01  0.00000000000E+00 0. -1.
     999901    1    3    3    0    0  0.40875452400E-01  0.76430320527E-01 -0.10047623788E+00  0.88994824056E+00  0.88000000000E+00 0.  1.
        -11    1    4    4    0    0 -0.11467594164E-01 -0.47398924214E-01  0.69075795492E-01  0.84557024407E-01  0.51100000000E-03 0. -1.
         11    1    4    4    0    0 -0.15298347914E-01 -0.14583449864E-01  0.41701528942E-01  0.46754626465E-01  0.51100000000E-03 0.  1.
</event>
<event>
 8    1  0.1111182E+005  0.1043930E+01  0.7957747E-01            NaN
         13   -1    0    0    0    0  0.00000000000E+00  0.00000000000E+00  0.74505805969E-08  0.10566000000E+00  0.10566000000E+00 0. -1.
     999900   -1    0    0    0    0 -0.00000000000E+00 -0.00000000000E+00 -0.74505805969E-08  0.93827000000E+00  0.93827000000E+00 0.  1.
     999902    2    1    2    0    0 -0.72697944000E-02 -0.25845083004E-01  0.81520776689E-03  0.10170695683E+01  0.10167148194E+01 0.  0.
     999903    2    3    3    0    0  0.10026437844E-01 -0.88775934767E-01  0.92163863655E-01  0.12993709305E+00  0.20193423111E-01 0.  0.
         14    1    1    2    0    0  0.72697944000E-02  0.25845083004E-01 -0.81520776689E-03  0.26860431675E-01  0.00000000000E+00 0.  1.
     999901    1    3    3    0    0 -0.17296232244E-01  0.62930851763E-01 -0.91348655889E-01  0.88713247527E+00  0.88000000000E+00 0.  1.
        -11    1    4    4    0    0  0.27178550538E-02 -0.47583793175E-03  0.15606335688E-02  0.32108964429E-02  0.51100000000E-03 0. -1.
         11    1    4    4    0    0  0.73085827905E-02 -0.88300096835E-01  0.90603230087E-01  0.12672619661E+00  0.51100000000E-03 0.  1.
</event>
<event>
 8    1  0.1111182E+005  0.1043930E+01  0.7957747E-01            NaN
         13   -1    0    0    0    0  0.00000000000E+00  0.00000000000E+00  0.74505805969E-08  0.10566000000E+00  0.10566000000E+00 0. -1.
     999900   -1    0    0    0    0 -0.00000000000E+00 -0.00000000000E+00 -0.74505805969E-08  0.93827000000E+00  0.93827000000E+00 0.  1.
     999902    2    1    2    0    0  0.36373743725E-02  0.18537240486E-01 -0.14262566226E-01  0.10202597534E+01  0.10199851391E+01 0.  0.
     999903    2    3    3    0    0 -0.39787961952E-01  0.99487881999E-01  0.73095931044E-01  0.13117580169E+00  0.19574351430E-01 0.  0.
         14    1    1    2    0    0 -0.36373743725E-02 -0.18537240486E-01  0.14262566226E-01  0.23670246567E-01  0.00000000000E+00 0. -1.
     999901    1    3    3    0    0  0.43425336324E-01 -0.80950641513E-01 -0.87358497269E-01  0.88908395174E+00  0.88000000000E+00 0. -1.
        -11    1    4    4    0    0 -0.11955843656E-01  0.24387927493E-01  0.90792465644E-02  0.28642748543E-01  0.51100000000E-03 0.  1.
         11    1    4    4    0    0 -0.27832118296E-01  0.75099954506E-01  0.64016684479E-01  0.10253305315E+00  0.51100000000E-03 0. -1.
</event>
<event>
 8    1  0.1111182E+005  0.1043930E+01  0.7957747E-01            NaN
         13   -1    0    0    0    0  0.00000000000E+00  0.00000000000E+00  0.74505805969E-08  0.10566000000E+00  0.10566000000E+00 0.  1.
     999900   -1    0    0    0    0 -0.00000000000E+00 -0.00000000000E+00 -0.74505805969E-08  0.93827000000E+00  0.93827000000E+00 0. -1.
     999902    2    1    2    0    0 -0.11761792078E-01  0.19059160667E-01  0.59298336911E-02  0.10207620418E+01  0.10204990895E+01 0.  0.
     999903    2    3    3    0    0 -0.11659076224E+00 -0.55378630415E-01 -0.12983121153E-01  0.13121845235E+00  0.19736318179E-01 0.  0.
         14    1    1    2    0    0  0.11761792078E-01 -0.19059160667E-01 -0.59298336911E-02  0.23167958171E-01  0.00000000000E+00 0.  1.
     999901    1    3    3    0    0  0.10482897016E+00  0.74437791082E-01  0.18912954844E-01  0.88954358948E+00  0.88000000000E+00 0. -1.
        -11    1    4    4    0    0 -0.20362727939E-01 -0.96734779016E-02  0.52117247126E-02  0.23143898965E-01  0.51100000000E-03 0. -1.
         11    1    4    4    0    0 -0.96228034302E-01 -0.45705152514E-01 -0.18194845866E-01  0.10807455338E+00  0.51100000000E-03 0.  1.
</event>
<event>
 8    1  0.1111182E+005  0.1043930E+01  0.7957747E-01            NaN
         13   -1    0    0    0    0  0.00000000000E+00  0.00000000000E+00  0.74505805969E-08  0.10566000000E+00  0.10566000000E+00 0. -1.
     999900   -1    0    0    0    0 -0.00000000000E+00 -0.00000000000E+00 -0.74505805969E-08  0.93827000000E+00  0.93827000000E+00 0.  1.
     999902    2    1    2    0    0  0.13465440707E-01  0.62194750164E-02  0.18236479272E-01  0.10204232108E+01  0.10201524200E+01 0.  0.
     999903    2    3    3    0    0 -0.56653863986E-01  0.90191911134E-01 -0.70279856550E-01  0.12924240499E+00  0.20496337999E-01 0.  0.
         14    1    1    2    0    0 -0.13465440707E-01 -0.62194750164E-02 -0.18236479272E-01  0.23506789214E-01  0.00000000000E+00 0.  1.
     999901    1    3    3    0    0  0.70119304693E-01 -0.83972436118E-01  0.88516335823E-01  0.89118080580E+00  0.88000000000E+00 0. -1.
        -11    1    4    4    0    0 -0.27701091252E-01  0.61983588290E-01 -0.40806670651E-01  0.79213390058E-01  0.51100000000E-03 0. -1.
         11    1    4    4    0    0 -0.28952772734E-01  0.28208322845E-01 -0.29473185900E-01  0.50029014929E-01  0.51100000000E-03 0.  1.
</event>
<event>
 8    1  0.1111182E+005  0.1043930E+01  0.7957747E-01            NaN
         13   -1    0    0    0    0  0.00000000000E+00  0.00000000000E+00  0.74505805969E-08  0.10566000000E+00  0.10566000000E+00 0. -1.
     999900   -1    0    0    0    0 -0.00000000000E+00 -0.00000000000E+00 -0.74505805969E-08  0.93827000000E+00  0.93827000000E+00 0. -1.
     999902    2    1    2    0    0 -0.55075732332E-02  0.11699381265E-01  0.19662715385E-01  0.10203963802E+01  0.10201249636E+01 0.  0.
     999903    2    3    3    0    0 -0.71012105378E-02  0.12623606733E+00 -0.30274062333E-01  0.13156857128E+00  0.20194014281E-01 0.  0.
         14    1    1    2    0    0  0.55075732332E-02 -0.11699381265E-01 -0.19662715385E-01  0.23533619807E-01  0.00000000000E+00 0.  1.
     999901    1    3    3    0    0  0.15936373045E-02 -0.11453668606E+00  0.49936777718E-01  0.88882780892E+00  0.88000000000E+00 0.  1.
        -11    1    4    4    0    0  0.58763017578E-02  0.23771288848E-01 -0.91526602589E-02  0.26146460691E-01  0.51100000000E-03 0. -1.
         11    1    4    4    0    0 -0.12977512296E-01  0.10246477848E+00 -0.21121402074E-01  0.10542211059E+00  0.51100000000E-03 0.  1.
</event>
<event>
 8    1  0.1111182E+005  0.1043930E+01  0.7957747E-01            NaN
         13   -1    0    0    0    0  0.00000000000E+00  0.00000000000E+00  0.74505805969E-08  0.10566000000E+00  0.10566000000E+00 0. -1.
     999900   -1    0    0    0    0 -0.00000000000E+00 -0.00000000000E+00 -0.74505805969E-08  0.93827000000E+00  0.93827000000E+00 0.  1.
     999902    2    1    2    0    0 -0.12856292340E-01  0.20001689456E-01  0.62683183646E-03  0.10201446105E+01  0.10198672863E+01 0.  0.
     999903    2    3    3    0    0  0.11482470784E-01  0.10916420331E+00  0.71355866758E-01  0.13248199127E+00  0.20276781545E-01 0.  0.
         14    1    1    2    0    0  0.12856292340E-01 -0.20001689456E-01 -0.62683183646E-03  0.23785389464E-01  0.00000000000E+00 0.  1.
     999901    1    3    3    0    0 -0.24338763125E-01 -0.89162513853E-01 -0.70729034922E-01  0.88766261927E+00  0.88000000000E+00 0.  1.
        -11    1    4    4    0    0 -0.58942706314E-02  0.28222689944E-01  0.18502762236E-01  0.34261873640E-01  0.51100000000E-03 0. -1.
         11    1    4    4    0    0  0.17376741416E-01  0.80941513365E-01  0.52853104522E-01  0.98220117627E-01  0.51100000000E-03 0.  1.
</event>
<event>
 8    1  0.1111182E+005  0.1043930E+01  0.7957747E-01            NaN
         13   -1    0    0    0    0  0.00000000000E+00  0.00000000000E+00  0.74505805969E-08  0.10566000000E+00  0.10566000000E+00 0.  1.
     999900   -1    0    0    0    0 -0.00000000000E+00 -0.00000000000E+00 -0.74505805969E-08  0.93827000000E+00  0.93827000000E+00 0.  1.
     999902    2    1    2    0    0 -0.15460531655E-01 -0.25491232302E-02 -0.17082743208E-01  0.10207492713E+01  0.10204860257E+01 0.  0.
     999903    2    3    3    0    0  0.15785806253E-02 -0.59997312910E-01  0.11269966546E+00  0.12921458354E+00  0.19824846360E-01 0.  0.
         14    1    1    2    0    0  0.15460531655E-01  0.25491232302E-02  0.17082743208E-01  0.23180728716E-01  0.00000000000E+00 0.  1.
     999901    1    3    3    0    0 -0.17039112280E-01  0.57448189680E-01 -0.12978240866E+00  0.89153468774E+00  0.88000000000E+00 0.  1.
        -11    1    4    4    0    0  0.34769374829E-02 -0.29549103964E-01  0.36239681868E-01  0.46891516314E-01  0.51100000000E-03 0. -1.
         11    1    4    4    0    0 -0.18983568576E-02 -0.30448208946E-01  0.76459983588E-01  0.82323067229E-01  0.51100000000E-03 0.  1.
</event>
<event>
 8    1  0.1111182E+005  0.1043930E+01  0.7957747E-01            NaN
         13   -1    0    0    0    0  0.00000000000E+00  0.00000000000E+00  0.74505805969E-08  0.10566000000E+00  0.10566000000E+00 0. -1.
     999900   -1    0    0    0    0 -0.00000000000E+00 -0.00000000000E+00 -0.74505805969E-08  0.93827000000E+00  0.93827000000E+00 0. -1.
     999902    2    1    2    0    0  0.15565237098E-01 -0.42781432898E-02 -0.17537888266E-01  0.10200939634E+01  0.10198154429E+01 0.  0.
     999903    2    3    3    0    0  0.74929542919E-01  0.38163462343E-01 -0.10138772349E+00  0.13310117563E+00  0.19119786043E-01 0.  0.
         14    1    1    2    0    0 -0.15565237098E-01  0.42781432898E-02  0.17537888266E-01  0.23836036599E-01  0.00000000000E+00 0. -1.
     999901    1    3    3    0    0 -0.59364305821E-01 -0.42441605633E-01  0.83849835227E-01  0.88699278777E+00  0.88000000000E+00 0.  1.
        -11    1    4    4    0    0  0.60268418486E-01  0.35257882324E-01 -0.73018549734E-01  0.10103153101E+00  0.51100000000E-03 0.  1.
         11    1    4    4    0    0  0.14661124433E-01  0.29055800189E-02 -0.28369173759E-01  0.32069644614E-01  0.51100000000E-03 0. -1.
</event>
<event>
 8    1  0.1111182E+005  0.1043930E+01  0.7957747E-01            NaN
         13   -1    0    0    0    0  0.00000000000E+00  0.00000000000E+00  0.74505805969E-08  0.10566000000E+00  0.10566000000E+00 0. -1.
     999900   -1    0    0    0    0 -0.00000000000E+00 -0.00000000000E+00 -0.74505805969E-08  0.93827000000E+00  0.93827000000E+00 0. -1.
     999902    2    1    2    0    0 -0.20019571016E-02 -0.15763594573E-01 -0.18841367998E-01  0.10192825682E+01  0.10189845229E+01 0.  0.
     999903    2    3    3    0    0 -0.12125182012E+00  0.36791287093E-01 -0.18404626479E-01  0.12968561668E+00  0.20591896711E-01 0.  0.
         14    1    1    2    0    0  0.20019571016E-02  0.15763594573E-01  0.18841367998E-01  0.24647431795E-01  0.00000000000E+00 0. -1.
     999901    1    3    3    0    0  0.11924986302E+00 -0.52554881666E-01 -0.43674151871E-03  0.88959695152E+00  0.88000000000E+00 0. -1.
        -11    1    4    4    0    0 -0.50825585404E-01  0.25428675153E-01 -0.45685632478E-02  0.57017458229E-01  0.51100000000E-03 0.  1.
         11    1    4    4    0    0 -0.70426234714E-01  0.11362611940E-01 -0.13836063231E-01  0.72668158452E-01  0.51100000000E-03 0. -1.
</event>
<event>
 8    1  0.1111182E+005  0.1043930E+01  0.7957747E-01            NaN
         13   -1    0    0    0    0  0.00000000000E+00  0.00000000000E+00  0.74505805969E-08  0.10566000000E+00  0.10566000000E+00 0.  1.
     999900   -1    0    0    0    0 -0.00000000000E+00 -0.00000000000E+00 -0.74505805969E-08  0.93827000000E+00  0.93827000000E+00 0.  1.
     999902    2    1    2    0    0  0.16521973280E-01  0.16254465147E-01  0.41572625929E-05  0.10207527859E+01  0.10204896210E+01 0.  0.
     999903    2    3    3    0    0 -0.62891322842E-01 -0.10467175216E+00  0.33474839223E-01  0.12831236309E+00  0.20784693203E-01 0.  0.
         14    1    1    2    0    0 -0.16521973280E-01 -0.16254465147E-01 -0.41572625929E-05  0.23177214145E-01  0.00000000000E+00 0.  1.
     999901    1    3    3    0    0  0.79413296121E-01  0.12092621731E+00 -0.33470681960E-01  0.89244042276E+00  0.88000000000E+00 0. -1.
        -11    1    4    4    0    0 -0.42742684791E-01 -0.83402267865E-01  0.31784016648E-01  0.98961407748E-01  0.51100000000E-03 0. -1.
         11    1    4    4    0    0 -0.20148638051E-01 -0.21269484296E-01  0.16908225751E-02  0.29350955342E-01  0.51100000000E-03 0.  1.
</event>
<event>
 8    1  0.1111182E+005  0.1043930E+01  0.7957747E-01            NaN
         13   -1    0    0    0    0  0.00000000000E+00  0.00000000000E+00  0.74505805969E-08  0.10566000000E+00  0.10566000000E+00 0.  1.
     999900   -1    0    0    0    0 -0.00000000000E+00 -0.00000000000E+00 -0.74505805969E-08  0.93827000000E+00  0.93827000000E+00 0.  1.
     999902    2    1    2    0    0 -0.93635726268E-02  0.80994310600E-02 -0.17270383555E-01  0.10226804489E+01  0.10224596603E+01 0.  0.
     999903    2    3    3    0    0  0.42941915651E-01  0.35444914003E-01 -0.12093368959E+00  0.13463218408E+00  0.20012937419E-01 0.  0.
         14    1    1    2    0    0  0.93635726268E-02 -0.80994310600E-02  0.17270383555E-01  0.21249551148E-01  0.00000000000E+00 0.  1.
     999901    1    3    3    0    0 -0.52305488278E-01 -0.27345482943E-01  0.10366330604E+00  0.88804826477E+00  0.88000000000E+00 0. -1.
        -11    1    4    4    0    0  0.23839640842E-01  0.29109810943E-01 -0.63983647788E-01  0.74228551608E-01  0.51100000000E-03 0. -1.
         11    1    4    4    0    0  0.19102274809E-01  0.63351030607E-02 -0.56950041804E-01  0.60403632475E-01  0.51100000000E-03 0.  1.
</event>
<event>
 8    1  0.1111182E+005  0.1043930E+01  0.7957747E-01            NaN
         13   -1    0    0    0    0  0.00000000000E+00  0.00000000000E+00  0.74505805969E-08  0.10566000000E+00  0.10566000000E+00 0. -1.
     999900   -1    0    0    0    0 -0.00000000000E+00 -0.00000000000E+00 -0.74505805969E-08  0.93827000000E+00  0.93827000000E+00 0. -1.
     999902    2    1    2    0    0  0.60251716635E-05 -0.16291087917E-01  0.16579047175E-01  0.10206864119E+01  0.10204217202E+01 0.  0.
     999903    2    3    3    0    0 -0.12411603281E+00  0.27001022364E-01 -0.21170419544E-01  0.13012169539E+00  0.18698238905E-01 0.  0.
         14    1    1    2    0    0 -0.60251716635E-05  0.16291087917E-01 -0.16579047175E-01  0.23243588085E-01  0.00000000000E+00 0.  1.
     999901    1    3    3    0    0  0.12412205798E+00 -0.43292110281E-01  0.37749466719E-01  0.89056471653E+00  0.88000000000E+00 0.  1.
        -11    1    4    4    0    0 -0.94147610943E-01  0.24083485214E-01 -0.88436895746E-02  0.97582062248E-01  0.51100000000E-03 0.  1.
         11    1    4    4    0    0 -0.29968421864E-01  0.29175371499E-02 -0.12326729969E-01  0.32539633138E-01  0.51100000000E-03 0. -1.
</event>
<event>
 8    1  0.1111182E+005  0.1043930E+01  0.7957747E-01            NaN
         13   -1    0    0    0    0  0.00000000000E+00  0.00000000000E+00  0.74505805969E-08  0.10566000000E+00  0.10566000000E+00 0.  1.
     999900   -1    0    0    0    0 -0.00000000000E+00 -0.00000000000E+00 -0.74505805969E-08  0.93827000000E+00  0.93827000000E+00 0.  1.
     999902    2    1    2    0    0 -0.23465743354E-01  0.25422580179E-02  0.28781523633E-02  0.10201521122E+01  0.10198749649E+01 0.  0.
     999903    2    3    3    0    0 -0.91108739253E-02 -0.12581962750E-01 -0.12788242998E+00  0.13024586196E+00  0.19202990661E-01 0.  0.
         14    1    1    2    0    0  0.23465743354E-01 -0.25422580179E-02 -0.28781523633E-02  0.23777887796E-01  0.00000000000E+00 0.  1.
     999901    1    3    3    0    0 -0.14354869429E-01  0.15124220768E-01  0.13076058234E+00  0.88990625024E+00  0.88000000000E+00 0. -1.
        -11    1    4    4    0    0 -0.17778063361E-03 -0.15234679939E-01 -0.72875774762E-01  0.74453117779E-01  0.51100000000E-03 0.  1.
         11    1    4    4    0    0 -0.89330932917E-02  0.26527171889E-02 -0.55006655216E-01  0.55792744181E-01  0.51100000000E-03 0. -1.
</event>
<event>
 8    1  0.1111182E+005  0.1043930E+01  0.7957747E-01            NaN
         13   -1    0    0    0    0  0.00000000000E+00  0.00000000000E+00  0.74505805969E-08  0.10566000000E+00  0.10566000000E+00 0.  1.
     999900   -1    0    0    0    0 -0.00000000000E+00 -0.00000000000E+00 -0.74505805969E-08  0.93827000000E+00  0.93827000000E+00 0.  1.
     999902    2    1    2    0    0 -0.17825559377E-01 -0.99800416940E-02 -0.78047806195E-02  0.10220606973E+01  0.10218266989E+01 0.  0.
     999903    2    3    3    0    0  0.80547957875E-01 -0.71689169156E-01  0.71469503717E-01  0.13089865960E+00  0.19981457205E-01 0.  0.
         14    1    1    2    0    0  0.17825559377E-01  0.99800416940E-02  0.78047806195E-02  0.21869302683E-01  0.00000000000E+00 0.  1.
     999901    1    3    3    0    0 -0.98373517251E-01  0.61709127462E-01 -0.79274284336E-01  0.89116203772E+00  0.88000000000E+00 0.  1.
        -11    1    4    4    0    0  0.56285746966E-01 -0.38812538592E-01  0.39055472136E-01  0.78740646989E-01  0.51100000000E-03 0.  1.
         11    1    4    4    0    0  0.24262210908E-01 -0.32876630564E-01  0.32414031581E-01  0.52158012613E-01  0.51100000000E-03 0. -1.
</event>
<event>
 8    1  0.1111182E+005  0.1043930E+01  0.7957747E-01            NaN
         13   -1    0    0    0    0  0.00000000000E+00  0.00000000000E+00  0.74505805969E-08  0.10566000000E+00  0.10566000000E+00 0.  1.
     999900   -1    0    0    0    0 -0.00000000000E+00 -0.00000000000E+00 -0.74505805969E-08  0.93827000000E+00  0.93827000000E+00 0.  1.
     999902    2    1    2    0    0  0.37357789720E-02  0.17778272617E-01  0.15582838135E-01  0.10199957595E+01  0.10197149119E+01 0.  0.
     999903    2    3    3    0    0  0.94472913058E-01 -0.79083817678E-01 -0.31428704143E-01  0.12880241512E+00  0.20564950206E-01 0.  0.
         14    1    1    2    0    0 -0.37357789720E-02 -0.17778272617E-01 -0.15582838135E-01  0.23934240454E-01  0.00000000000E+00 0.  1.
     999901    1    3    3    0    0 -0.90737134086E-01  0.96862090295E-01  0.47011542278E-01  0.89119334442E+00  0.88000000000E+00 0. -1.
        -11    1    4    4    0    0  0.65100913472E-01 -0.56046034383E-01 -0.12066631353E-01  0.86747631773E-01  0.51100000000E-03 0. -1.
         11    1    4    4    0    0  0.29371999586E-01 -0.23037783295E-01 -0.19362072790E-01  0.42054783349E-01  0.51100000000E-03 0.  1.
</event>
<event>
 8    1  0.1111182E+005  0.1043930E+01  0.7957747E-01            NaN
         13   -1    0    0    0    0  0.00000000000E+00  0.00000000000E+00  0.74505805969E-08  0.10566000000E+00  0.10566000000E+00 0.  1.
     999900   -1    0    0    0    0 -0.00000000000E+00 -0.00000000000E+00 -0.74505805969E-08  0.93827000000E+00  0.93827000000E+00 0.  1.
     999902    2    1    2    0    0  0.23373388750E-02 -0.14155163301E-01 -0.18393786759E-01  0.10206026943E+01  0.10203360703E+01 0.  0.
     999903    2    3    3    0    0  0.76991254264E-01 -0.96784572688E-01  0.40578740328E-01  0.13162654986E+00  0.19596114891E-01 0.  0.
         14    1    1    2    0    0 -0.23373388750E-02  0.14155163301E-01  0.18393786759E-01  0.23327305726E-01  0.00000000000E+00 0.  1.
     999901    1    3    3    0    0 -0.74653915389E-01  0.82629409387E-01 -0.58972527087E-01  0.88897614441E+00  0.88000000000E+00 0. -1.
        -11    1    4    4    0    0  0.34404420012E-01 -0.29657277636E-01  0.19101313233E-01  0.49278185046E-01  0.51100000000E-03 0.  1.
         11    1    4    4    0    0  0.42586834252E-01 -0.67127295052E-01  0.21477427095E-01  0.82348364818E-01  0.51100000000E-03 0. -1.
</event>
<event>
 8    1  0.1111182E+005  0.1043930E+01  0.7957747E-01            NaN
         13   -1    0    0    0    0  0.00000000000E+00  0.00000000000E+00  0.74505805969E-08  0.10566000000E+00  0.10566000000E+00 0.  1.
     999900   -1    0    0    0    0 -0.00000000000E+00 -0.00000000000E+00 -0.74505805969E-08  0.93827000000E+00  0.93827000000E+00 0.  1.
     999902    2    1    2    0    0  0.18964251590E-01  0.14320092012E-01 -0.87396008071E-02  0.10186102746E+01  0.10182955381E+01 0.  0.
     999903    2    3    3    0    0  0.47588041082E-01  0.56637056770E-01  0.10427519504E+00  0.12991325595E+00  0.23059920150E-01 0.  0.
         14    1    1    2    0    0 -0.18964251590E-01 -0.14320092012E-01  0.87396008071E-02  0.25319725430E-01  0.00000000000E+00 0.  1.
     999901    1    3    3    0    0 -0.28623789492E-01 -0.42316964757E-01 -0.11301479584E+00  0.88869701862E+00  0.88000000000E+00 0.  1.
        -11    1    4    4    0    0  0.14245174936E-01  0.10687867190E-01  0.11697062587E-01  0.21312857814E-01  0.51100000000E-03 0. -1.
         11    1    4    4    0    0  0.33342866146E-01  0.45949189579E-01  0.92578132449E-01  0.10860039813E+00  0.51100000000E-03 0.  1.
</event>
<event>
 8    1  0.1111182E+005  0.1043930E+01  0.7957747E-01            NaN
         13   -1    0    0    0    0  0.00000000000E+00  0.00000000000E+00  0.74505805969E-08  0.10566000000E+00  0.10566000000E+00 0. -1.
     999900   -1    0    0    0    0 -0.00000000000E+00 -0.00000000000E+00 -0.74505805969E-08  0.93827000000E+00  0.93827000000E+00 0. -1.
     999902    2    1    2    0    0  0.16766288404E-01  0.13096566939E-01 -0.10327437255E-01  0.10202808044E+01  0.10200066840E+01 0.  0.
     999903    2    3    3    0    0 -0.11571172332E+00  0.34771663660E-01 -0.42053660974E-01  0.12953573050E+00  0.20315599076E-01 0.  0.
         14    1    1    2    0    0 -0.16766288404E-01 -0.13096566939E-01  0.10327437255E-01  0.23649195603E-01  0.00000000000E+00 0. -1.
     999901    1    3    3    0    0  0.13247801173E+00 -0.21675096721E-01  0.31726223720E-01  0.89074507390E+00  0.88000000000E+00 0.  1.
        -11    1    4    4    0    0 -0.10014705640E+00  0.25347953121E-01 -0.29539931385E-01  0.10744682545E+00  0.51100000000E-03 0.  1.
         11    1    4    4    0    0 -0.15564666926E-01  0.94237105382E-02 -0.12513729590E-01  0.22088905044E-01  0.51100000000E-03 0. -1.
</event>
<event>
 8    1  0.1111182E+005  0.1043930E+01  0.7957747E-01            NaN
         13   -1    0    0    0    0  0.00000000000E+00  0.00000000000E+00  0.74505805969E-08  0.10566000000E+00  0.10566000000E+00 0.  1.
     999900   -1    0    0    0    0 -0.00000000000E+00 -0.00000000000E+00 -0.74505805969E-08  0.93827000000E+00  0.93827000000E+00 0.  1.
     999902    2    1    2    0    0 -0.74497020277E-02 -0.38719542670E-02  0.21549768505E-01  0.10208024707E+01  0.10205404458E+01 0.  0.
     999903    2    3    3    0    0 -0.10971687874E+00  0.68761150612E-01  0.15660949799E-01  0.13188806448E+00  0.19578224839E-01 0.  0.
         14    1    1    2    0    0  0.74497020277E-02  0.38719542670E-02 -0.21549768505E-01  0.23127529327E-01  0.00000000000E+00 0. -1.
     999901    1    3    3    0    0  0.10226717672E+00 -0.72633104879E-01  0.58888187060E-02  0.88891440620E+00  0.88000000000E+00 0. -1.
        -11    1    4    4    0    0 -0.18333178640E-01  0.20105612435E-01  0.63098204448E-02  0.27935927503E-01  0.51100000000E-03 0.  1.
         11    1    4    4    0    0 -0.91383700104E-01  0.48655538177E-01  0.93511293546E-02  0.10395213697E+00  0.51100000000E-03 0. -1.
</event>
<event>
 8    1  0.1152333E+005  0.1043930E+01  0.7957747E-01            NaN
         13   -1    0    0    0    0  0.00000000000E+00  0.00000000000E+00  0.74505805969E-08  0.10566000000E+00  0.10566000000E+00 0. -1.
     999900   -1    0    0    0    0 -0.00000000000E+00 -0.00000000000E+00 -0.74505805969E-08  0.93827000000E+00  0.93827000000E+00 0. -1.
     999902    2    1    2    0    0  0.10163639197E-01 -0.12825757195E-01 -0.17078140955E-01  0.10202770402E+01  0.10200028315E+01 0.  0.
     999903    2    3    3    0    0  0.60253049304E-01 -0.11247911224E+00  0.27888283890E-01  0.13209816207E+00  0.19753161813E-01 0.  0.
         14    1    1    2    0    0 -0.10163639197E-01  0.12825757195E-01  0.17078140955E-01  0.23652959811E-01  0.00000000000E+00 0. -1.
     999901    1    3    3    0    0 -0.50089410108E-01  0.99653355049E-01 -0.44966424845E-01  0.88817887812E+00  0.88000000000E+00 0. -1.
        -11    1    4    4    0    0  0.41432590789E-01 -0.56550837908E-01  0.14771476164E-01  0.71645756864E-01  0.51100000000E-03 0.  1.
         11    1    4    4    0    0  0.18820458516E-01 -0.55928274337E-01  0.13116807726E-01  0.60452405204E-01  0.51100000000E-03 0. -1.
</event>
<event>
 8    1  0.1111182E+005  0.1043930E+01  0.7957747E-01            NaN
         13   -1    0    0    0    0  0.00000000000E+00  0.00000000000E+00  0.74505805969E-08  0.10566000000E+00  0.10566000000E+00 0. -1.
     999900   -1    0    0    0    0 -0.00000000000E+00 -0.00000000000E+00 -0.74505805969E-08  0.93827000000E+00  0.93827000000E+00 0. -1.
     999902    2    1    2    0    0 -0.23108433736E-01 -0.23361674109E-02  0.83165242956E-02  0.10192597352E+01  0.10189611307E+01 0.  0.
     999903    2    3    3    0    0 -0.41552975452E-01  0.40254817310E-01  0.11641705057E+00  0.13143096970E+00  0.19340890550E-01 0.  0.
         14    1    1    2    0    0  0.23108433736E-01  0.23361674109E-02 -0.83165242956E-02  0.24670264779E-01  0.00000000000E+00 0. -1.
     999901    1    3    3    0    0  0.18444541716E-01 -0.42590984721E-01 -0.10810052628E+00  0.88782876552E+00  0.88000000000E+00 0. -1.
        -11    1    4    4    0    0 -0.24776426075E-01  0.30836721462E-01  0.93367013414E-01  0.10140234215E+00  0.51100000000E-03 0.  1.
         11    1    4    4    0    0 -0.16776549377E-01  0.94180958487E-02  0.23050037160E-01  0.30028627549E-01  0.51100000000E-03 0. -1.
</event>
<event>
 8    1  0.1111182E+005  0.1043930E+01  0.7957747E-01            NaN
         13   -1    0    0    0    0  0.00000000000E+00  0.00000000000E+00  0.74505805969E-08  0.10566000000E+00  0.10566000000E+00 0.  1.
     999900   -1    0    0    0    0 -0.00000000000E+00 -0.00000000000E+00 -0.74505805969E-08  0.93827000000E+00  0.93827000000E+00 0. -1.
     999902    2    1    2    0    0 -0.29278349967E-02  0.10628747004E-01 -0.20990608596E-01  0.10202203368E+01  0.10199447963E+01 0.  0.
     999903    2    3    3    0    0  0.53732218493E-02 -0.14607325360E-01 -0.13051938800E+00  0.13303246468E+00  0.20495866619E-01 0.  0.
         14    1    1    2    0    0  0.29278349967E-02 -0.10628747004E-01  0.20990608596E-01  0.23709663217E-01  0.00000000000E+00 0.  1.
     999901    1    3    3    0    0 -0.83010568459E-02  0.25236072364E-01  0.10952877940E+00  0.88718787210E+00  0.88000000000E+00 0.  1.
        -11    1    4    4    0    0  0.86028369630E-02  0.13557684237E-02 -0.61500901653E-01  0.62116575380E-01  0.51100000000E-03 0. -1.
         11    1    4    4    0    0 -0.32296151137E-02 -0.15963093784E-01 -0.69018486342E-01  0.70915889298E-01  0.51100000000E-03 0.  1.
</event>
<event>
 8    1  0.1111182E+005  0.1043930E+01  0.7957747E-01            NaN
         13   -1    0    0    0    0  0.00000000000E+00  0.00000000000E+00  0.74505805969E-08  0.10566000000E+00  0.10566000000E+00 0.  1.
     999900   -1    0    0    0    0 -0.00000000000E+00 -0.00000000000E+00 -0.74505805969E-08  0.93827000000E+00  0.93827000000E+00 0.  1.
     999902    2    1    2    0    0 -0.68794799819E-02  0.21527185531E-01 -0.69879110134E-02  0.10202746018E+01  0.10200003359E+01 0.  0.
     999903    2    3    3    0    0  0.10446713513E+00  0.76775048956E-01  0.81782774047E-02  0.13140992801E+00  0.19846775425E-01 0.  0.
         14    1    1    2    0    0  0.68794799819E-02 -0.21527185531E-01  0.69879110134E-02  0.23655398159E-01  0.00000000000E+00 0. -1.
     999901    1    3    3    0    0 -0.11134661511E+00 -0.55247863425E-01 -0.15166188418E-01  0.88886467383E+00  0.88000000000E+00 0.  1.
        -11    1    4    4    0    0  0.31388496311E-01  0.23550079859E-01 -0.66199730007E-02  0.39798607080E-01  0.51100000000E-03 0. -1.
         11    1    4    4    0    0  0.73078638818E-01  0.53224969098E-01  0.14798250405E-01  0.91611320932E-01  0.51100000000E-03 0.  1.
</event>
<event>
 8    1  0.1111182E+005  0.1043930E+01  0.7957747E-01            NaN
         13   -1    0    0    0    0  0.00000000000E+00  0.00000000000E+00  0.74505805969E-08  0.10566000000E+00  0.10566000000E+00 0.  1.
     999900   -1    0    0    0    0 -0.00000000000E+00 -0.00000000000E+00 -0.74505805969E-08  0.93827000000E+00  0.93827000000E+00 0. -1.
     999902    2    1    2    0    0 -0.24354335689E-01  0.29451975749E-02 -0.47421249895E-02  0.10189440919E+01  0.10186377014E+01 0.  0.
     999903    2    3    3    0    0 -0.15424166581E-01 -0.77678365417E-01 -0.10112324053E+00  0.12997321144E+00  0.19881965358E-01 0.  0.
         14    1    1    2    0    0  0.24354335689E-01 -0.29451975749E-02  0.47421249895E-02  0.24985908129E-01  0.00000000000E+00 0. -1.
     999901    1    3    3    0    0 -0.89301691081E-02  0.80623562992E-01  0.96381115543E-01  0.88897088044E+00  0.88000000000E+00 0.  1.
        -11    1    4    4    0    0 -0.18702458601E-01 -0.64870560183E-01 -0.91018874945E-01  0.11332549693E+00  0.51100000000E-03 0. -1.
         11    1    4    4    0    0  0.32782920199E-02 -0.12807805234E-01 -0.10104365588E-01  0.16647714510E-01  0.51100000000E-03 0.  1.
</event>
<event>
 8    1  0.1111182E+005  0.1043930E+01  0.7957747E-01            NaN
         13   -1    0    0    0    0  0.00000000000E+00  0.00000000000E+00  0.74505805969E-08  0.10566000000E+00  0.10566000000E+00 0.  1.
     999900   -1    0    0    0    0 -0.00000000000E+00 -0.00000000000E+00 -0.74505805969E-08  0.93827000000E+00  0.93827000000E+00 0.  1.
     999902    2    1    2    0    0  0.70917857664E-02 -0.27048900372E-01 -0.89547498459E-03  0.10159525392E+01  0.10155672423E+01 0.  0.
     999903    2    3    3    0    0 -0.12787795768E-01 -0.11451585066E+00  0.55496907406E-01  0.12959721207E+00  0.20931384870E-01 0.  0.
         14    1    1    2    0    0 -0.70917857664E-02  0.27048900372E-01  0.89547498459E-03  0.27977460788E-01  0.00000000000E+00 0.  1.
     999901    1    3    3    0    0  0.19879581534E-01  0.87466950289E-01 -0.56392382391E-01  0.88635532714E+00  0.88000000000E+00 0.  1.
        -11    1    4    4    0    0  0.24771219076E-02 -0.66894631937E-01  0.28401145237E-01  0.72718045124E-01  0.51100000000E-03 0. -1.
         11    1    4    4    0    0 -0.15264917675E-01 -0.47621218724E-01  0.27095762170E-01  0.56879166950E-01  0.51100000000E-03 0.  1.
</event>
<event>
 8    1  0.1111182E+005  0.1043930E+01  0.7957747E-01            NaN
         13   -1    0    0    0    0  0.00000000000E+00  0.00000000000E+00  0.74505805969E-08  0.10566000000E+00  0.10566000000E+00 0.  1.
     999900   -1    0    0    0    0 -0.00000000000E+00 -0.00000000000E+00 -0.74505805969E-08  0.93827000000E+00  0.93827000000E+00 0. -1.
     999902    2    1    2    0    0  0.26871674989E-04 -0.62677830860E-02  0.22554402965E-01  0.10205208796E+01  0.10202523603E+01 0.  0.
     999903    2    3    3    0    0  0.12380342610E+00 -0.19660875453E-01 -0.29633058947E-01  0.13022680368E+00  0.19158911177E-01 0.  0.
         14    1    1    2    0    0 -0.26871674989E-04  0.62677830860E-02 -0.22554402965E-01  0.23409120445E-01  0.00000000000E+00 0. -1.
     999901    1    3    3    0    0 -0.12377655443E+00  0.13393092367E-01  0.52187461912E-01  0.89029407587E+00  0.88000000000E+00 0. -1.
        -11    1    4    4    0    0  0.10746782972E+00 -0.17291093041E-01 -0.32200102960E-01  0.11351398185E+00  0.51100000000E-03 0.  1.
         11    1    4    4    0    0  0.16335596377E-01 -0.23697824122E-02  0.25670440127E-02  0.16712821834E-01  0.51100000000E-03 0. -1.
</event>
<event>
 8    1  0.1111182E+005  0.1043930E+01  0.7957747E-01            NaN
         13   -1    0    0    0    0  0.00000000000E+00  0.00000000000E+00  0.74505805969E-08  0.10566000000E+00  0.10566000000E+00 0. -1.
     999900   -1    0    0    0    0 -0.00000000000E+00 -0.00000000000E+00 -0.74505805969E-08  0.93827000000E+00  0.93827000000E+00 0.  1.
     999902    2    1    2    0    0  0.16177104475E-01  0.17057582587E-01  0.58086440047E-02  0.10197142989E+01  0.10194267268E+01 0.  0.
     999903    2    3    3    0    0  0.10501103961E+00 -0.32815395782E-01 -0.67611871998E-01  0.13079959314E+00  0.20808644592E-01 0.  0.
         14    1    1    2    0    0 -0.16177104475E-01 -0.17057582587E-01 -0.58086440047E-02  0.24215701066E-01  0.00000000000E+00 0. -1.
     999901    1    3    3    0    0 -0.88833935140E-01  0.49872978370E-01  0.73420516002E-01  0.88891470579E+00  0.88000000000E+00 0. -1.
        -11    1    4    4    0    0  0.57595186943E-01 -0.11847782003E-01 -0.25893350937E-01  0.64251865662E-01  0.51100000000E-03 0.  1.
         11    1    4    4    0    0  0.47415852672E-01 -0.20967613780E-01 -0.41718521060E-01  0.66547727480E-01  0.51100000000E-03 0. -1.
</event>
<event>
 8    1  0.1111182E+005  0.1043930E+01  0.7957747E-01            NaN
         13   -1    0    0    0    0  0.00000000000E+00  0.00000000000E+00  0.74505805969E-08  0.10566000000E+00  0.10566000000E+00 0. -1.
     999900   -1    0    0    0    0 -0.00000000000E+00 -0.00000000000E+00 -0.74505805969E-08  0.93827000000E+00  0.93827000000E+00 0. -1.
     999902    2    1    2    0    0 -0.19964287201E-01 -0.74830093817E-02 -0.94253778390E-02  0.10206189310E+01  0.10203526823E+01 0.  0.
     999903    2    3    3    0    0  0.61675878378E-01 -0.69581403692E-01  0.87715278111E-01  0.12935149956E+00  0.19807945673E-01 0.  0.
         14    1    1    2    0    0  0.19964287201E-01  0.74830093817E-02  0.94253778390E-02  0.23311069050E-01  0.00000000000E+00 0. -1.
     999901    1    3    3    0    0 -0.81640165579E-01  0.62098394310E-01 -0.97140655950E-01  0.89126743139E+00  0.88000000000E+00 0. -1.
        -11    1    4    4    0    0  0.45007138324E-01 -0.57551252722E-01  0.58351611595E-01  0.93503801456E-01  0.51100000000E-03 0.  1.
         11    1    4    4    0    0  0.16668740054E-01 -0.12030150970E-01  0.29363666516E-01  0.35847698108E-01  0.51100000000E-03 0. -1.
</event>
<event>
 8    1  0.1111182E+005  0.1043930E+01  0.7957747E-01            NaN
         13   -1    0    0    0    0  0.00000000000E+00  0.00000000000E+00  0.74505805969E-08  0.10566000000E+00  0.10566000000E+00 0.  1.
     999900   -1    0    0    0    0 -0.00000000000E+00 -0.00000000000E+00 -0.74505805969E-08  0.93827000000E+00  0.93827000000E+00 0.  1.
     999902    2    1    2    0    0 -0.74992915400E-02  0.22426022275E-01 -0.13222753365E-02  0.10202463715E+01  0.10199714428E+01 0.  0.
     999903    2    3    3    0    0 -0.49956665774E-03 -0.22813571052E-01  0.12627549289E+00  0.12986622377E+00  0.19975669696E-01 0.  0.
         14    1    1    2    0    0  0.74992915400E-02 -0.22426022275E-01  0.13222753365E-02  0.23683628538E-01  0.00000000000E+00 0. -1.
     999901    1    3    3    0    0 -0.69997248822E-02  0.45239593327E-01 -0.12759776823E+00  0.89038014769E+00  0.88000000000E+00 0.  1.
        -11    1    4    4    0    0 -0.95988580120E-02 -0.11666547465E-01  0.49669275123E-01  0.51918632659E-01  0.51100000000E-03 0. -1.
         11    1    4    4    0    0  0.90992913542E-02 -0.11147023587E-01  0.76606217767E-01  0.77947591108E-01  0.51100000000E-03 0.  1.
</event>
<event>
 8    1  0.1111182E+005  0.1043930E+01  0.7957747E-01            NaN
         13   -1    0    0    0    0  0.00000000000E+00  0.00000000000E+00  0.74505805969E-08  0.10566000000E+00  0.10566000000E+00 0.  1.
     999900   -1    0    0    0    0 -0.00000000000E+00 -0.00000000000E+00 -0.74505805969E-08  0.93827000000E+00  0.93827000000E+00 0.  1.
     999902    2    1    2    0    0  0.11752699086E-01  0.49965370132E-02 -0.28648375188E-03  0.10311560660E+01  0.10310769413E+01 0.  0.
     999903    2    3    3    0    0  0.92538540737E-01 -0.84921495646E-01  0.60449079973E-01  0.14081881890E+00  0.20020153376E-01 0.  0.
         14    1    1    2    0    0 -0.11752699086E-01 -0.49965370132E-02  0.28648375188E-03  0.12773934040E-01  0.00000000000E+00 0. -1.
     999901    1    3    3    0    0 -0.80785841652E-01  0.89918032659E-01 -0.60735563725E-01  0.89033724706E+00  0.88000000000E+00 0. -1.
        -11    1    4    4    0    0  0.81420020365E-01 -0.70624493680E-01  0.44245811811E-01  0.11651176682E+00  0.51100000000E-03 0.  1.
         11    1    4    4    0    0  0.11118520372E-01 -0.14297001966E-01  0.16203268162E-01  0.24307052076E-01  0.51100000000E-03 0. -1.
</event>
<event>
 8    1  0.1111182E+005  0.1043930E+01  0.7957747E-01            NaN
         13   -1    0    0    0    0  0.00000000000E+00  0.00000000000E+00  0.74505805969E-08  0.10566000000E+00  0.10566000000E+00 0.  1.
     999900   -1    0    0    0    0 -0.00000000000E+00 -0.00000000000E+00 -0.74505805969E-08  0.93827000000E+00  0.93827000000E+00 0.  1.
     999902    2    1    2    0    0 -0.15863029772E-01 -0.84654753319E-02  0.15254172976E-01  0.10203505645E+01  0.10200780777E+01 0.  0.
     999903    2    3    3    0    0  0.30880077394E-01 -0.88160791140E-01 -0.87564125397E-01  0.12955998084E+00  0.19809298423E-01 0.  0.
         14    1    1    2    0    0  0.15863029772E-01  0.84654753319E-02 -0.15254172976E-01  0.23579435518E-01  0.00000000000E+00 0. -1.
     999901    1    3    3    0    0 -0.46743107166E-01  0.79695315808E-01  0.10281829837E+00  0.89079058364E+00  0.88000000000E+00 0. -1.
        -11    1    4    4    0    0  0.72726303369E-02 -0.38278667587E-01 -0.47082988866E-01  0.61116417645E-01  0.51100000000E-03 0.  1.
         11    1    4    4    0    0  0.23607447057E-01 -0.49882123553E-01 -0.40481136531E-01  0.68443563193E-01  0.51100000000E-03 0. -1.
</event>
<event>
 8    1  0.1111182E+005  0.1043930E+01  0.7957747E-01            NaN
         13   -1    0    0    0    0  0.00000000000E+00  0.00000000000E+00  0.74505805969E-08  0.10566000000E+00  0.10566000000E+00 0.  1.
     999900   -1    0    0    0    0 -0.00000000000E+00 -0.00000000000E+00 -0.74505805969E-08  0.93827000000E+00  0.93827000000E+00 0. -1.
     999902    2    1    2    0    0 -0.17752452705E-01 -0.55791915276E-02 -0.19089405320E-01  0.10172713738E+01  0.10169220057E+01 0.  0.
     999903    2    3    3    0    0  0.24708114197E-01  0.54105764820E-01  0.10823915631E+00  0.12509551874E+00  0.19880874153E-01 0.  0.
         14    1    1    2    0    0  0.17752452705E-01  0.55791915276E-02  0.19089405320E-01  0.26658626196E-01  0.00000000000E+00 0.  1.
     999901    1    3    3    0    0 -0.42460566903E-01 -0.59684956347E-01 -0.12732856163E+00  0.89217585507E+00  0.88000000000E+00 0. -1.
        -11    1    4    4    0    0  0.19204747765E-01  0.21717932273E-01  0.61156690851E-01  0.67682293666E-01  0.51100000000E-03 0.  1.
         11    1    4    4    0    0  0.55033664320E-02  0.32387832547E-01  0.47082465454E-01  0.57413225074E-01  0.51100000000E-03 0. -1.
</event>
<event>
 8    1  0.1111182E+005  0.1043930E+01  0.7957747E-01            NaN
         13   -1    0    0    0    0  0.00000000000E+00  0.00000000000E+00  0.74505805969E-08  0.10566000000E+00  0.10566000000E+00 0. -1.
     999900   -1    0    0    0    0 -0.00000000000E+00 -0.00000000000E+00 -0.74505805969E-08  0.93827000000E+00  0.93827000000E+00 0. -1.
     999902    2    1    2    0    0  0.11304496853E-01 -0.18922556056E-01 -0.86132435458E-02  0.10202647778E+01  0.10199902814E+01 0.  0.
     999903    2    3    3    0    0  0.65582740123E-01 -0.45550795279E-01 -0.10456731939E+00  0.13298670669E+00  0.19369282915E-01 0.  0.
         14    1    1    2    0    0 -0.11304496853E-01  0.18922556056E-01  0.86132435458E-02  0.23665222188E-01  0.00000000000E+00 0.  1.
     999901    1    3    3    0    0 -0.54278243269E-01  0.26628239223E-01  0.95954075843E-01  0.88727807112E+00  0.88000000000E+00 0.  1.
        -11    1    4    4    0    0  0.44136011616E-01 -0.34792413304E-01 -0.85578289018E-01  0.10238361303E+00  0.51100000000E-03 0. -1.
         11    1    4    4    0    0  0.21446728507E-01 -0.10758381975E-01 -0.18989030370E-01  0.30603093664E-01  0.51100000000E-03 0.  1.
</event>
<event>
 8    1  0.1111182E+005  0.1043930E+01  0.7957747E-01            NaN
         13   -1    0    0    0    0  0.00000000000E+00  0.00000000000E+00  0.74505805969E-08  0.10566000000E+00  0.10566000000E+00 0. -1.
     999900   -1    0    0    0    0 -0.00000000000E+00 -0.00000000000E+00 -0.74505805969E-08  0.93827000000E+00  0.93827000000E+00 0.  1.
     999902    2    1    2    0    0  0.16973201539E-01 -0.15136631769E-01  0.58461040955E-02  0.10204484301E+01  0.10201782268E+01 0.  0.
     999903    2    3    3    0    0 -0.43690512608E-01  0.10936507373E+00 -0.46524752943E-01  0.12807884996E+00  0.19236915770E-01 0.  0.
         14    1    1    2    0    0 -0.16973201539E-01  0.15136631769E-01 -0.58461040955E-02  0.23481569899E-01  0.00000000000E+00 0. -1.
     999901    1    3    3    0    0  0.60663714148E-01 -0.12450170550E+00  0.52370857038E-01  0.89236958014E+00  0.88000000000E+00 0. -1.
        -11    1    4    4    0    0 -0.33735535366E-01  0.59408231690E-01 -0.28784946278E-01  0.74136756013E-01  0.51100000000E-03 0.  1.
         11    1    4    4    0    0 -0.99549772419E-02  0.49956842039E-01 -0.17739806665E-01  0.53942093952E-01  0.51100000000E-03 0. -1.
</event>
<event>
 8    1  0.1111182E+005  0.1043930E+01  0.7957747E-01            NaN
         13   -1    0    0    0    0  0.00000000000E+00  0.00000000000E+00  0.74505805969E-08  0.10566000000E+00  0.10566000000E+00 0.  1.
     999900   -1    0    0    0    0 -0.00000000000E+00 -0.00000000000E+00 -0.74505805969E-08  0.93827000000E+00  0.93827000000E+00 0.  1.
     999902    2    1    2    0    0 -0.14229729173E-01  0.17608164702E-01  0.87295294209E-02  0.10196660898E+01  0.10193773576E+01 0.  0.
     999903    2    3    3    0    0  0.34363603357E-02 -0.10162391941E+00 -0.74321859000E-01  0.12757533556E+00  0.20310045523E-01 0.  0.
         14    1    1    2    0    0  0.14229729173E-01 -0.17608164702E-01 -0.87295294209E-02  0.24263910246E-01  0.00000000000E+00 0. -1.
     999901    1    3    3    0    0 -0.17666089508E-01  0.11923208411E+00  0.83051388421E-01  0.89209075419E+00  0.88000000000E+00 0.  1.
        -11    1    4    4    0    0  0.77333709817E-03 -0.38507995979E-01 -0.16393152352E-01  0.41862398040E-01  0.51100000000E-03 0. -1.
         11    1    4    4    0    0  0.26630232375E-02 -0.63115923432E-01 -0.57928706648E-01  0.85712937520E-01  0.51100000000E-03 0.  1.
</event>
<event>
 8    1  0.1111182E+005  0.1043930E+01  0.7957747E-01            NaN
         13   -1    0    0    0    0  0.00000000000E+00  0.00000000000E+00  0.74505805969E-08  0.10566000000E+00  0.10566000000E+00 0.  1.
     999900   -1    0    0    0    0 -0.00000000000E+00 -0.00000000000E+00 -0.74505805969E-08  0.93827000000E+00  0.93827000000E+00 0.  1.
     999902    2    1    2    0    0 -0.17480593865E-01  0.64736002709E-02 -0.16986941117E-01  0.10187102690E+01  0.10183980447E+01 0.  0.
     999903    2    3    3    0    0  0.70109493086E-01  0.79707867672E-01  0.67572524185E-01  0.12731496702E+00  0.19348633349E-01 0.  0.
         14    1    1    2    0    0  0.17480593865E-01 -0.64736002709E-02  0.16986941117E-01  0.25219730983E-01  0.00000000000E+00 0. -1.
     999901    1    3    3    0    0 -0.87590086951E-01 -0.73234267401E-01 -0.84559465301E-01  0.89139530200E+00  0.88000000000E+00 0.  1.
        -11    1    4    4    0    0  0.64658543467E-01  0.71111175437E-01  0.53689568311E-01  0.11009249467E+00  0.51100000000E-03 0.  1.
         11    1    4    4    0    0  0.54509496192E-02  0.85966922350E-02  0.13882955873E-01  0.17222472352E-01  0.51100000000E-03 0. -1.
</event>
<event>
 7    1  0.1111182E+005  0.1043930E+01  0.7957747E-01            NaN
         13   -1    0    0    0    0  0.00000000000E+00  0.00000000000E+00  0.74505805969E-08  0.10566000000E+00  0.10566000000E+00 0. -1.
     999900   -1    0    0    0    0 -0.00000000000E+00 -0.00000000000E+00 -0.74505805969E-08  0.93827000000E+00  0.93827000000E+00 0. -1.
     999903    2    1    2    0    0 -0.36749107184E-01 -0.21173166006E-01  0.10003913379E+00  0.11055015203E+00  0.20364380381E-01 0.  0.
         14    1    1    2    0    0 -0.31293228397E-01  0.25306240240E-02 -0.36686236386E-01  0.48286127838E-01  0.00000000000E+00 0.  1.
     999901    1    1    2    0    0  0.68042335581E-01  0.18642541982E-01 -0.63352897400E-01  0.88509372013E+00  0.88000000000E+00 0. -1.
        -11    1    3    3    0    0 -0.25400672356E-02 -0.10983685569E-01  0.21621037179E-01  0.24389006949E-01  0.51100000000E-03 0. -1.
         11    1    3    3    0    0 -0.34209039949E-01 -0.10189480437E-01  0.78418096607E-01  0.86161145084E-01  0.51100000000E-03 0.  1.
</event>
<event>
 8    1  0.1111182E+005  0.1043930E+01  0.7957747E-01            NaN
         13   -1    0    0    0    0  0.00000000000E+00  0.00000000000E+00  0.74505805969E-08  0.10566000000E+00  0.10566000000E+00 0. -1.
     999900   -1    0    0    0    0 -0.00000000000E+00 -0.00000000000E+00 -0.74505805969E-08  0.93827000000E+00  0.93827000000E+00 0. -1.
     999902    2    1    2    0    0 -0.15788430671E-01  0.10711691996E-01  0.15350797773E-01  0.10194420054E+01  0.10191478501E+01 0.  0.
     999903    2    3    3    0    0  0.12324997452E+00  0.12853102090E-01 -0.22976203476E-01  0.12769920457E+00  0.20577231862E-01 0.  0.
         14    1    1    2    0    0  0.15788430671E-01 -0.10711691996E-01 -0.15350797773E-01  0.24487994625E-01  0.00000000000E+00 0.  1.
     999901    1    3    3    0    0 -0.13903840519E+00 -0.21414100941E-02  0.38327001249E-01  0.89174280080E+00  0.88000000000E+00 0. -1.
        -11    1    4    4    0    0  0.61392411909E-01  0.79774255449E-02 -0.11511125304E-02  0.61921351240E-01  0.51100000000E-03 0. -1.
         11    1    4    4    0    0  0.61857562608E-01  0.48756765454E-02 -0.21825090945E-01  0.65777853335E-01  0.51100000000E-03 0.  1.
</event>
<event>
 8    1  0.1111182E+005  0.1043930E+01  0.7957747E-01            NaN
         13   -1    0    0    0    0  0.00000000000E+00  0.00000000000E+00  0.74505805969E-08  0.10566000000E+00  0.10566000000E+00 0.  1.
     999900   -1    0    0    0    0 -0.00000000000E+00 -0.00000000000E+00 -0.74505805969E-08  0.93827000000E+00  0.93827000000E+00 0. -1.
     999902    2    1    2    0    0  0.47360150837E-02 -0.23034174042E-01 -0.67422471803E-02  0.10194665393E+01  0.10191729803E+01 0.  0.
     999903    2    3    3    0    0  0.59114122024E-01  0.98449825323E-01 -0.53312457304E-01  0.12824034742E+00  0.20408847913E-01 0.  0.
         14    1    1    2    0    0 -0.47360150837E-02  0.23034174042E-01  0.67422471803E-02  0.24463460706E-01  0.00000000000E+00 0.  1.
     999901    1    3    3    0    0 -0.54378106940E-01 -0.12148399937E+00  0.46570210123E-01  0.89122619188E+00  0.88000000000E+00 0. -1.
        -11    1    4    4    0    0  0.14174499497E-01  0.99300026214E-02 -0.91832542487E-02  0.19598843528E-01  0.51100000000E-03 0.  1.
         11    1    4    4    0    0  0.44939622527E-01  0.88519822702E-01 -0.44129203055E-01  0.10864150389E+00  0.51100000000E-03 0. -1.
</event>
<event>
 8    1  0.1111182E+005  0.1043930E+01  0.7957747E-01            NaN
         13   -1    0    0    0    0  0.00000000000E+00  0.00000000000E+00  0.74505805969E-08  0.10566000000E+00  0.10566000000E+00 0. -1.
     999900   -1    0    0    0    0 -0.00000000000E+00 -0.00000000000E+00 -0.74505805969E-08  0.93827000000E+00  0.93827000000E+00 0. -1.
     999902    2    1    2    0    0 -0.36514057398E-02  0.17429353655E-01  0.16031353945E-01  0.10199692103E+01  0.10196877319E+01 0.  0.
     999903    2    3    3    0    0 -0.10300865519E+00  0.51970852189E-01  0.60596648510E-01  0.13258482708E+00  0.24393237577E-01 0.  0.
         14    1    1    2    0    0  0.36514057398E-02 -0.17429353655E-01 -0.16031353945E-01  0.23960789678E-01  0.00000000000E+00 0.  1.
     999901    1    3    3    0    0  0.99357249453E-01 -0.34541498534E-01 -0.44565294565E-01  0.88738438324E+00  0.88000000000E+00 0. -1.
        -11    1    4    4    0    0 -0.40488602335E-01  0.11365076351E-01  0.31549462780E-01  0.52574914192E-01  0.51100000000E-03 0. -1.
         11    1    4    4    0    0 -0.62520052858E-01  0.40605775838E-01  0.29047185730E-01  0.80009912890E-01  0.51100000000E-03 0.  1.
</event>
<event>
 8    1  0.1111182E+005  0.1043930E+01  0.7957747E-01            NaN
         13   -1    0    0    0    0  0.00000000000E+00  0.00000000000E+00  0.74505805969E-08  0.10566000000E+00  0.10566000000E+00 0.  1.
     999900   -1    0    0    0    0 -0.00000000000E+00 -0.00000000000E+00 -0.74505805969E-08  0.93827000000E+00  0.93827000000E+00 0.  1.
     999902    2    1    2    0    0 -0.24614540483E-02  0.12616905400E-02 -0.23328611704E-01  0.10204379855E+01  0.10201675390E+01 0.  0.
     999903    2    3    3    0    0  0.29966922550E-01 -0.38718937439E-01 -0.12246438176E+00  0.13337657216E+00  0.19864859355E-01 0.  0.
         14    1    1    2    0    0  0.24614540483E-02 -0.12616905400E-02  0.23328611704E-01  0.23492014454E-01  0.00000000000E+00 0.  1.
     999901    1    3    3    0    0 -0.32428376599E-01  0.39980627979E-01  0.99135770053E-01  0.88706141339E+00  0.88000000000E+00 0. -1.
        -11    1    4    4    0    0  0.26028960252E-02 -0.15055453200E-01 -0.51504143490E-01  0.53725037519E-01  0.51100000000E-03 0.  1.
         11    1    4    4    0    0  0.27364026525E-01 -0.23663484239E-01 -0.70960238268E-01  0.79651534637E-01  0.51100000000E-03 0. -1.
</event>
<event>
 8    1  0.1111182E+005  0.1043930E+01  0.7957747E-01            NaN
         13   -1    0    0    0    0  0.00000000000E+00  0.00000000000E+00  0.74505805969E-08  0.10566000000E+00  0.10566000000E+00 0. -1.
     999900   -1    0    0    0    0 -0.00000000000E+00 -0.00000000000E+00 -0.74505805969E-08  0.93827000000E+00  0.93827000000E+00 0.  1.
     999902    2    1    2    0    0  0.16908320357E-01  0.14796348529E-01 -0.81319617234E-02  0.10200353975E+01  0.10197554904E+01 0.  0.
     999903    2    3    3    0    0 -0.91623308897E-01 -0.61639675421E-01 -0.63035227139E-01  0.12838751360E+00  0.17766076374E-01 0.  0.
         14    1    1    2    0    0 -0.16908320357E-01 -0.14796348529E-01  0.81319617234E-02  0.23894602498E-01  0.00000000000E+00 0. -1.
     999901    1    3    3    0    0  0.10853162925E+00  0.76436023950E-01  0.54903265416E-01  0.89164788390E+00  0.88000000000E+00 0. -1.
        -11    1    4    4    0    0 -0.51299846345E-01 -0.44531812675E-01 -0.35552364724E-01  0.76674561189E-01  0.51100000000E-03 0.  1.
         11    1    4    4    0    0 -0.40323462551E-01 -0.17107862747E-01 -0.27482862416E-01  0.51712952415E-01  0.51100000000E-03 0. -1.
</event>
<event>
 8    1  0.1111182E+005  0.1043930E+01  0.7957747E-01            NaN
         13   -1    0    0    0    0  0.00000000000E+00  0.00000000000E+00  0.74505805969E-08  0.10566000000E+00  0.10566000000E+00 0.  1.
     999900   -1    0    0    0    0 -0.00000000000E+00 -0.00000000000E+00 -0.74505805969E-08  0.93827000000E+00  0.93827000000E+00 0.  1.
     999902    2    1    2    0    0 -0.21760877386E-01  0.79289056607E-03  0.94131965122E-02  0.10202071686E+01  0.10199313184E+01 0.  0.
     999903    2    3    3    0    0  0.28427348222E-01 -0.12230813631E+00 -0.25504590382E-01  0.12953777280E+00  0.19030399790E-01 0.  0.
         14    1    1    2    0    0  0.21760877386E-01 -0.79289056607E-03 -0.94131965122E-02  0.23722831379E-01  0.00000000000E+00 0.  1.
     999901    1    3    3    0    0 -0.50188225608E-01  0.12310102688E+00  0.34917786894E-01  0.89066939582E+00  0.88000000000E+00 0. -1.
        -11    1    4    4    0    0  0.28164938982E-01 -0.11112066935E+00 -0.17965358146E-01  0.11603483166E+00  0.51100000000E-03 0.  1.
         11    1    4    4    0    0  0.26240924014E-03 -0.11187466963E-01 -0.75392322357E-02  0.13502941138E-01  0.51100000000E-03 0. -1.
</event>
<event>
 8    1  0.1111182E+005  0.1043930E+01  0.7957747E-01            NaN
         13   -1    0    0    0    0  0.00000000000E+00  0.00000000000E+00  0.74505805969E-08  0.10566000000E+00  0.10566000000E+00 0. -1.
     999900   -1    0    0    0    0 -0.00000000000E+00 -0.00000000000E+00 -0.74505805969E-08  0.93827000000E+00  0.93827000000E+00 0. -1.
     999902    2    1    2    0    0  0.96314085501E-02 -0.20745272594E-01 -0.38000634366E-02  0.10207444259E+01  0.10204810690E+01 0.  0.
     999903    2    3    3    0    0  0.63383625278E-01 -0.73983677744E-02  0.11300635229E+00  0.13130011652E+00  0.19926493476E-01 0.  0.
         14    1    1    2    0    0 -0.96314085501E-02  0.20745272594E-01  0.38000634366E-02  0.23185574130E-01  0.00000000000E+00 0.  1.
     999901    1    3    3    0    0 -0.53752216728E-01 -0.13346904819E-01 -0.11680641573E+00  0.88944430935E+00  0.88000000000E+00 0. -1.
        -11    1    4    4    0    0  0.39014090803E-01  0.12058568465E-02  0.51820706956E-01  0.64878348949E-01  0.51100000000E-03 0. -1.
         11    1    4    4    0    0  0.24369534475E-01 -0.86042246209E-02  0.61185645335E-01  0.66421767575E-01  0.51100000000E-03 0.  1.
</event>
<event>
 8    1  0.1111182E+005  0.1043930E+01  0.7957747E-01            NaN
         13   -1    0    0    0    0  0.00000000000E+00  0.00000000000E+00  0.74505805969E-08  0.10566000000E+00  0.10566000000E+00 0. -1.
     999900   -1    0    0    0    0 -0.00000000000E+00 -0.00000000000E+00 -0.74505805969E-08  0.93827000000E+00  0.93827000000E+00 0. -1.
     999902    2    1    2    0    0 -0.18743216419E-01 -0.49098799751E-02 -0.98342785127E-02  0.10222014907E+01  0.10219705277E+01 0.  0.
     999903    2    3    3    0    0 -0.11504493782E-01 -0.90689008082E-01 -0.95649732625E-01  0.13384640960E+00  0.20227220478E-01 0.  0.
         14    1    1    2    0    0  0.18743216419E-01  0.49098799751E-02  0.98342785127E-02  0.21728509313E-01  0.00000000000E+00 0. -1.
     999901    1    3    3    0    0 -0.72387226375E-02  0.85779128107E-01  0.85815454112E-01  0.88835508108E+00  0.88000000000E+00 0.  1.
        -11    1    4    4    0    0  0.26820682673E-02 -0.36547390480E-01 -0.47633931714E-01  0.60101229710E-01  0.51100000000E-03 0.  1.
         11    1    4    4    0    0 -0.14186562049E-01 -0.54141617602E-01 -0.48015800911E-01  0.73745179893E-01  0.51100000000E-03 0. -1.
</event>
<event>
 8    1  0.1111182E+005  0.1043930E+01  0.7957747E-01            NaN
         13   -1    0    0    0    0  0.00000000000E+00  0.00000000000E+00  0.74505805969E-08  0.10566000000E+00  0.10566000000E+00 0. -1.
     999900   -1    0    0    0    0 -0.00000000000E+00 -0.00000000000E+00 -0.74505805969E-08  0.93827000000E+00  0.93827000000E+00 0. -1.
     999902    2    1    2    0    0  0.20934313698E-01  0.10448135707E-01  0.32260603878E-02  0.10203118609E+01  0.10200384684E+01 0.  0.
     999903    2    3    3    0    0 -0.11103872321E+00 -0.34397485426E-01 -0.49281006371E-01  0.12779575220E+00  0.19757318506E-01 0.  0.
         14    1    1    2    0    0 -0.20934313698E-01 -0.10448135707E-01 -0.32260603878E-02  0.23618139118E-01  0.00000000000E+00 0. -1.
     999901    1    3    3    0    0  0.13197303691E+00  0.44845621133E-01  0.52507066758E-01  0.89251610869E+00  0.88000000000E+00 0. -1.
        -11    1    4    4    0    0 -0.46041369273E-01 -0.15032644617E-01 -0.10129669892E-01  0.49483930946E-01  0.51100000000E-03 0.  1.
         11    1    4    4    0    0 -0.64997353937E-01 -0.19364840808E-01 -0.39151336479E-01  0.78311821250E-01  0.51100000000E-03 0. -1.
</event>
<event>
 8    1  0.1111182E+005  0.1043930E+01  0.7957747E-01            NaN
         13   -1    0    0    0    0  0.00000000000E+00  0.00000000000E+00  0.74505805969E-08  0.10566000000E+00  0.10566000000E+00 0. -1.
     999900   -1    0    0    0    0 -0.00000000000E+00 -0.00000000000E+00 -0.74505805969E-08  0.93827000000E+00  0.93827000000E+00 0. -1.
     999902    2    1    2    0    0  0.80201804603E-02  0.21069863492E-01 -0.60011100191E-02  0.10206002815E+01  0.10203336018E+01 0.  0.
     999903    2    3    3    0    0 -0.68754225367E-01 -0.13342423661E-01 -0.10832546766E+00  0.13068523555E+00  0.20953760329E-01 0.  0.
         14    1    1    2    0    0 -0.80201804603E-02 -0.21069863492E-01  0.60011100191E-02  0.23329718465E-01  0.00000000000E+00 0. -1.
     999901    1    3    3    0    0  0.76774405827E-01  0.34412287154E-01  0.10232435765E+00  0.88991504598E+00  0.88000000000E+00 0.  1.
        -11    1    4    4    0    0 -0.20291621083E-01 -0.12845060251E-01 -0.44176013841E-01  0.50284458622E-01  0.51100000000E-03 0.  1.
         11    1    4    4    0    0 -0.48462604283E-01 -0.49736341093E-03 -0.64149453823E-01  0.80400776931E-01  0.51100000000E-03 0. -1.
</event>
<event>
 8    1  0.1111182E+005  0.1043930E+01  0.7957747E-01            NaN
         13   -1    0    0    0    0  0.00000000000E+00  0.00000000000E+00  0.74505805969E-08  0.10566000000E+00  0.10566000000E+00 0. -1.
     999900   -1    0    0    0    0 -0.00000000000E+00 -0.00000000000E+00 -0.74505805969E-08  0.93827000000E+00  0.93827000000E+00 0.  1.
     999902    2    1    2    0    0 -0.13871278368E-01  0.15056694027E-01  0.12392996834E-01  0.10199987909E+01  0.10197180153E+01 0.  0.
     999903    2    3    3    0    0 -0.12657241125E+00  0.21160892519E-01  0.26929637464E-01  0.13267127498E+00  0.20201563523E-01 0.  0.
         14    1    1    2    0    0  0.13871278368E-01 -0.15056694027E-01 -0.12392996834E-01  0.23931209103E-01  0.00000000000E+00 0.  1.
     999901    1    3    3    0    0  0.11270113288E+00 -0.61041984920E-02 -0.14536640630E-01  0.88732751592E+00  0.88000000000E+00 0. -1.
        -11    1    4    4    0    0 -0.57897555784E-01  0.19663386196E-01  0.10529880630E-01  0.62047685126E-01  0.51100000000E-03 0. -1.
         11    1    4    4    0    0 -0.68674855462E-01  0.14975063226E-02  0.16399756834E-01  0.70623589849E-01  0.51100000000E-03 0.  1.
</event>
<event>
 8    1  0.1111182E+005  0.1043930E+01  0.7957747E-01            NaN
         13   -1    0    0    0    0  0.00000000000E+00  0.00000000000E+00  0.74505805969E-08  0.10566000000E+00  0.10566000000E+00 0.  1.
     999900   -1    0    0    0    0 -0.00000000000E+00 -0.00000000000E+00 -0.74505805969E-08  0.93827000000E+00  0.93827000000E+00 0. -1.
     999902    2    1    2    0    0  0.28947295460E-02 -0.21787190012E-01 -0.91265394943E-02  0.10201317893E+01  0.10198541625E+01 0.  0.
     999903    2    3    3    0    0 -0.14046627649E-02  0.31275033295E-04 -0.13001163060E+00  0.13158931120E+00  0.20266935557E-01 0.  0.
         14    1    1    2    0    0 -0.28947295460E-02  0.21787190012E-01  0.91265394943E-02  0.23798210666E-01  0.00000000000E+00 0.  1.
     999901    1    3    3    0    0  0.42993923110E-02 -0.21818465045E-01  0.12088509110E+00  0.88854247813E+00  0.88000000000E+00 0.  1.
        -11    1    4    4    0    0  0.49660750474E-02 -0.47809707837E-02 -0.17833758649E-01  0.19126516975E-01  0.51100000000E-03 0. -1.
         11    1    4    4    0    0 -0.63707378124E-02  0.48122458170E-02 -0.11217787195E+00  0.11246279423E+00  0.51100000000E-03 0.  1.
</event>
<event>
 8    1  0.1111182E+005  0.1043930E+01  0.7957747E-01            NaN
         13   -1    0    0    0    0  0.00000000000E+00  0.00000000000E+00  0.74505805969E-08  0.10566000000E+00  0.10566000000E+00 0.  1.
     999900   -1    0    0    0    0 -0.00000000000E+00 -0.00000000000E+00 -0.74505805969E-08  0.93827000000E+00  0.93827000000E+00 0. -1.
     999902    2    1    2    0    0  0.91274832674E-02  0.21405882175E-01 -0.41154890587E-02  0.10202982419E+01  0.10200245303E+01 0.  0.
     999903    2    3    3    0    0  0.54864788841E-01  0.83719485151E-01 -0.85545065541E-01  0.13316484594E+00  0.19895243328E-01 0.  0.
         14    1    1    2    0    0 -0.91274832674E-02 -0.21405882175E-01  0.41154890587E-02  0.23631758137E-01  0.00000000000E+00 0.  1.
     999901    1    3    3    0    0 -0.45737305574E-01 -0.62313602976E-01  0.81429576482E-01  0.88713339592E+00  0.88000000000E+00 0. -1.
        -11    1    4    4    0    0  0.50966546990E-01  0.68988275276E-01 -0.65205131086E-01  0.10774479699E+00  0.51100000000E-03 0. -1.
         11    1    4    4    0    0  0.38982418510E-02  0.14731209875E-01 -0.20339934454E-01  0.25420048948E-01  0.51100000000E-03 0.  1.
</event>
<event>
 8    1  0.1111182E+005  0.1043930E+01  0.7957747E-01            NaN
         13   -1    0    0    0    0  0.00000000000E+00  0.00000000000E+00  0.74505805969E-08  0.10566000000E+00  0.10566000000E+00 0. -1.
     999900   -1    0    0    0    0 -0.00000000000E+00 -0.00000000000E+00 -0.74505805969E-08  0.93827000000E+00  0.93827000000E+00 0.  1.
     999902    2    1    2    0    0 -0.50871628417E-02  0.22097317654E-01 -0.10009973400E-01  0.10191435069E+01  0.10188420473E+01 0.  0.
     999903    2    3    3    0    0  0.97901649031E-01 -0.79013019195E-01 -0.58408523139E-02  0.12737707045E+00  0.19052885226E-01 0.  0.
         14    1    1    2    0    0  0.50871628417E-02 -0.22097317654E-01  0.10009973400E-01  0.24786493111E-01  0.00000000000E+00 0. -1.
     999901    1    3    3    0    0 -0.10298881187E+00  0.10111033685E+00 -0.41691210861E-02  0.89176643644E+00  0.88000000000E+00 0. -1.
        -11    1    4    4    0    0  0.47332362198E-01 -0.32370753924E-01  0.56659661530E-02  0.57624495783E-01  0.51100000000E-03 0. -1.
         11    1    4    4    0    0  0.50569286833E-01 -0.46642265271E-01 -0.11506818467E-01  0.69752574667E-01  0.51100000000E-03 0.  1.
</event>
<event>
 8    1  0.1111182E+005  0.1043930E+01  0.7957747E-01            NaN
         13   -1    0    0    0    0  0.00000000000E+00  0.00000000000E+00  0.74505805969E-08  0.10566000000E+00  0.10566000000E+00 0. -1.
     999900   -1    0    0    0    0 -0.00000000000E+00 -0.00000000000E+00 -0.74505805969E-08  0.93827000000E+00  0.93827000000E+00 0. -1.
     999902    2    1    2    0    0 -0.19908133985E-01  0.10542526449E-01 -0.83948817630E-02  0.10198893531E+01  0.10196059729E+01 0.  0.
     999903    2    3    3    0    0  0.11129156795E+00 -0.50134064112E-01  0.29470179701E-01  0.12729270664E+00  0.20873528434E-01 0.  0.
         14    1    1    2    0    0  0.19908133985E-01 -0.10542526449E-01  0.83948817630E-02  0.24040646882E-01  0.00000000000E+00 0. -1.
     999901    1    3    3    0    0 -0.13119970194E+00  0.60676590561E-01 -0.37865061464E-01  0.89259664648E+00  0.88000000000E+00 0. -1.
        -11    1    4    4    0    0  0.64506909444E-01 -0.17792592208E-01  0.17526494313E-01  0.69174827989E-01  0.51100000000E-03 0. -1.
         11    1    4    4    0    0  0.46784658510E-01 -0.32341471904E-01  0.11943685388E-01  0.58117878647E-01  0.51100000000E-03 0.  1.
</event>
<event>
 8    1  0.1111182E+005  0.1043930E+01  0.7957747E-01            NaN
         13   -1    0    0    0    0  0.00000000000E+00  0.00000000000E+00  0.74505805969E-08  0.10566000000E+00  0.10566000000E+00 0.  1.
     999900   -1    0    0    0    0 -0.00000000000E+00 -0.00000000000E+00 -0.74505805969E-08  0.93827000000E+00  0.93827000000E+00 0.  1.
     999902    2    1    2    0    0  0.17793376562E-01  0.12742648593E-01 -0.10778100370E-01  0.10195343694E+01  0.10192424558E+01 0.  0.
     999903    2    3    3    0    0  0.84382861401E-01 -0.66199077164E-01  0.70195951876E-01  0.12980252631E+00  0.20455783045E-01 0.  0.
         14    1    1    2    0    0 -0.17793376562E-01 -0.12742648593E-01  0.10778100370E-01  0.24395630556E-01  0.00000000000E+00 0.  1.
     999901    1    3    3    0    0 -0.66589484839E-01  0.78941725757E-01 -0.80974052246E-01  0.88973184314E+00  0.88000000000E+00 0.  1.
        -11    1    4    4    0    0  0.83498370277E-03 -0.56904980047E-02  0.18755299464E-02  0.60710541840E-02  0.51100000000E-03 0.  1.
         11    1    4    4    0    0  0.83547877698E-01 -0.60508579159E-01  0.68320421929E-01  0.12373147212E+00  0.51100000000E-03 0. -1.
</event>
<event>
 7    1  0.1111182E+005  0.1043930E+01  0.7957747E-01            NaN
         13   -1    0    0    0    0  0.00000000000E+00  0.00000000000E+00  0.74505805969E-08  0.10566000000E+00  0.10566000000E+00 0. -1.
     999900   -1    0    0    0    0 -0.00000000000E+00 -0.00000000000E+00 -0.74505805969E-08  0.93827000000E+00  0.93827000000E+00 0. -1.
     999903    2    1    2    0    0 -0.71630527107E-01  0.24851585006E-01  0.85894864692E-01  0.11633151320E+00  0.20163320470E-01 0.  0.
         14    1    1    2    0    0 -0.12901421182E-01  0.19201931815E-01 -0.33748618018E-01  0.40916134618E-01  0.00000000000E+00 0.  1.
     999901    1    1    2    0    0  0.84531948290E-01 -0.44053516821E-01 -0.52146246674E-01  0.88668235218E+00  0.88000000000E+00 0. -1.
        -11    1    3    3    0    0 -0.39435500934E-01  0.19269552439E-01  0.61468352771E-01  0.75532071986E-01  0.51100000000E-03 0.  1.
         11    1    3    3    0    0 -0.32195026174E-01  0.55820325667E-02  0.24426511921E-01  0.40799441216E-01  0.51100000000E-03 0. -1.
</event>
<event>
 8    1  0.1111182E+005  0.1043930E+01  0.7957747E-01            NaN
         13   -1    0    0    0    0  0.00000000000E+00  0.00000000000E+00  0.74505805969E-08  0.10566000000E+00  0.10566000000E+00 0. -1.
     999900   -1    0    0    0    0 -0.00000000000E+00 -0.00000000000E+00 -0.74505805969E-08  0.93827000000E+00  0.93827000000E+00 0.  1.
     999902    2    1    2    0    0  0.15068899469E-01 -0.19055252499E-01 -0.50184497936E-02  0.10191235650E+01  0.10188216142E+01 0.  0.
     999903    2    3    3    0    0 -0.12471006771E+00  0.14437206265E-01 -0.11908176242E-01  0.12743563036E+00  0.18357595462E-01 0.  0.
         14    1    1    2    0    0 -0.15068899469E-01  0.19055252499E-01  0.50184497936E-02  0.24806434998E-01  0.00000000000E+00 0.  1.
     999901    1    3    3    0    0  0.13977896718E+00 -0.33492458763E-01  0.68897264481E-02  0.89168793464E+00  0.88000000000E+00 0.  1.
        -11    1    4    4    0    0 -0.57060655757E-01  0.14432236744E-01 -0.10373601794E-01  0.59766885715E-01  0.51100000000E-03 0. -1.
         11    1    4    4    0    0 -0.67649411949E-01  0.49695210152E-05 -0.15345744473E-02  0.67668744643E-01  0.51100000000E-03 0.  1.
</event>
<event>
 7    1  0.1111182E+005  0.1043930E+01  0.7957747E-01            NaN
         13   -1    0    0    0    0  0.00000000000E+00  0.00000000000E+00  0.74505805969E-08  0.10566000000E+00  0.10566000000E+00 0. -1.
     999900   -1    0    0    0    0 -0.00000000000E+00 -0.00000000000E+00 -0.74505805969E-08  0.93827000000E+00  0.93827000000E+00 0. -1.
     999902    2    1    2    0    0  0.19290251219E-01  0.13412954556E-01  0.11597351875E-02  0.10204062646E+01  0.10201350786E+01 0.  0.
         14    1    1    2    0    0 -0.19290251219E-01 -0.13412954556E-01 -0.11597351875E-02  0.23523735411E-01  0.00000000000E+00 0.  1.
     999901    1    3    3    0    0  0.10528555125E+00 -0.72110200635E-01 -0.22090151954E-01  0.88947900658E+00  0.88000000000E+00 0. -1.
        -11    1    3    3    0    0 -0.35264790905E-01  0.65303465032E-01  0.14340167888E-01  0.75591332564E-01  0.51100000000E-03 0. -1.
         11    1    3    3    0    0 -0.50730509126E-01  0.20219690159E-01  0.89097192533E-02  0.55335925442E-01  0.51100000000E-03 0.  1.
</event>
<event>
 8    1  0.1111182E+005  0.1043930E+01  0.7957747E-01            NaN
         13   -1    0    0    0    0  0.00000000000E+00  0.00000000000E+00  0.74505805969E-08  0.10566000000E+00  0.10566000000E+00 0.  1.
     999900   -1    0    0    0    0 -0.00000000000E+00 -0.00000000000E+00 -0.74505805969E-08  0.93827000000E+00  0.93827000000E+00 0. -1.
     999902    2    1    2    0    0 -0.10083000144E-02 -0.86531360021E-02 -0.22056052887E-01  0.10202158080E+01  0.10199401610E+01 0.  0.
     999903    2    3    3    0    0  0.93463849993E-01 -0.25728789085E-01  0.82655709478E-01  0.12882301121E+00  0.19129559969E-01 0.  0.
         14    1    1    2    0    0  0.10083000144E-02  0.86531360021E-02  0.22056052887E-01  0.23714191965E-01  0.00000000000E+00 0.  1.
     999901    1    3    3    0    0 -0.94472150007E-01  0.17075653083E-01 -0.10471176236E+00  0.89139279683E+00  0.88000000000E+00 0. -1.
        -11    1    4    4    0    0  0.21159224956E-01  0.16187523206E-02  0.21910031642E-01  0.30506454519E-01  0.51100000000E-03 0.  1.
         11    1    4    4    0    0  0.72304625037E-01 -0.27347541405E-01  0.60745677836E-01  0.98316556690E-01  0.51100000000E-03 0. -1.
</event>
<event>
 8    1  0.1111182E+005  0.1043930E+01  0.7957747E-01            NaN
         13   -1    0    0    0    0  0.00000000000E+00  0.00000000000E+00  0.74505805969E-08  0.10566000000E+00  0.10566000000E+00 0.  1.
     999900   -1    0    0    0    0 -0.00000000000E+00 -0.00000000000E+00 -0.74505805969E-08  0.93827000000E+00  0.93827000000E+00 0.  1.
     999902    2    1    2    0    0  0.71106180062E-02  0.20818239520E-01 -0.70318170149E-02  0.10208344066E+01  0.10205731131E+01 0.  0.
     999903    2    3    3    0    0  0.10126173283E+00 -0.58506382793E-02 -0.82185779767E-01  0.13222663057E+00  0.21005021567E-01 0.  0.
         14    1    1    2    0    0 -0.71106180062E-02 -0.20818239520E-01  0.70318170149E-02  0.23095593426E-01  0.00000000000E+00 0.  1.
     999901    1    3    3    0    0 -0.94151114823E-01  0.26668877800E-01  0.75153962752E-01  0.88860777601E+00  0.88000000000E+00 0. -1.
        -11    1    4    4    0    0  0.67999802617E-01 -0.13782312890E-01 -0.55076582443E-01  0.88586773049E-01  0.51100000000E-03 0.  1.
         11    1    4    4    0    0  0.33261930213E-01  0.79316746108E-02 -0.27109197323E-01  0.43639857517E-01  0.51100000000E-03 0. -1.
</event>
<event>
 8    1  0.1111182E+005  0.1043930E+01  0.7957747E-01            NaN
         13   -1    0    0    0    0  0.00000000000E+00  0.00000000000E+00  0.74505805969E-08  0.10566000000E+00  0.10566000000E+00 0. -1.
     999900   -1    0    0    0    0 -0.00000000000E+00 -0.00000000000E+00 -0.74505805969E-08  0.93827000000E+00  0.93827000000E+00 0. -1.
     999902    2    1    2    0    0  0.91190804769E-02 -0.15916320028E-01 -0.13479643667E-01  0.10211662642E+01  0.10209125093E+01 0.  0.
     999903    2    3    3    0    0  0.74213261555E-01 -0.10922146713E+00  0.63753392922E-02  0.13362059036E+00  0.19413401174E-01 0.  0.
         14    1    1    2    0    0 -0.91190804769E-02  0.15916320028E-01  0.13479643667E-01  0.22763735752E-01  0.00000000000E+00 0. -1.
     999901    1    3    3    0    0 -0.65094181078E-01  0.93305147101E-01 -0.19854982960E-01  0.88754567389E+00  0.88000000000E+00 0. -1.
        -11    1    4    4    0    0  0.66179826313E-01 -0.10043827747E+00  0.11122671798E-01  0.12079566193E+00  0.51100000000E-03 0.  1.
         11    1    4    4    0    0  0.80334352420E-02 -0.87831896558E-02 -0.47473325061E-02  0.12824928430E-01  0.51100000000E-03 0. -1.
</event>
<event>
 8    1  0.1123511E+005  0.1043930E+01  0.7957747E-01            NaN
         13   -1    0    0    0    0  0.00000000000E+00  0.00000000000E+00  0.74505805969E-08  0.10566000000E+00  0.10566000000E+00 0.  1.
     999900   -1    0    0    0    0 -0.00000000000E+00 -0.00000000000E+00 -0.74505805969E-08  0.93827000000E+00  0.93827000000E+00 0.  1.
     999902    2    1    2    0    0 -0.31027702221E-02  0.12819712210E-01 -0.19825092248E-01  0.10201181020E+01  0.10198401519E+01 0.  0.
     999903    2    3    3    0    0 -0.35369713217E-01  0.10284089815E+00 -0.74929917394E-01  0.13322379528E+00  0.17516282756E-01 0.  0.
         14    1    1    2    0    0  0.31027702221E-02 -0.12819712210E-01  0.19825092248E-01  0.23811898010E-01  0.00000000000E+00 0.  1.
     999901    1    3    3    0    0  0.32266942995E-01 -0.90021185939E-01  0.55104825146E-01  0.88689430671E+00  0.88000000000E+00 0. -1.
        -11    1    4    4    0    0 -0.29897955030E-01  0.60862347039E-01 -0.46847342639E-01  0.82419946829E-01  0.51100000000E-03 0.  1.
         11    1    4    4    0    0 -0.54717581870E-02  0.41978551111E-01 -0.28082574756E-01  0.50803848446E-01  0.51100000000E-03 0. -1.
</event>
<event>
 8    1  0.1111182E+005  0.1043930E+01  0.7957747E-01            NaN
         13   -1    0    0    0    0  0.00000000000E+00  0.00000000000E+00  0.74505805969E-08  0.10566000000E+00  0.10566000000E+00 0.  1.
     999900   -1    0    0    0    0 -0.00000000000E+00 -0.00000000000E+00 -0.74505805969E-08  0.93827000000E+00  0.93827000000E+00 0. -1.
     999902    2    1    2    0    0  0.20657400200E-01  0.27946746243E-02 -0.97767806373E-02  0.10209055819E+01  0.10206459148E+01 0.  0.
     999903    2    3    3    0    0  0.38087968621E-01 -0.17138290828E-01 -0.12450979407E+00  0.13306279615E+00  0.21415053909E-01 0.  0.
         14    1    1    2    0    0 -0.20657400200E-01 -0.27946746243E-02  0.97767806373E-02  0.23024418102E-01  0.00000000000E+00 0.  1.
     999901    1    3    3    0    0 -0.17430568420E-01  0.19932965452E-01  0.11473301344E+00  0.88784278574E+00  0.88000000000E+00 0.  1.
        -11    1    4    4    0    0 -0.17731631596E-02  0.10909866365E-02 -0.19426912590E-02  0.28930139577E-02  0.51100000000E-03 0. -1.
         11    1    4    4    0    0  0.39861131780E-01 -0.18229277464E-01 -0.12256710281E+00  0.13016978220E+00  0.51100000000E-03 0.  1.
</event>
<event>
 8    1  0.1111182E+005  0.1043930E+01  0.7957747E-01            NaN
         13   -1    0    0    0    0  0.00000000000E+00  0.00000000000E+00  0.74505805969E-08  0.10566000000E+00  0.10566000000E+00 0.  1.
     999900   -1    0    0    0    0 -0.00000000000E+00 -0.00000000000E+00 -0.74505805969E-08  0.93827000000E+00  0.93827000000E+00 0.  1.
     999902    2    1    2    0    0 -0.17793402999E-01  0.69678290735E-02 -0.15838885543E-01  0.10191101264E+01  0.10188078443E+01 0.  0.
     999903    2    3    3    0    0 -0.11091541504E+00  0.18691474965E-01 -0.67622543163E-01  0.13260536033E+00  0.18967675503E-01 0.  0.
         14    1    1    2    0    0  0.17793402999E-01 -0.69678290735E-02  0.15838885543E-01  0.24819873640E-01  0.00000000000E+00 0.  1.
     999901    1    3    3    0    0  0.93122012042E-01 -0.11723645891E-01  0.51783657619E-01  0.88650476603E+00  0.88000000000E+00 0. -1.
        -11    1    4    4    0    0 -0.37368613971E-01  0.12261748617E-01 -0.15717318594E-01  0.42356333812E-01  0.51100000000E-03 0.  1.
         11    1    4    4    0    0 -0.73546801070E-01  0.64297263482E-02 -0.51905224569E-01  0.90249026516E-01  0.51100000000E-03 0. -1.
</event>
<event>
 8    1  0.1111182E+005  0.1043930E+01  0.7957747E-01            NaN
         13   -1    0    0    0    0  0.00000000000E+00  0.00000000000E+00  0.74505805969E-08  0.10566000000E+00  0.10566000000E+00 0. -1.
     999900   -1    0    0    0    0 -0.00000000000E+00 -0.00000000000E+00 -0.74505805969E-08  0.93827000000E+00  0.93827000000E+00 0. -1.
     999902    2    1    2    0    0  0.51484982928E-02 -0.22326035975E-01  0.18470564068E-02  0.10209436881E+01  0.10206848895E+01 0.  0.
     999903    2    3    3    0    0  0.85351684878E-01  0.93901611304E-01 -0.14566976244E-01  0.12953422125E+00  0.21552145178E-01 0.  0.
         14    1    1    2    0    0 -0.51484982928E-02  0.22326035975E-01 -0.18470564068E-02  0.22986311892E-01  0.00000000000E+00 0. -1.
     999901    1    3    3    0    0 -0.80203186585E-01 -0.11622764728E+00  0.16414032651E-01  0.89140946685E+00  0.88000000000E+00 0.  1.
        -11    1    4    4    0    0  0.77183290980E-01  0.74326739131E-01 -0.86232592064E-02  0.10750044780E+00  0.51100000000E-03 0. -1.
         11    1    4    4    0    0  0.81683938974E-02  0.19574872173E-01 -0.59437170374E-02  0.22033773455E-01  0.51100000000E-03 0.  1.
</event>
<event>
 8    1  0.1111182E+005  0.1043930E+01  0.7957747E-01            NaN
         13   -1    0    0    0    0  0.00000000000E+00  0.00000000000E+00  0.74505805969E-08  0.10566000000E+00  0.10566000000E+00 0. -1.
     999900   -1    0    0    0    0 -0.00000000000E+00 -0.00000000000E+00 -0.74505805969E-08  0.93827000000E+00  0.93827000000E+00 0.  1.
     999902    2    1    2    0    0  0.84585014715E-03 -0.21483231404E-02  0.23203563069E-01  0.10206118505E+01  0.10203454383E+01 0.  0.
     999903    2    3    3    0    0 -0.76897398028E-01  0.10359840200E+00  0.31627829388E-02  0.13065229226E+00  0.20351401841E-01 0.  0.
         14    1    1    2    0    0 -0.84585014715E-03  0.21483231404E-02 -0.23203563069E-01  0.23318149452E-01  0.00000000000E+00 0.  1.
     999901    1    3    3    0    0  0.77743248176E-01 -0.10574672514E+00  0.20040780130E-01  0.88995955829E+00  0.88000000000E+00 0.  1.
        -11    1    4    4    0    0 -0.81567939832E-02  0.23556049919E-01 -0.20205616898E-02  0.25015286654E-01  0.51100000000E-03 0. -1.
         11    1    4    4    0    0 -0.68740604045E-01  0.80042352082E-01  0.51833446286E-02  0.10563700561E+00  0.51100000000E-03 0.  1.
</event>
<event>
 8    1  0.1111182E+005  0.1043930E+01  0.7957747E-01            NaN
         13   -1    0    0    0    0  0.00000000000E+00  0.00000000000E+00  0.74505805969E-08  0.10566000000E+00  0.10566000000E+00 0.  1.
     999900   -1    0    0    0    0 -0.00000000000E+00 -0.00000000000E+00 -0.74505805969E-08  0.93827000000E+00  0.93827000000E+00 0.  1.
     999902    2    1    2    0    0  0.97800548192E-02  0.15385117372E-01  0.15927343889E-01  0.10197219106E+01  0.10194345214E+01 0.  0.
     999903    2    3    3    0    0  0.83725555169E-02  0.12585204405E+00  0.35424717037E-01  0.13260012049E+00  0.20470581286E-01 0.  0.
         14    1    1    2    0    0 -0.97800548192E-02 -0.15385117372E-01 -0.15927343889E-01  0.24208089395E-01  0.00000000000E+00 0. -1.
     999901    1    3    3    0    0  0.14074993022E-02 -0.11046692668E+00 -0.19497373149E-01  0.88712179012E+00  0.88000000000E+00 0.  1.
        -11    1    4    4    0    0  0.86044469297E-02  0.72317657865E-01  0.10634671184E-01  0.73601885154E-01  0.51100000000E-03 0.  1.
         11    1    4    4    0    0 -0.23189141272E-03  0.53534386185E-01  0.24790045853E-01  0.58998235331E-01  0.51100000000E-03 0. -1.
</event>
<event>
 8    1  0.1111182E+005  0.1043930E+01  0.7957747E-01            NaN
         13   -1    0    0    0    0  0.00000000000E+00  0.00000000000E+00  0.74505805969E-08  0.10566000000E+00  0.10566000000E+00 0. -1.
     999900   -1    0    0    0    0 -0.00000000000E+00 -0.00000000000E+00 -0.74505805969E-08  0.93827000000E+00  0.93827000000E+00 0. -1.
     999902    2    1    2    0    0  0.58063887097E-02 -0.30259530585E-01 -0.14619086640E-01  0.10098261727E+01  0.10092501316E+01 0.  0.
     999903    2    3    3    0    0 -0.38153347166E-01 -0.27800739209E-01  0.10843315828E+00  0.12017435374E+00  0.21344003425E-01 0.  0.
         14    1    1    2    0    0 -0.58063887097E-02  0.30259530585E-01  0.14619086640E-01  0.34103827282E-01  0.00000000000E+00 0. -1.
     999901    1    3    3    0    0  0.43959735875E-01 -0.24587913764E-02 -0.12305224492E+00  0.88965181898E+00  0.88000000000E+00 0. -1.
        -11    1    4    4    0    0 -0.26955007506E-01 -0.86801980678E-02  0.47108167508E-01  0.54966888534E-01  0.51100000000E-03 0.  1.
         11    1    4    4    0    0 -0.11198339659E-01 -0.19120541141E-01  0.61324990770E-01  0.65207465206E-01  0.51100000000E-03 0. -1.
</event>
<event>
 8    1  0.1111182E+005  0.1043930E+01  0.7957747E-01            NaN
         13   -1    0    0    0    0  0.00000000000E+00  0.00000000000E+00  0.74505805969E-08  0.10566000000E+00  0.10566000000E+00 0. -1.
     999900   -1    0    0    0    0 -0.00000000000E+00 -0.00000000000E+00 -0.74505805969E-08  0.93827000000E+00  0.93827000000E+00 0.  1.
     999902    2    1    2    0    0  0.91554209854E-02  0.16131248415E-01  0.14685013756E-01  0.10202722626E+01  0.10199979418E+01 0.  0.
     999903    2    3    3    0    0  0.38668661272E-01 -0.17092216248E-01 -0.12004377599E+00  0.12891000364E+00  0.20490770179E-01 0.  0.
         14    1    1    2    0    0 -0.91554209854E-02 -0.16131248415E-01 -0.14685013756E-01  0.23657737378E-01  0.00000000000E+00 0.  1.
     999901    1    3    3    0    0 -0.29513240287E-01  0.33223464663E-01  0.13472878975E+00  0.89136225899E+00  0.88000000000E+00 0.  1.
        -11    1    4    4    0    0  0.21865364861E-01  0.99521293552E-03 -0.64793500548E-01  0.68392568774E-01  0.51100000000E-03 0.  1.
         11    1    4    4    0    0  0.16803296411E-01 -0.18087429184E-01 -0.55250275444E-01  0.60517434863E-01  0.51100000000E-03 0. -1.
</event>
<event>
 8    1  0.1111182E+005  0.1043930E+01  0.7957747E-01            NaN
         13   -1    0    0    0    0  0.00000000000E+00  0.00000000000E+00  0.74505805969E-08  0.10566000000E+00  0.10566000000E+00 0. -1.
     999900   -1    0    0    0    0 -0.00000000000E+00 -0.00000000000E+00 -0.74505805969E-08  0.93827000000E+00  0.93827000000E+00 0. -1.
     999902    2    1    2    0    0 -0.20917308182E-01  0.84396152257E-02 -0.63951336195E-02  0.10204852006E+01  0.10202158526E+01 0.  0.
     999903    2    3    3    0    0 -0.75926801378E-01 -0.56530551130E-01  0.88716332364E-01  0.13127580013E+00  0.20054069224E-01 0.  0.
         14    1    1    2    0    0  0.20917308182E-01 -0.84396152257E-02  0.63951336195E-02  0.23444799439E-01  0.00000000000E+00 0.  1.
     999901    1    3    3    0    0  0.55009493195E-01  0.64970166356E-01 -0.95111465983E-01  0.88920940043E+00  0.88000000000E+00 0. -1.
        -11    1    4    4    0    0 -0.44473949126E-01 -0.43351508359E-01  0.50458094278E-01  0.80022283315E-01  0.51100000000E-03 0. -1.
         11    1    4    4    0    0 -0.31452852252E-01 -0.13179042770E-01  0.38258238086E-01  0.51253516812E-01  0.51100000000E-03 0.  1.
</event>
<event>
 8    1  0.1111182E+005  0.1043930E+01  0.7957747E-01            NaN
         13   -1    0    0    0    0  0.00000000000E+00  0.00000000000E+00  0.74505805969E-08  0.10566000000E+00  0.10566000000E+00 0. -1.
     999900   -1    0    0    0    0 -0.00000000000E+00 -0.00000000000E+00 -0.74505805969E-08  0.93827000000E+00  0.93827000000E+00 0.  1.
     999902    2    1    2    0    0 -0.20962126015E-01  0.83097332693E-02  0.69521428730E-02  0.10203335027E+01  0.10200606169E+01 0.  0.
     999903    2    3    3    0    0  0.37024638878E-01  0.57725745826E-01 -0.10822012819E+00  0.12956470037E+00  0.19295849827E-01 0.  0.
         14    1    1    2    0    0  0.20962126015E-01 -0.83097332693E-02 -0.69521428730E-02  0.23596497295E-01  0.00000000000E+00 0.  1.
     999901    1    3    3    0    0 -0.57986764893E-01 -0.49416012557E-01  0.11517227106E+00  0.89076880234E+00  0.88000000000E+00 0. -1.
        -11    1    4    4    0    0  0.33420264366E-01  0.44352485746E-01 -0.96825769183E-01  0.11162234436E+00  0.51100000000E-03 0.  1.
         11    1    4    4    0    0  0.36043745118E-02  0.13373260080E-01 -0.11394359005E-01  0.17942356003E-01  0.51100000000E-03 0. -1.
</event>
<event>
 8    1  0.1111182E+005  0.1043930E+01  0.7957747E-01            NaN
         13   -1    0    0    0    0  0.00000000000E+00  0.00000000000E+00  0.74505805969E-08  0.10566000000E+00  0.10566000000E+00 0. -1.
     999900   -1    0    0    0    0 -0.00000000000E+00 -0.00000000000E+00 -0.74505805969E-08  0.93827000000E+00  0.93827000000E+00 0. -1.
     999902    2    1    2    0    0 -0.31565844812E-03  0.23758925848E-01 -0.29000696942E-02  0.10199926526E+01  0.10197117312E+01 0.  0.
     999903    2    3    3    0    0  0.90646076582E-01 -0.80875825441E-01  0.36006633369E-01  0.12828855369E+00  0.20096393229E-01 0.  0.
         14    1    1    2    0    0  0.31565844812E-03 -0.23758925848E-01  0.29000696942E-02  0.23937347429E-01  0.00000000000E+00 0. -1.
     999901    1    3    3    0    0 -0.90961735030E-01  0.10463475129E+00 -0.38906703064E-01  0.89170409888E+00  0.88000000000E+00 0. -1.
        -11    1    4    4    0    0  0.95398871701E-02 -0.27219668494E-02  0.64384770531E-02  0.11837806322E-01  0.51100000000E-03 0.  1.
         11    1    4    4    0    0  0.81106189412E-01 -0.78153858592E-01  0.29568156316E-01  0.11645074737E+00  0.51100000000E-03 0. -1.
</event>
<event>
 8    1  0.1111182E+005  0.1043930E+01  0.7957747E-01            NaN
         13   -1    0    0    0    0  0.00000000000E+00  0.00000000000E+00  0.74505805969E-08  0.10566000000E+00  0.10566000000E+00 0. -1.
     999900   -1    0    0    0    0 -0.00000000000E+00 -0.00000000000E+00 -0.74505805969E-08  0.93827000000E+00  0.93827000000E+00 0. -1.
     999902    2    1    2    0    0 -0.15512164140E-01  0.10180085353E-01  0.11891096968E-01  0.10218923150E+01  0.10216546598E+01 0.  0.
     999903    2    3    3    0    0  0.43937061805E-01  0.68849637136E-01  0.10340710594E+00  0.13321267266E+00  0.19540948365E-01 0.  0.
         14    1    1    2    0    0  0.15512164140E-01 -0.10180085353E-01 -0.11891096968E-01  0.22037685024E-01  0.00000000000E+00 0.  1.
     999901    1    3    3    0    0 -0.59449225945E-01 -0.58669551782E-01 -0.91516008977E-01  0.88867964232E+00  0.88000000000E+00 0. -1.
        -11    1    4    4    0    0  0.11777626043E-01  0.22784294852E-01  0.19457896620E-01  0.32197941378E-01  0.51100000000E-03 0. -1.
         11    1    4    4    0    0  0.32159435762E-01  0.46065342283E-01  0.83949209325E-01  0.10101473128E+00  0.51100000000E-03 0.  1.
</event>
<event>
 8    1  0.1111182E+005  0.1043930E+01  0.7957747E-01            NaN
         13   -1    0    0    0    0  0.00000000000E+00  0.00000000000E+00  0.74505805969E-08  0.10566000000E+00  0.10566000000E+00 0.  1.
     999900   -1    0    0    0    0 -0.00000000000E+00 -0.00000000000E+00 -0.74505805969E-08  0.93827000000E+00  0.93827000000E+00 0. -1.
     999902    2    1    2    0    0  0.17331985492E-01  0.18442306232E-01 -0.30047730976E-02  0.10184438265E+01  0.10181248856E+01 0.  0.
     999903    2    3    3    0    0  0.80896685046E-01 -0.26141059956E-01 -0.95889133396E-01  0.13015578086E+00  0.22763407493E-01 0.  0.
         14    1    1    2    0    0 -0.17331985492E-01 -0.18442306232E-01  0.30047730976E-02  0.25486173538E-01  0.00000000000E+00 0. -1.
     999901    1    3    3    0    0 -0.63564699554E-01  0.44583366188E-01  0.92884360299E-01  0.88828804560E+00  0.88000000000E+00 0. -1.
        -11    1    4    4    0    0  0.35651521877E-01 -0.77068122807E-02 -0.57162423342E-01  0.67810247979E-01  0.51100000000E-03 0.  1.
         11    1    4    4    0    0  0.45245163170E-01 -0.18434247675E-01 -0.38726710055E-01  0.62345532881E-01  0.51100000000E-03 0. -1.
</event>
<event>
 8    1  0.1111182E+005  0.1043930E+01  0.7957747E-01            NaN
         13   -1    0    0    0    0  0.00000000000E+00  0.00000000000E+00  0.74505805969E-08  0.10566000000E+00  0.10566000000E+00 0. -1.
     999900   -1    0    0    0    0 -0.00000000000E+00 -0.00000000000E+00 -0.74505805969E-08  0.93827000000E+00  0.93827000000E+00 0.  1.
     999902    2    1    2    0    0 -0.10080059665E-01 -0.20962928320E-01 -0.95131856823E-02  0.10187992883E+01  0.10184892917E+01 0.  0.
     999903    2    3    3    0    0  0.75866495763E-01 -0.23457034491E-01  0.98482501004E-01  0.12803776060E+00  0.19720737565E-01 0.  0.
         14    1    1    2    0    0  0.10080059665E-01  0.20962928320E-01  0.95131856823E-02  0.25130711658E-01  0.00000000000E+00 0.  1.
     999901    1    3    3    0    0 -0.85946555429E-01  0.24941061716E-02 -0.10799568669E+00  0.89076152774E+00  0.88000000000E+00 0.  1.
        -11    1    4    4    0    0  0.50781693084E-01 -0.12582376064E-01  0.49968832250E-01  0.72348060494E-01  0.51100000000E-03 0.  1.
         11    1    4    4    0    0  0.25084802679E-01 -0.10874658427E-01  0.48513668754E-01  0.55689700110E-01  0.51100000000E-03 0. -1.
</event>
<event>
 8    1  0.1111182E+005  0.1043930E+01  0.7957747E-01            NaN
         13   -1    0    0    0    0  0.00000000000E+00  0.00000000000E+00  0.74505805969E-08  0.10566000000E+00  0.10566000000E+00 0.  1.
     999900   -1    0    0    0    0 -0.00000000000E+00 -0.00000000000E+00 -0.74505805969E-08  0.93827000000E+00  0.93827000000E+00 0.  1.
     999902    2    1    2    0    0  0.12034508514E-01  0.19614140082E-01 -0.69283040266E-02  0.10198978282E+01  0.10196146501E+01 0.  0.
     999903    2    3    3    0    0 -0.76523992219E-02  0.12888198409E+00  0.22097861623E-01  0.13244667212E+00  0.19613271801E-01 0.  0.
         14    1    1    2    0    0 -0.12034508514E-01 -0.19614140082E-01  0.69283040266E-02  0.24032171833E-01  0.00000000000E+00 0.  1.
     999901    1    3    3    0    0  0.19686907736E-01 -0.10926784401E+00 -0.29026165649E-01  0.88745115604E+00  0.88000000000E+00 0. -1.
        -11    1    4    4    0    0  0.23888763729E-02  0.23496275177E-01  0.10821388520E-01  0.25983557262E-01  0.51100000000E-03 0.  1.
         11    1    4    4    0    0 -0.10041275595E-01  0.10538570892E+00  0.11276473103E-01  0.10646311486E+00  0.51100000000E-03 0. -1.
</event>
<event>
 8    1  0.1111182E+005  0.1043930E+01  0.7957747E-01            NaN
         13   -1    0    0    0    0  0.00000000000E+00  0.00000000000E+00  0.74505805969E-08  0.10566000000E+00  0.10566000000E+00 0.  1.
     999900   -1    0    0    0    0 -0.00000000000E+00 -0.00000000000E+00 -0.74505805969E-08  0.93827000000E+00  0.93827000000E+00 0. -1.
     999902    2    1    2    0    0 -0.21812388900E-01  0.87344205265E-03 -0.95403880468E-02  0.10201064357E+01  0.10198282100E+01 0.  0.
     999903    2    3    3    0    0 -0.32766334883E-01 -0.11635443624E+00  0.45081626452E-01  0.13058638039E+00  0.20210446946E-01 0.  0.
         14    1    1    2    0    0  0.21812388900E-01 -0.87344205265E-03  0.95403880468E-02  0.23823564272E-01  0.00000000000E+00 0.  1.
     999901    1    3    3    0    0  0.10953945983E-01  0.11722787829E+00 -0.54622014499E-01  0.88952005534E+00  0.88000000000E+00 0. -1.
        -11    1    4    4    0    0 -0.38913447365E-02 -0.46751347760E-01  0.12989252945E-01  0.48680724053E-01  0.51100000000E-03 0.  1.
         11    1    4    4    0    0 -0.28874990147E-01 -0.69603088478E-01  0.32092373508E-01  0.81905656337E-01  0.51100000000E-03 0. -1.
</event>
<event>
 8    1  0.1111182E+005  0.1043930E+01  0.7957747E-01            NaN
         13   -1    0    0    0    0  0.00000000000E+00  0.00000000000E+00  0.74505805969E-08  0.10566000000E+00  0.10566000000E+00 0. -1.
     999900   -1    0    0    0    0 -0.00000000000E+00 -0.00000000000E+00 -0.74505805969E-08  0.93827000000E+00  0.93827000000E+00 0. -1.
     999902    2    1    2    0    0  0.83156141770E-02 -0.95039659325E-02  0.19637655627E-01  0.10205823593E+01  0.10203152649E+01 0.  0.
     999903    2    3    3    0    0  0.80799783064E-01 -0.78327656298E-01 -0.63920656720E-01  0.13099107863E+00  0.20223393379E-01 0.  0.
         14    1    1    2    0    0 -0.83156141770E-02  0.95039659325E-02 -0.19637655627E-01  0.23347640697E-01  0.00000000000E+00 0. -1.
     999901    1    3    3    0    0 -0.72484168887E-01  0.68823690365E-01  0.83558312347E-01  0.88959128068E+00  0.88000000000E+00 0. -1.
        -11    1    4    4    0    0  0.52181332855E-01 -0.61248244326E-01 -0.50869420515E-01  0.95195577608E-01  0.51100000000E-03 0. -1.
         11    1    4    4    0    0  0.28618450209E-01 -0.17079411972E-01 -0.13051236205E-01  0.35795501018E-01  0.51100000000E-03 0.  1.
</event>
<event>
 8    1  0.1111182E+005  0.1043930E+01  0.7957747E-01            NaN
         13   -1    0    0    0    0  0.00000000000E+00  0.00000000000E+00  0.74505805969E-08  0.10566000000E+00  0.10566000000E+00 0.  1.
     999900   -1    0    0    0    0 -0.00000000000E+00 -0.00000000000E+00 -0.74505805969E-08  0.93827000000E+00  0.93827000000E+00 0.  1.
     999902    2    1    2    0    0  0.20878988060E-01  0.10444518837E-01  0.25293087639E-02  0.10204477190E+01  0.10201774992E+01 0.  0.
     999903    2    3    3    0    0  0.67752514118E-01  0.97344797071E-01  0.57369346996E-01  0.13322947329E+00  0.19810045237E-01 0.  0.
         14    1    1    2    0    0 -0.20878988060E-01 -0.10444518837E-01 -0.25293087639E-02  0.23482280958E-01  0.00000000000E+00 0. -1.
     999901    1    3    3    0    0 -0.46873526058E-01 -0.86900278234E-01 -0.54840038232E-01  0.88721824575E+00  0.88000000000E+00 0. -1.
        -11    1    4    4    0    0  0.30650264051E-01  0.56566935258E-01  0.38384062054E-01  0.74918984187E-01  0.51100000000E-03 0. -1.
         11    1    4    4    0    0  0.37102250067E-01  0.40777861813E-01  0.18985284942E-01  0.58310489103E-01  0.51100000000E-03 0.  1.
</event>
<event>
 8    1  0.1111182E+005  0.1043930E+01  0.7957747E-01            NaN
         13   -1    0    0    0    0  0.00000000000E+00  0.00000000000E+00  0.74505805969E-08  0.10566000000E+00  0.10566000000E+00 0.  1.
     999900   -1    0    0    0    0 -0.00000000000E+00 -0.00000000000E+00 -0.74505805969E-08  0.93827000000E+00  0.93827000000E+00 0. -1.
     999902    2    1    2    0    0  0.11116095188E-02  0.12778478476E-01  0.16389962421E-01  0.10231175985E+01  0.10229058922E+01 0.  0.
     999903    2    3    3    0    0  0.75511041174E-01  0.82826486239E-01  0.73270881753E-01  0.13538034131E+00  0.19926628893E-01 0.  0.
         14    1    1    2    0    0 -0.11116095188E-02 -0.12778478476E-01 -0.16389962421E-01  0.20812401496E-01  0.00000000000E+00 0.  1.
     999901    1    3    3    0    0 -0.74399431655E-01 -0.70048007763E-01 -0.56880919331E-01  0.88773725719E+00  0.88000000000E+00 0.  1.
        -11    1    4    4    0    0  0.32565852741E-01  0.21817626243E-01  0.26633460353E-01  0.47393521825E-01  0.51100000000E-03 0. -1.
         11    1    4    4    0    0  0.42945188433E-01  0.61008859997E-01  0.46637421399E-01  0.87986819487E-01  0.51100000000E-03 0.  1.
</event>
<event>
 8    1  0.1111182E+005  0.1043930E+01  0.7957747E-01            NaN
         13   -1    0    0    0    0  0.00000000000E+00  0.00000000000E+00  0.74505805969E-08  0.10566000000E+00  0.10566000000E+00 0.  1.
     999900   -1    0    0    0    0 -0.00000000000E+00 -0.00000000000E+00 -0.74505805969E-08  0.93827000000E+00  0.93827000000E+00 0. -1.
     999902    2    1    2    0    0 -0.11872099957E-03 -0.20555881887E-01 -0.13192216980E-01  0.10195047474E+01  0.10192121158E+01 0.  0.
     999903    2    3    3    0    0  0.37405804239E-01  0.28949964060E-01 -0.12039202156E+00  0.13082554946E+00  0.19590582594E-01 0.  0.
         14    1    1    2    0    0  0.11872099957E-03  0.20555881887E-01  0.13192216980E-01  0.24425252582E-01  0.00000000000E+00 0.  1.
     999901    1    3    3    0    0 -0.37524525239E-01 -0.49505845947E-01  0.10719980458E+00  0.88867919796E+00  0.88000000000E+00 0.  1.
        -11    1    4    4    0    0  0.26213355285E-01  0.11208842167E-01 -0.52222827742E-01  0.59500109213E-01  0.51100000000E-03 0. -1.
         11    1    4    4    0    0  0.11192448955E-01  0.17741121893E-01 -0.68169193821E-01  0.71325440249E-01  0.51100000000E-03 0.  1.
</event>
<event>
 8    1  0.1111182E+005  0.1043930E+01  0.7957747E-01            NaN
         13   -1    0    0    0    0  0.00000000000E+00  0.00000000000E+00  0.74505805969E-08  0.10566000000E+00  0.10566000000E+00 0.  1.
     999900   -1    0    0    0    0 -0.00000000000E+00 -0.00000000000E+00 -0.74505805969E-08  0.93827000000E+00  0.93827000000E+00 0. -1.
     999902    2    1    2    0    0 -0.22254193435E-01 -0.79277350918E-02 -0.28888980326E-03  0.10203041335E+01  0.10200305600E+01 0.  0.
     999903    2    3    3    0    0  0.11648728603E+00  0.43439175286E-01  0.21704131137E-01  0.12768358113E+00  0.19384989699E-01 0.  0.
         14    1    1    2    0    0  0.22254193435E-01  0.79277350918E-02  0.28888980326E-03  0.23625866470E-01  0.00000000000E+00 0. -1.
     999901    1    3    3    0    0 -0.13874147946E+00 -0.51366910377E-01 -0.21993020941E-01  0.89262055240E+00  0.88000000000E+00 0.  1.
        -11    1    4    4    0    0  0.53690992319E-01  0.14761783709E-01  0.18098867785E-01  0.58553078916E-01  0.51100000000E-03 0. -1.
         11    1    4    4    0    0  0.62796293706E-01  0.28677391577E-01  0.36052633522E-02  0.69130502210E-01  0.51100000000E-03 0.  1.
</event>
<event>
 8    1  0.1111182E+005  0.1043930E+01  0.7957747E-01            NaN
         13   -1    0    0    0    0  0.00000000000E+00  0.00000000000E+00  0.74505805969E-08  0.10566000000E+00  0.10566000000E+00 0. -1.
     999900   -1    0    0    0    0 -0.00000000000E+00 -0.00000000000E+00 -0.74505805969E-08  0.93827000000E+00  0.93827000000E+00 0. -1.
     999902    2    1    2    0    0  0.84638798101E-02 -0.12327032304E-01 -0.18883742953E-01  0.10198428928E+01  0.10195584030E+01 0.  0.
     999903    2    3    3    0    0  0.92935311236E-01  0.57886326299E-01  0.65091068250E-01  0.12904712079E+00  0.20700564527E-01 0.  0.
         14    1    1    2    0    0 -0.84638798101E-02  0.12327032304E-01  0.18883742953E-01  0.24087107232E-01  0.00000000000E+00 0. -1.
     999901    1    3    3    0    0 -0.84471431426E-01 -0.70213358604E-01 -0.83974811204E-01  0.89079577198E+00  0.88000000000E+00 0. -1.
        -11    1    4    4    0    0  0.78466368629E-01  0.42404241318E-01  0.45256369899E-01  0.10001745260E+00  0.51100000000E-03 0. -1.
         11    1    4    4    0    0  0.14468942608E-01  0.15482084981E-01  0.19834698351E-01  0.29029668190E-01  0.51100000000E-03 0.  1.
</event>
<event>
 8    1  0.1111182E+005  0.1043930E+01  0.7957747E-01            NaN
         13   -1    0    0    0    0  0.00000000000E+00  0.00000000000E+00  0.74505805969E-08  0.10566000000E+00  0.10566000000E+00 0.  1.
     999900   -1    0    0    0    0 -0.00000000000E+00 -0.00000000000E+00 -0.74505805969E-08  0.93827000000E+00  0.93827000000E+00 0. -1.
     999902    2    1    2    0    0 -0.11282297525E-01  0.14999707380E-01 -0.15342006818E-01  0.10196883286E+01  0.10194001319E+01 0.  0.
     999903    2    3    3    0    0 -0.49307974687E-01  0.10222852890E+00  0.61312157611E-01  0.13124548837E+00  0.24171244458E-01 0.  0.
         14    1    1    2    0    0  0.11282297525E-01 -0.14999707380E-01  0.15342006818E-01  0.24241671398E-01  0.00000000000E+00 0. -1.
     999901    1    3    3    0    0  0.38025677161E-01 -0.87228821522E-01 -0.76654164430E-01  0.88844284023E+00  0.88000000000E+00 0. -1.
        -11    1    4    4    0    0 -0.16948399141E-03  0.12917887145E-01  0.13363390643E-01  0.18594135193E-01  0.51100000000E-03 0.  1.
         11    1    4    4    0    0 -0.49138490695E-01  0.89310641757E-01  0.47948766969E-01  0.11265135318E+00  0.51100000000E-03 0. -1.
</event>
<event>
 8    1  0.1111182E+005  0.1043930E+01  0.7957747E-01            NaN
         13   -1    0    0    0    0  0.00000000000E+00  0.00000000000E+00  0.74505805969E-08  0.10566000000E+00  0.10566000000E+00 0.  1.
     999900   -1    0    0    0    0 -0.00000000000E+00 -0.00000000000E+00 -0.74505805969E-08  0.93827000000E+00  0.93827000000E+00 0. -1.
     999902    2    1    2    0    0  0.78067499760E-02  0.44019431569E-02 -0.19372094570E-01  0.10225851998E+01  0.10223624065E+01 0.  0.
     999903    2    3    3    0    0 -0.56752768275E-01  0.10745034338E+00  0.47181033368E-01  0.13173379632E+00  0.19007634898E-01 0.  0.
         14    1    1    2    0    0 -0.78067499760E-02 -0.44019431569E-02  0.19372094570E-01  0.21344800228E-01  0.00000000000E+00 0.  1.
     999901    1    3    3    0    0  0.64559518251E-01 -0.10304840023E+00 -0.66553127938E-01  0.89085140345E+00  0.88000000000E+00 0.  1.
        -11    1    4    4    0    0 -0.32869716155E-01  0.51242656497E-01  0.32103391486E-01  0.68826716840E-01  0.51100000000E-03 0. -1.
         11    1    4    4    0    0 -0.23883052120E-01  0.56207686886E-01  0.15077641882E-01  0.62907079485E-01  0.51100000000E-03 0.  1.
</event>
<event>
 8    1  0.1111182E+005  0.1043930E+01  0.7957747E-01            NaN
         13   -1    0    0    0    0  0.00000000000E+00  0.00000000000E+00  0.74505805969E-08  0.10566000000E+00  0.10566000000E+00 0.  1.
     999900   -1    0    0    0    0 -0.00000000000E+00 -0.00000000000E+00 -0.74505805969E-08  0.93827000000E+00  0.93827000000E+00 0.  1.
     999902    2    1    2    0    0 -0.27951686858E-02 -0.21126255498E-01 -0.86953550688E-02  0.10209139004E+01  0.10206544230E+01 0.  0.
     999903    2    3    3    0    0 -0.48168076943E-01  0.11693867474E+00 -0.17578595927E-01  0.12895003473E+00  0.18007974201E-01 0.  0.
         14    1    1    2    0    0  0.27951686858E-02  0.21126255498E-01  0.86953550688E-02  0.23016099564E-01  0.00000000000E+00 0.  1.
     999901    1    3    3    0    0  0.45372908257E-01 -0.13806493024E+00  0.88832408580E-02  0.89196386571E+00  0.88000000000E+00 0.  1.
        -11    1    4    4    0    0 -0.32593303307E-01  0.63639641740E-01 -0.31304939375E-02  0.71570863727E-01  0.51100000000E-03 0. -1.
         11    1    4    4    0    0 -0.15574773636E-01  0.53299032999E-01 -0.14448101989E-01  0.57379170999E-01  0.51100000000E-03 0.  1.
</event>
<event>
 8    1  0.1111182E+005  0.1043930E+01  0.7957747E-01            NaN
         13   -1    0    0    0    0  0.00000000000E+00  0.00000000000E+00  0.74505805969E-08  0.10566000000E+00  0.10566000000E+00 0.  1.
     999900   -1    0    0    0    0 -0.00000000000E+00 -0.00000000000E+00 -0.74505805969E-08  0.93827000000E+00  0.93827000000E+00 0. -1.
     999902    2    1    2    0    0  0.41721827775E-02  0.17666628990E-01 -0.12836097890E-01  0.10216975395E+01  0.10214556182E+01 0.  0.
     999903    2    3    3    0    0  0.87881327988E-01  0.50489392285E-01  0.82275315525E-01  0.13201740840E+00  0.19673892202E-01 0.  0.
         14    1    1    2    0    0 -0.41721827775E-02 -0.17666628990E-01  0.12836097890E-01  0.22232460458E-01  0.00000000000E+00 0.  1.
     999901    1    3    3    0    0 -0.83709145210E-01 -0.32822763295E-01 -0.95111413415E-01  0.88968013114E+00  0.88000000000E+00 0. -1.
        -11    1    4    4    0    0  0.47178051654E-01  0.20280774241E-01  0.51426162872E-01  0.72677298453E-01  0.51100000000E-03 0.  1.
         11    1    4    4    0    0  0.40703276334E-01  0.30208618044E-01  0.30849152654E-01  0.59340109950E-01  0.51100000000E-03 0. -1.
</event>
<event>
 8    1  0.1111182E+005  0.1043930E+01  0.7957747E-01            NaN
         13   -1    0    0    0    0  0.00000000000E+00  0.00000000000E+00  0.74505805969E-08  0.10566000000E+00  0.10566000000E+00 0.  1.
     999900   -1    0    0    0    0 -0.00000000000E+00 -0.00000000000E+00 -0.74505805969E-08  0.93827000000E+00  0.93827000000E+00 0.  1.
     999902    2    1    2    0    0  0.18585567125E-01  0.10651746927E-01 -0.91474084669E-02  0.10206371234E+01  0.10203712950E+01 0.  0.
     999903    2    3    3    0    0 -0.18833477138E-01 -0.12529140767E+00  0.15436139979E-01  0.12907384635E+00  0.19213190692E-01 0.  0.
         14    1    1    2    0    0 -0.18585567125E-01 -0.10651746927E-01  0.91474084669E-02  0.23292876585E-01  0.00000000000E+00 0.  1.
     999901    1    3    3    0    0  0.37419044264E-01  0.13594315460E+00 -0.24583548446E-01  0.89156327706E+00  0.88000000000E+00 0. -1.
        -11    1    4    4    0    0 -0.78600460698E-02 -0.87227707535E-01  0.33208072981E-02  0.87645548478E-01  0.51100000000E-03 0.  1.
         11    1    4    4    0    0 -0.10973431069E-01 -0.38063700137E-01  0.12115332681E-01  0.41428297872E-01  0.51100000000E-03 0. -1.
</event>
<event>
 8    1  0.1111182E+005  0.1043930E+01  0.7957747E-01            NaN
         13   -1    0    0    0    0  0.00000000000E+00  0.00000000000E+00  0.74505805969E-08  0.10566000000E+00  0.10566000000E+00 0.  1.
     999900   -1    0    0    0    0 -0.00000000000E+00 -0.00000000000E+00 -0.74505805969E-08  0.93827000000E+00  0.93827000000E+00 0. -1.
     999902    2    1    2    0    0 -0.11364368350E-01 -0.19412277011E-01 -0.56945921005E-02  0.10207262558E+01  0.10204624812E+01 0.  0.
     999903    2    3    3    0    0 -0.60113765542E-01 -0.29389884839E-01  0.11147085608E+00  0.13156721565E+00  0.20168052468E-01 0.  0.
         14    1    1    2    0    0  0.11364368350E-01  0.19412277011E-01  0.56945921005E-02  0.23203744222E-01  0.00000000000E+00 0.  1.
     999901    1    3    3    0    0  0.48749397193E-01  0.99776078286E-02 -0.11716544819E+00  0.88915904012E+00  0.88000000000E+00 0. -1.
        -11    1    4    4    0    0 -0.59358161779E-01 -0.31612659416E-01  0.10529199294E+00  0.12493765047E+00  0.51100000000E-03 0. -1.
         11    1    4    4    0    0 -0.75560376353E-03  0.22227745766E-02  0.61788631414E-02  0.66295651883E-02  0.51100000000E-03 0.  1.
</event>
<event>
 8    1  0.1111182E+005  0.1043930E+01  0.7957747E-01            NaN
         13   -1    0    0    0    0  0.00000000000E+00  0.00000000000E+00  0.74505805969E-08  0.10566000000E+00  0.10566000000E+00 0.  1.
     999900   -1    0    0    0    0 -0.00000000000E+00 -0.00000000000E+00 -0.74505805969E-08  0.93827000000E+00  0.93827000000E+00 0.  1.
     999902    2    1    2    0    0 -0.70651105423E-02 -0.11815856390E-02 -0.22196050592E-01  0.10206066942E+01  0.10203401627E+01 0.  0.
     999903    2    3    3    0    0 -0.71671706426E-01  0.48831836174E-01  0.93764581680E-01  0.12924693359E+00  0.19788666930E-01 0.  0.
         14    1    1    2    0    0  0.70651105423E-02  0.11815856390E-02  0.22196050592E-01  0.23323305801E-01  0.00000000000E+00 0.  1.
     999901    1    3    3    0    0  0.64606595884E-01 -0.50013421813E-01 -0.11596063227E+00  0.89135976061E+00  0.88000000000E+00 0.  1.
        -11    1    4    4    0    0 -0.41463558145E-01  0.38965810944E-01  0.64911308464E-01  0.86320913828E-01  0.51100000000E-03 0. -1.
         11    1    4    4    0    0 -0.30208148281E-01  0.98660252300E-02  0.28853273217E-01  0.42926019764E-01  0.51100000000E-03 0.  1.
</event>
<event>
 8    1  0.1111182E+005  0.1043930E+01  0.7957747E-01            NaN
         13   -1    0    0    0    0  0.00000000000E+00  0.00000000000E+00  0.74505805969E-08  0.10566000000E+00  0.10566000000E+00 0. -1.
     999900   -1    0    0    0    0 -0.00000000000E+00 -0.00000000000E+00 -0.74505805969E-08  0.93827000000E+00  0.93827000000E+00 0.  1.
     999902    2    1    2    0    0 -0.59786955200E-02 -0.15703381964E-01 -0.13790809507E-01  0.10221923039E+01  0.10219611434E+01 0.  0.
     999903    2    3    3    0    0  0.27432240927E-02 -0.16251023116E-01  0.12816605197E+00  0.13077314193E+00  0.20086232682E-01 0.  0.
         14    1    1    2    0    0  0.59786955200E-02  0.15703381964E-01  0.13790809507E-01  0.21737696108E-01  0.00000000000E+00 0. -1.
     999901    1    3    3    0    0 -0.87219196127E-02  0.54764115178E-03 -0.14195686147E+00  0.89141916196E+00  0.88000000000E+00 0.  1.
        -11    1    4    4    0    0 -0.64376842565E-02  0.77238570504E-03  0.38247352566E-01  0.38796410370E-01  0.51100000000E-03 0.  1.
         11    1    4    4    0    0  0.91809083492E-02 -0.17023408821E-01  0.89918699399E-01  0.91976731561E-01  0.51100000000E-03 0. -1.
</event>
<event>
 8    1  0.1111182E+005  0.1043930E+01  0.7957747E-01            NaN
         13   -1    0    0    0    0  0.00000000000E+00  0.00000000000E+00  0.74505805969E-08  0.10566000000E+00  0.10566000000E+00 0. -1.
     999900   -1    0    0    0    0 -0.00000000000E+00 -0.00000000000E+00 -0.74505805969E-08  0.93827000000E+00  0.93827000000E+00 0.  1.
     999902    2    1    2    0    0  0.14086872018E-01  0.20955461181E-01 -0.39090408696E-02  0.10183790330E+01  0.10180584477E+01 0.  0.
     999903    2    3    3    0    0  0.11955390446E+00  0.47560922156E-01 -0.18714599860E-01  0.13155867343E+00  0.20056692605E-01 0.  0.
         14    1    1    2    0    0 -0.14086872018E-01 -0.20955461181E-01  0.39090408696E-02  0.25550967047E-01  0.00000000000E+00 0.  1.
     999901    1    3    3    0    0 -0.10546703244E+00 -0.26605460976E-01  0.14805558990E-01  0.88682035952E+00  0.88000000000E+00 0.  1.
        -11    1    4    4    0    0  0.10756079042E+00  0.48731582976E-01 -0.18255676276E-01  0.11948900223E+00  0.51100000000E-03 0. -1.
         11    1    4    4    0    0  0.11993114040E-01 -0.11706608194E-02 -0.45892358398E-03  0.12069671205E-01  0.51100000000E-03 0.  1.
</event>
<event>
 8    1  0.1123438E+005  0.1043930E+01  0.7957747E-01            NaN
         13   -1    0    0    0    0  0.00000000000E+00  0.00000000000E+00  0.74505805969E-08  0.10566000000E+00  0.10566000000E+00 0. -1.
     999900   -1    0    0    0    0 -0.00000000000E+00 -0.00000000000E+00 -0.74505805969E-08  0.93827000000E+00  0.93827000000E+00 0.  1.
     999902    2    1    2    0    0  0.79814065755E-02 -0.18132993540E-01 -0.14004408316E-01  0.10196682656E+01  0.10193795858E+01 0.  0.
     999903    2    3    3    0    0  0.11415786166E+00  0.55846464436E-01  0.18487545045E-01  0.12961089278E+00  0.17502835091E-01 0.  0.
         14    1    1    2    0    0 -0.79814065755E-02  0.18132993540E-01  0.14004408316E-01  0.24261734438E-01  0.00000000000E+00 0. -1.
     999901    1    3    3    0    0 -0.10617645508E+00 -0.73979457976E-01 -0.32491953361E-01  0.89005737279E+00  0.88000000000E+00 0.  1.
        -11    1    4    4    0    0  0.77298898244E-01  0.38349273330E-01  0.20727795710E-01  0.88745079135E-01  0.51100000000E-03 0.  1.
         11    1    4    4    0    0  0.36858963414E-01  0.17497191105E-01 -0.22402506649E-02  0.40865813641E-01  0.51100000000E-03 0. -1.
</event>
<event>
 8    1  0.1111182E+005  0.1043930E+01  0.7957747E-01            NaN
         13   -1    0    0    0    0  0.00000000000E+00  0.00000000000E+00  0.74505805969E-08  0.10566000000E+00  0.10566000000E+00 0. -1.
     999900   -1    0    0    0    0 -0.00000000000E+00 -0.00000000000E+00 -0.74505805969E-08  0.93827000000E+00  0.93827000000E+00 0. -1.
     999902    2    1    2    0    0 -0.78389615648E-02 -0.12089157507E-01 -0.18787801981E-01  0.10202534599E+01  0.10199786978E+01 0.  0.
     999903    2    3    3    0    0 -0.92576935225E-01 -0.91408327442E-01  0.10033866581E-01  0.13216408181E+00  0.20992731631E-01 0.  0.
         14    1    1    2    0    0  0.78389615648E-02  0.12089157507E-01  0.18787801981E-01  0.23676540096E-01  0.00000000000E+00 0. -1.
     999901    1    3    3    0    0  0.84737973661E-01  0.79319169935E-01 -0.28821668562E-01  0.88808937809E+00  0.88000000000E+00 0. -1.
        -11    1    4    4    0    0 -0.52902524467E-01 -0.65385833303E-01  0.10111452564E-01  0.84714148084E-01  0.51100000000E-03 0. -1.
         11    1    4    4    0    0 -0.39674410759E-01 -0.26022494140E-01 -0.77585982739E-04  0.47449933729E-01  0.51100000000E-03 0.  1.
</event>
<event>
 8    1  0.1111182E+005  0.1043930E+01  0.7957747E-01            NaN
         13   -1    0    0    0    0  0.00000000000E+00  0.00000000000E+00  0.74505805969E-08  0.10566000000E+00  0.10566000000E+00 0. -1.
     999900   -1    0    0    0    0 -0.00000000000E+00 -0.00000000000E+00 -0.74505805969E-08  0.93827000000E+00  0.93827000000E+00 0.  1.
     999902    2    1    2    0    0 -0.14996935897E-01  0.48508119084E-02  0.16215814536E-01  0.10213160418E+01  0.10210656523E+01 0.  0.
     999903    2    3    3    0    0 -0.50115975519E-01 -0.25373651310E-01 -0.11568305569E+00  0.13028058964E+00  0.20857360299E-01 0.  0.
         14    1    1    2    0    0  0.14996935897E-01 -0.48508119084E-02 -0.16215814536E-01  0.22613958157E-01  0.00000000000E+00 0.  1.
     999901    1    3    3    0    0  0.35119039621E-01  0.30224463219E-01  0.13189887023E+00  0.89103545221E+00  0.88000000000E+00 0. -1.
        -11    1    4    4    0    0 -0.16188690170E-01 -0.10694636341E-01 -0.20798356841E-01  0.28447876972E-01  0.51100000000E-03 0.  1.
         11    1    4    4    0    0 -0.33927285348E-01 -0.14679014969E-01 -0.94884698851E-01  0.10183271266E+00  0.51100000000E-03 0. -1.
</event>
<event>
 8    1  0.1111182E+005  0.1043930E+01  0.7957747E-01            NaN
         13   -1    0    0    0    0  0.00000000000E+00  0.00000000000E+00  0.74505805969E-08  0.10566000000E+00  0.10566000000E+00 0. -1.
     999900   -1    0    0    0    0 -0.00000000000E+00 -0.00000000000E+00 -0.74505805969E-08  0.93827000000E+00  0.93827000000E+00 0.  1.
     999902    2    1    2    0    0  0.22410782033E-01  0.33326296321E-02 -0.81312237984E-02  0.10198578922E+01  0.10195737609E+01 0.  0.
     999903    2    3    3    0    0 -0.12548868107E+00 -0.13376814774E-01  0.92019919872E-03  0.12731356002E+00  0.16779378693E-01 0.  0.
         14    1    1    2    0    0 -0.22410782033E-01 -0.33326296321E-02  0.81312237984E-02  0.24072107761E-01  0.00000000000E+00 0. -1.
     999901    1    3    3    0    0  0.14789946310E+00  0.16709444406E-01 -0.90514229971E-02  0.89254433222E+00  0.88000000000E+00 0. -1.
        -11    1    4    4    0    0 -0.45585020468E-01 -0.88271089532E-02 -0.67059273913E-02  0.46916335394E-01  0.51100000000E-03 0. -1.
         11    1    4    4    0    0 -0.79903660598E-01 -0.45497058211E-02  0.76261265900E-02  0.80397224627E-01  0.51100000000E-03 0.  1.
</event>
<event>
 8    1  0.1111182E+005  0.1043930E+01  0.7957747E-01            NaN
         13   -1    0    0    0    0  0.00000000000E+00  0.00000000000E+00  0.74505805969E-08  0.10566000000E+00  0.10566000000E+00 0. -1.
     999900   -1    0    0    0    0 -0.00000000000E+00 -0.00000000000E+00 -0.74505805969E-08  0.93827000000E+00  0.93827000000E+00 0. -1.
     999902    2    1    2    0    0  0.10427200804E-01  0.97970074439E-02 -0.19014261338E-01  0.10201339918E+01  0.10198564170E+01 0.  0.
     999903    2    3    3    0    0 -0.10853565723E+00  0.17099175554E-01 -0.68566722347E-01  0.13071793077E+00  0.17703426684E-01 0.  0.
         14    1    1    2    0    0 -0.10427200804E-01 -0.97970074439E-02  0.19014261338E-01  0.23796008188E-01  0.00000000000E+00 0. -1.
     999901    1    3    3    0    0  0.11896285803E+00 -0.73021681100E-02  0.49552461010E-01  0.88941606104E+00  0.88000000000E+00 0.  1.
        -11    1    4    4    0    0 -0.83577656377E-01  0.20508643300E-01 -0.51600086556E-01  0.10034270850E+00  0.51100000000E-03 0. -1.
         11    1    4    4    0    0 -0.24958000851E-01 -0.34094677460E-02 -0.16966635791E-01  0.30375222269E-01  0.51100000000E-03 0.  1.
</event>
<event>
 8    1  0.1111182E+005  0.1043930E+01  0.7957747E-01            NaN
         13   -1    0    0    0    0  0.00000000000E+00  0.00000000000E+00  0.74505805969E-08  0.10566000000E+00  0.10566000000E+00 0. -1.
     999900   -1    0    0    0    0 -0.00000000000E+00 -0.00000000000E+00 -0.74505805969E-08  0.93827000000E+00  0.93827000000E+00 0. -1.
     999902    2    1    2    0    0 -0.72848362948E-02 -0.20208291376E-01  0.85798160464E-02  0.10207986982E+01  0.10205365868E+01 0.  0.
     999903    2    3    3    0    0 -0.99634816309E-01 -0.81537008522E-01  0.30345882910E-01  0.13357635175E+00  0.18611522151E-01 0.  0.
         14    1    1    2    0    0  0.72848362948E-02  0.20208291376E-01 -0.85798160464E-02  0.23131301813E-01  0.00000000000E+00 0.  1.
     999901    1    3    3    0    0  0.92349980015E-01  0.61328717145E-01 -0.21766066864E-01  0.88722234644E+00  0.88000000000E+00 0.  1.
        -11    1    4    4    0    0 -0.89619495044E-01 -0.71585911710E-01  0.20922418899E-01  0.11659419103E+00  0.51100000000E-03 0.  1.
         11    1    4    4    0    0 -0.10015321265E-01 -0.99510968113E-02  0.94234640109E-02  0.16982160721E-01  0.51100000000E-03 0. -1.
</event>
<event>
 8    1  0.1111182E+005  0.1043930E+01  0.7957747E-01            NaN
         13   -1    0    0    0    0  0.00000000000E+00  0.00000000000E+00  0.74505805969E-08  0.10566000000E+00  0.10566000000E+00 0. -1.
     999900   -1    0    0    0    0 -0.00000000000E+00 -0.00000000000E+00 -0.74505805969E-08  0.93827000000E+00  0.93827000000E+00 0. -1.
     999902    2    1    2    0    0 -0.42522529625E-02  0.57534361407E-02 -0.22087230488E-01  0.10207129926E+01  0.10204489129E+01 0.  0.
     999903    2    3    3    0    0 -0.11108450840E+00 -0.65437357781E-01 -0.14625420962E-01  0.13136663793E+00  0.20529851996E-01 0.  0.
         14    1    1    2    0    0  0.42522529625E-02 -0.57534361407E-02  0.22087230488E-01  0.23217007415E-01  0.00000000000E+00 0. -1.
     999901    1    3    3    0    0  0.10683225543E+00  0.71190793922E-01 -0.74618095257E-02  0.88934635466E+00  0.88000000000E+00 0.  1.
        -11    1    4    4    0    0 -0.56429900575E-01 -0.33945574843E-01  0.28296996118E-02  0.65915886182E-01  0.51100000000E-03 0. -1.
         11    1    4    4    0    0 -0.54654607822E-01 -0.31491782938E-01 -0.17455120574E-01  0.65450751746E-01  0.51100000000E-03 0.  1.
</event>
<event>
 8    1  0.1111182E+005  0.1043930E+01  0.7957747E-01            NaN
         13   -1    0    0    0    0  0.00000000000E+00  0.00000000000E+00  0.74505805969E-08  0.10566000000E+00  0.10566000000E+00 0.  1.
     999900   -1    0    0    0    0 -0.00000000000E+00 -0.00000000000E+00 -0.74505805969E-08  0.93827000000E+00  0.93827000000E+00 0.  1.
     999902    2    1    2    0    0  0.21539458748E-01 -0.11079481149E-01  0.24000692572E-02  0.10195894265E+01  0.10192988449E+01 0.  0.
     999903    2    3    3    0    0 -0.91176917020E-01 -0.51634761162E-01  0.72468923352E-01  0.12871381430E+00  0.18333640742E-01 0.  0.
         14    1    1    2    0    0 -0.21539458748E-01  0.11079481149E-01 -0.24000692572E-02  0.24340573496E-01  0.00000000000E+00 0. -1.
     999901    1    3    3    0    0  0.11271637577E+00  0.40555280013E-01 -0.70068854094E-01  0.89087561220E+00  0.88000000000E+00 0. -1.
        -11    1    4    4    0    0 -0.38851527593E-01 -0.20992837504E-01  0.19816296360E-01  0.48405445408E-01  0.51100000000E-03 0. -1.
         11    1    4    4    0    0 -0.52325389427E-01 -0.30641923658E-01  0.52652626992E-01  0.80308368893E-01  0.51100000000E-03 0.  1.
</event>
<event>
 8    1  0.1111182E+005  0.1043930E+01  0.7957747E-01            NaN
         13   -1    0    0    0    0  0.00000000000E+00  0.00000000000E+00  0.74505805969E-08  0.10566000000E+00  0.10566000000E+00 0. -1.
     999900   -1    0    0    0    0 -0.00000000000E+00 -0.00000000000E+00 -0.74505805969E-08  0.93827000000E+00  0.93827000000E+00 0. -1.
     999902    2    1    2    0    0  0.21457429423E-01  0.78965591645E-02 -0.19695303966E-02  0.10209810137E+01  0.10207230644E+01 0.  0.
     999903    2    3    3    0    0  0.55657938644E-01 -0.93478016035E-01 -0.70298358451E-01  0.13187173575E+00  0.24745704111E-01 0.  0.
         14    1    1    2    0    0 -0.21457429423E-01 -0.78965591645E-02  0.19695303966E-02  0.22948986341E-01  0.00000000000E+00 0. -1.
     999901    1    3    3    0    0 -0.34200509221E-01  0.10137457520E+00  0.68328828054E-01  0.88910927791E+00  0.88000000000E+00 0.  1.
        -11    1    4    4    0    0  0.21902063673E-01 -0.17591969018E-01 -0.22863898131E-01  0.36224256042E-01  0.51100000000E-03 0.  1.
         11    1    4    4    0    0  0.33755874971E-01 -0.75886047017E-01 -0.47434460319E-01  0.95647479704E-01  0.51100000000E-03 0. -1.
</event>
<event>
 8    1  0.1111182E+005  0.1043930E+01  0.7957747E-01            NaN
         13   -1    0    0    0    0  0.00000000000E+00  0.00000000000E+00  0.74505805969E-08  0.10566000000E+00  0.10566000000E+00 0. -1.
     999900   -1    0    0    0    0 -0.00000000000E+00 -0.00000000000E+00 -0.74505805969E-08  0.93827000000E+00  0.93827000000E+00 0. -1.
     999902    2    1    2    0    0 -0.61165168810E-02 -0.98766879205E-02 -0.20435702305E-01  0.10204230080E+01  0.10201522125E+01 0.  0.
     999903    2    3    3    0    0 -0.11311195115E+00  0.62484656134E-01 -0.23547866703E-02  0.13081011099E+00  0.20176579748E-01 0.  0.
         14    1    1    2    0    0  0.61165168810E-02  0.98766879205E-02  0.20435702305E-01  0.23506991976E-01  0.00000000000E+00 0. -1.
     999901    1    3    3    0    0  0.10699543427E+00 -0.72361344054E-01 -0.18080915635E-01  0.88961289704E+00  0.88000000000E+00 0. -1.
        -11    1    4    4    0    0 -0.72654810278E-01  0.37151451542E-01  0.78956183615E-02  0.81985082293E-01  0.51100000000E-03 0.  1.
         11    1    4    4    0    0 -0.40457140873E-01  0.25333204592E-01 -0.10250405032E-01  0.48825028692E-01  0.51100000000E-03 0. -1.
</event>
<event>
 8    1  0.1111182E+005  0.1043930E+01  0.7957747E-01            NaN
         13   -1    0    0    0    0  0.00000000000E+00  0.00000000000E+00  0.74505805969E-08  0.10566000000E+00  0.10566000000E+00 0. -1.
     999900   -1    0    0    0    0 -0.00000000000E+00 -0.00000000000E+00 -0.74505805969E-08  0.93827000000E+00  0.93827000000E+00 0.  1.
     999902    2    1    2    0    0  0.71064398124E-03  0.21725349132E-01 -0.70478055119E-02  0.10210790181E+01  0.10208232922E+01 0.  0.
     999903    2    3    3    0    0 -0.50436757684E-01  0.73516274977E-01 -0.97428922153E-01  0.13346023569E+00  0.19254361235E-01 0.  0.
         14    1    1    2    0    0 -0.71064398124E-03 -0.21725349132E-01  0.70478055119E-02  0.22850981868E-01  0.00000000000E+00 0.  1.
     999901    1    3    3    0    0  0.51147401666E-01 -0.51790925845E-01  0.90381116641E-01  0.88761878244E+00  0.88000000000E+00 0. -1.
        -11    1    4    4    0    0 -0.29508941362E-01  0.57307805674E-01 -0.73635268331E-01  0.97864069376E-01  0.51100000000E-03 0.  1.
         11    1    4    4    0    0 -0.20927816323E-01  0.16208469303E-01 -0.23793653822E-01  0.35596166315E-01  0.51100000000E-03 0. -1.
</event>
<event>
 8    1  0.1111182E+005  0.1043930E+01  0.7957747E-01            NaN
         13   -1    0    0    0    0  0.00000000000E+00  0.00000000000E+00  0.74505805969E-08  0.10566000000E+00  0.10566000000E+00 0. -1.
     999900   -1    0    0    0    0 -0.00000000000E+00 -0.00000000000E+00 -0.74505805969E-08  0.93827000000E+00  0.93827000000E+00 0.  1.
     999902    2    1    2    0    0 -0.61111705166E-02 -0.23993357926E-02 -0.22721027078E-01  0.10202794548E+01  0.10200053027E+01 0.  0.
     999903    2    3    3    0    0 -0.54447634873E-01 -0.81843253873E-01 -0.87237672326E-01  0.13303081578E+00  0.20589398407E-01 0.  0.
         14    1    1    2    0    0  0.61111705166E-02  0.23993357926E-02  0.22721027078E-01  0.23650545212E-01  0.00000000000E+00 0. -1.
     999901    1    3    3    0    0  0.48336464356E-01  0.79443918080E-01  0.64516645248E-01  0.88724863901E+00  0.88000000000E+00 0. -1.
        -11    1    4    4    0    0 -0.13350037924E-01 -0.33894630968E-01 -0.23801524481E-01  0.43518308901E-01  0.51100000000E-03 0. -1.
         11    1    4    4    0    0 -0.41097596949E-01 -0.47948622905E-01 -0.63436147845E-01  0.89512506880E-01  0.51100000000E-03 0.  1.
</event>
<event>
 8    1  0.1111182E+005  0.1043930E+01  0.7957747E-01            NaN
         13   -1    0    0    0    0  0.00000000000E+00  0.00000000000E+00  0.74505805969E-08  0.10566000000E+00  0.10566000000E+00 0.  1.
     999900   -1    0    0    0    0 -0.00000000000E+00 -0.00000000000E+00 -0.74505805969E-08  0.93827000000E+00  0.93827000000E+00 0.  1.
     999902    2    1    2    0    0  0.22877247407E-01 -0.10352179801E-01 -0.20668071651E-02  0.10187346082E+01  0.10184229938E+01 0.  0.
     999903    2    3    3    0    0 -0.89089978377E-01 -0.29515027049E-01  0.83756961060E-01  0.12729218519E+00  0.19491301037E-01 0.  0.
         14    1    1    2    0    0 -0.22877247407E-01  0.10352179801E-01  0.20668071651E-02  0.25195391789E-01  0.00000000000E+00 0. -1.
     999901    1    3    3    0    0  0.11196722578E+00  0.19162847248E-01 -0.85823768225E-01  0.89144242302E+00  0.88000000000E+00 0.  1.
        -11    1    4    4    0    0 -0.10961212832E-01 -0.95444234853E-02  0.77658540055E-02  0.16486777000E-01  0.51100000000E-03 0.  1.
         11    1    4    4    0    0 -0.78128765545E-01 -0.19970603564E-01  0.75991107055E-01  0.11080540819E+00  0.51100000000E-03 0. -1.
</event>
<event>
 8    1  0.1111182E+005  0.1043930E+01  0.7957747E-01            NaN
         13   -1    0    0    0    0  0.00000000000E+00  0.00000000000E+00  0.74505805969E-08  0.10566000000E+00  0.10566000000E+00 0. -1.
     999900   -1    0    0    0    0 -0.00000000000E+00 -0.00000000000E+00 -0.74505805969E-08  0.93827000000E+00  0.93827000000E+00 0. -1.
     999902    2    1    2    0    0 -0.18730940046E-01  0.13249216494E-01  0.39315546753E-02  0.10206523933E+01  0.10203869173E+01 0.  0.
     999903    2    3    3    0    0  0.21420536427E-01  0.12877696323E+00  0.99513938676E-02  0.13217333342E+00  0.18122201517E-01 0.  0.
         14    1    1    2    0    0  0.18730940046E-01 -0.13249216494E-01 -0.39315546753E-02  0.23277606726E-01  0.00000000000E+00 0.  1.
     999901    1    3    3    0    0 -0.40151476473E-01 -0.11552774674E+00 -0.60198391923E-02  0.88847905985E+00  0.88000000000E+00 0. -1.
        -11    1    4    4    0    0  0.83497382400E-02  0.91475496266E-01  0.11739687995E-01  0.92604351631E-01  0.51100000000E-03 0.  1.
         11    1    4    4    0    0  0.13070798187E-01  0.37301466967E-01 -0.17882941276E-02  0.39568981792E-01  0.51100000000E-03 0. -1.
</event>
<event>
 8    1  0.1111182E+005  0.1043930E+01  0.7957747E-01            NaN
         13   -1    0    0    0    0  0.00000000000E+00  0.00000000000E+00  0.74505805969E-08  0.10566000000E+00  0.10566000000E+00 0. -1.
     999900   -1    0    0    0    0 -0.00000000000E+00 -0.00000000000E+00 -0.74505805969E-08  0.93827000000E+00  0.93827000000E+00 0.  1.
     999902    2    1    2    0    0 -0.12756424233E-02 -0.11682666556E-01  0.20829024746E-01  0.10200143099E+01  0.10197339026E+01 0.  0.
     999903    2    3    3    0    0  0.10356694602E+00  0.53563024819E-01 -0.50405203347E-01  0.12854177310E+00  0.19677219621E-01 0.  0.
         14    1    1    2    0    0  0.12756424233E-02  0.11682666556E-01 -0.20829024746E-01  0.23915690108E-01  0.00000000000E+00 0.  1.
     999901    1    3    3    0    0 -0.10484258845E+00 -0.65245691375E-01  0.71234228094E-01  0.89147253679E+00  0.88000000000E+00 0. -1.
        -11    1    4    4    0    0  0.63550436313E-01  0.23704851238E-01 -0.34758283086E-01  0.76216647078E-01  0.51100000000E-03 0. -1.
         11    1    4    4    0    0  0.40016509710E-01  0.29858173581E-01 -0.15646920261E-01  0.52325126026E-01  0.51100000000E-03 0.  1.
</event>
<event>
 8    1  0.1111182E+005  0.1043930E+01  0.7957747E-01            NaN
         13   -1    0    0    0    0  0.00000000000E+00  0.00000000000E+00  0.74505805969E-08  0.10566000000E+00  0.10566000000E+00 0. -1.
     999900   -1    0    0    0    0 -0.00000000000E+00 -0.00000000000E+00 -0.74505805969E-08  0.93827000000E+00  0.93827000000E+00 0.  1.
     999902    2    1    2    0    0 -0.16485869679E-01 -0.16002279072E-01 -0.49396244923E-02  0.10204298569E+01  0.10201592210E+01 0.  0.
     999903    2    3    3    0    0 -0.12533805305E+00  0.35248288078E-01 -0.11486417367E-01  0.13221913927E+00  0.19947271726E-01 0.  0.
         14    1    1    2    0    0  0.16485869679E-01  0.16002279072E-01  0.49396244923E-02  0.23500143079E-01  0.00000000000E+00 0. -1.
     999901    1    3    3    0    0  0.10885218337E+00 -0.51250567150E-01  0.65467928752E-02  0.88821071765E+00  0.88000000000E+00 0. -1.
        -11    1    4    4    0    0 -0.52968940861E-01  0.15250548778E-01 -0.14759541606E-01  0.57064815109E-01  0.51100000000E-03 0. -1.
         11    1    4    4    0    0 -0.72369112191E-01  0.19997739300E-01  0.32731242389E-02  0.75154324159E-01  0.51100000000E-03 0.  1.
</event>
<event>
 8    1  0.1111182E+005  0.1043930E+01  0.7957747E-01            NaN
         13   -1    0    0    0    0  0.00000000000E+00  0.00000000000E+00  0.74505805969E-08  0.10566000000E+00  0.10566000000E+00 0. -1.
     999900   -1    0    0    0    0 -0.00000000000E+00 -0.00000000000E+00 -0.74505805969E-08  0.93827000000E+00  0.93827000000E+00 0. -1.
     999902    2    1    2    0    0 -0.22449994890E-01  0.13901714745E-01  0.25863615121E-02  0.10173979588E+01  0.10170519443E+01 0.  0.
     999903    2    3    3    0    0 -0.60075441466E-01  0.31719032205E-01  0.10903320333E+00  0.13000624082E+00  0.19955639659E-01 0.  0.
         14    1    1    2    0    0  0.22449994890E-01 -0.13901714745E-01 -0.25863615121E-02  0.26532041182E-01  0.00000000000E+00 0.  1.
     999901    1    3    3    0    0  0.37625446576E-01 -0.17817317460E-01 -0.10644684181E+00  0.88739171799E+00  0.88000000000E+00 0. -1.
        -11    1    4    4    0    0 -0.10507496530E-01  0.15297823557E-01  0.27264579272E-01  0.32985592201E-01  0.51100000000E-03 0. -1.
         11    1    4    4    0    0 -0.49567944936E-01  0.16421208648E-01  0.81768624054E-01  0.97020648623E-01  0.51100000000E-03 0.  1.
</event>
<event>
 8    1  0.1111182E+005  0.1043930E+01  0.7957747E-01            NaN
         13   -1    0    0    0    0  0.00000000000E+00  0.00000000000E+00  0.74505805969E-08  0.10566000000E+00  0.10566000000E+00 0.  1.
     999900   -1    0    0    0    0 -0.00000000000E+00 -0.00000000000E+00 -0.74505805969E-08  0.93827000000E+00  0.93827000000E+00 0.  1.
     999902    2    1    2    0    0 -0.22248435477E-01  0.64641058515E-02  0.83848002994E-04  0.10207613881E+01  0.10204984208E+01 0.  0.
     999903    2    3    3    0    0  0.10776147523E+00  0.60204062297E-01  0.32320202556E-01  0.12900483931E+00  0.18989165632E-01 0.  0.
         14    1    1    2    0    0  0.22248435477E-01 -0.64641058515E-02 -0.83848002994E-04  0.23168611873E-01  0.00000000000E+00 0.  1.
     999901    1    3    3    0    0 -0.13000991071E+00 -0.53739956446E-01 -0.32236354553E-01  0.89175654882E+00  0.88000000000E+00 0. -1.
        -11    1    4    4    0    0  0.38289842745E-01  0.31502489440E-01  0.99114145594E-02  0.50566947287E-01  0.51100000000E-03 0. -1.
         11    1    4    4    0    0  0.69471632486E-01  0.28701572857E-01  0.22408787996E-01  0.78437892024E-01  0.51100000000E-03 0.  1.
</event>
<event>
 8    1  0.1111182E+005  0.1043930E+01  0.7957747E-01            NaN
         13   -1    0    0    0    0  0.00000000000E+00  0.00000000000E+00  0.74505805969E-08  0.10566000000E+00  0.10566000000E+00 0.  1.
     999900   -1    0    0    0    0 -0.00000000000E+00 -0.00000000000E+00 -0.74505805969E-08  0.93827000000E+00  0.93827000000E+00 0. -1.
     999902    2    1    2    0    0  0.18557382536E-02 -0.21979849196E-01  0.91168726715E-02  0.10200621366E+01  0.10197828630E+01 0.  0.
     999903    2    3    3    0    0 -0.10896711998E+00  0.45493736481E-01  0.49245910087E-01  0.12964384710E+00  0.20948845661E-01 0.  0.
         14    1    1    2    0    0 -0.18557382536E-02  0.21979849196E-01 -0.91168726715E-02  0.23867863382E-01  0.00000000000E+00 0.  1.
     999901    1    3    3    0    0  0.11082285823E+00 -0.67473585677E-01 -0.40129037415E-01  0.89041828952E+00  0.88000000000E+00 0.  1.
        -11    1    4    4    0    0 -0.21155684875E-01  0.14833646747E-02  0.43958013886E-02  0.21664430852E-01  0.51100000000E-03 0.  1.
         11    1    4    4    0    0 -0.87811435102E-01  0.44010371807E-01  0.44850108698E-01  0.10797941624E+00  0.51100000000E-03 0. -1.
</event>
<event>
 8    1  0.1111182E+005  0.1043930E+01  0.7957747E-01            NaN
         13   -1    0    0    0    0  0.00000000000E+00  0.00000000000E+00  0.74505805969E-08  0.10566000000E+00  0.10566000000E+00 0. -1.
     999900   -1    0    0    0    0 -0.00000000000E+00 -0.00000000000E+00 -0.74505805969E-08  0.93827000000E+00  0.93827000000E+00 0.  1.
     999902    2    1    2    0    0  0.11056583081E-01  0.11793899704E-01 -0.16648030047E-01  0.10207243756E+01  0.10204605578E+01 0.  0.
     999903    2    3    3    0    0 -0.11054229153E+00 -0.63509116998E-01 -0.36019196205E-02  0.12908149213E+00  0.19901045891E-01 0.  0.
         14    1    1    2    0    0 -0.11056583081E-01 -0.11793899704E-01  0.16648030047E-01  0.23205624407E-01  0.00000000000E+00 0. -1.
     999901    1    3    3    0    0  0.12159887461E+00  0.75303016703E-01 -0.13046110427E-01  0.89164288346E+00  0.88000000000E+00 0.  1.
        -11    1    4    4    0    0 -0.36869920235E-01 -0.19551187758E-01 -0.10427248868E-01  0.43018933051E-01  0.51100000000E-03 0. -1.
         11    1    4    4    0    0 -0.73672371293E-01 -0.43957929240E-01  0.68253292473E-02  0.86062559080E-01  0.51100000000E-03 0.  1.
</event>
<event>
 8    1  0.1111182E+005  0.1043930E+01  0.7957747E-01            NaN
         13   -1    0    0    0    0  0.00000000000E+00  0.00000000000E+00  0.74505805969E-08  0.10566000000E+00  0.10566000000E+00 0. -1.
     999900   -1    0    0    0    0 -0.00000000000E+00 -0.00000000000E+00 -0.74505805969E-08  0.93827000000E+00  0.93827000000E+00 0. -1.
     999902    2    1    2    0    0  0.13122454443E-01  0.15901781855E-01  0.12711688270E-01  0.10197090897E+01  0.10194213923E+01 0.  0.
     999903    2    3    3    0    0 -0.61185393112E-01  0.10927829048E+00 -0.30974331521E-01  0.13058069802E+00  0.20162152221E-01 0.  0.
         14    1    1    2    0    0 -0.13122454443E-01 -0.15901781855E-01 -0.12711688270E-01  0.24220910294E-01  0.00000000000E+00 0.  1.
     999901    1    3    3    0    0  0.74307847555E-01 -0.93376508627E-01  0.43686019791E-01  0.88912839168E+00  0.88000000000E+00 0.  1.
        -11    1    4    4    0    0 -0.52936265105E-01  0.88460556542E-01 -0.32601620410E-01  0.10812328612E+00  0.51100000000E-03 0. -1.
         11    1    4    4    0    0 -0.82491280067E-02  0.20817733940E-01  0.16272888897E-02  0.22457411903E-01  0.51100000000E-03 0.  1.
</event>
<event>
 8    1  0.1111182E+005  0.1043930E+01  0.7957747E-01            NaN
         13   -1    0    0    0    0  0.00000000000E+00  0.00000000000E+00  0.74505805969E-08  0.10566000000E+00  0.10566000000E+00 0. -1.
     999900   -1    0    0    0    0 -0.00000000000E+00 -0.00000000000E+00 -0.74505805969E-08  0.93827000000E+00  0.93827000000E+00 0.  1.
     999902    2    1    2    0    0  0.77603129678E-02 -0.21533070001E-01 -0.64248786903E-02  0.10201565983E+01  0.10198795568E+01 0.  0.
     999903    2    3    3    0    0 -0.12545590822E+00 -0.14917816077E-01  0.21259432378E-01  0.12967541141E+00  0.20050504148E-01 0.  0.
         14    1    1    2    0    0 -0.77603129678E-02  0.21533070001E-01  0.64248786903E-02  0.23773401675E-01  0.00000000000E+00 0.  1.
     999901    1    3    3    0    0  0.13321622118E+00 -0.66152539237E-02 -0.27684311068E-01  0.89048118692E+00  0.88000000000E+00 0.  1.
        -11    1    4    4    0    0 -0.81978792765E-02  0.23704189319E-02  0.53516924175E-02  0.10085923025E-01  0.51100000000E-03 0. -1.
         11    1    4    4    0    0 -0.11725802894E+00 -0.17288235009E-01  0.15907739960E-01  0.11958948838E+00  0.51100000000E-03 0.  1.
</event>
<event>
 8    1  0.1111182E+005  0.1043930E+01  0.7957747E-01            NaN
         13   -1    0    0    0    0  0.00000000000E+00  0.00000000000E+00  0.74505805969E-08  0.10566000000E+00  0.10566000000E+00 0. -1.
     999900   -1    0    0    0    0 -0.00000000000E+00 -0.00000000000E+00 -0.74505805969E-08  0.93827000000E+00  0.93827000000E+00 0. -1.
     999902    2    1    2    0    0  0.21520540170E-01 -0.47454554345E-02  0.88946756166E-02  0.10201651467E+01  0.10198883068E+01 0.  0.
     999903    2    3    3    0    0 -0.57934143414E-01 -0.33621878766E-02  0.11487537513E+00  0.13025117963E+00  0.20033689204E-01 0.  0.
         14    1    1    2    0    0 -0.21520540170E-01  0.47454554345E-02 -0.88946756166E-02  0.23764853267E-01  0.00000000000E+00 0.  1.
     999901    1    3    3    0    0  0.79454683584E-01 -0.13832675579E-02 -0.10598069952E+00  0.88991396710E+00  0.88000000000E+00 0. -1.
        -11    1    4    4    0    0 -0.44595890295E-01 -0.78019304483E-02  0.10003072198E+00  0.10980013666E+00  0.51100000000E-03 0. -1.
         11    1    4    4    0    0 -0.13338253119E-01  0.44397425717E-02  0.14844653153E-01  0.20451042971E-01  0.51100000000E-03 0.  1.
</event>
<event>
 8    1  0.1111182E+005  0.1043930E+01  0.7957747E-01            NaN
         13   -1    0    0    0    0  0.00000000000E+00  0.00000000000E+00  0.74505805969E-08  0.10566000000E+00  0.10566000000E+00 0.  1.
     999900   -1    0    0    0    0 -0.00000000000E+00 -0.00000000000E+00 -0.74505805969E-08  0.93827000000E+00  0.93827000000E+00 0. -1.
     999902    2    1    2    0    0  0.11161548439E-01  0.19588697982E-01  0.74036863025E-02  0.10202000227E+01  0.10199240043E+01 0.  0.
     999903    2    3    3    0    0  0.21977742873E-01 -0.12419661288E+00  0.14042366701E-01  0.12844037023E+00  0.19796989918E-01 0.  0.
         14    1    1    2    0    0 -0.11161548439E-01 -0.19588697982E-01 -0.74036863025E-02  0.23729977309E-01  0.00000000000E+00 0. -1.
     999901    1    3    3    0    0 -0.10816194434E-01  0.14378531086E+00 -0.66386803980E-02  0.89175965246E+00  0.88000000000E+00 0.  1.
        -11    1    4    4    0    0  0.17376145933E-01 -0.55602845251E-01  0.12964681340E-01  0.59682082159E-01  0.51100000000E-03 0.  1.
         11    1    4    4    0    0  0.46015969405E-02 -0.68593767627E-01  0.10776853601E-02  0.68758288071E-01  0.51100000000E-03 0. -1.
</event>
<event>
 8    1  0.1111182E+005  0.1043930E+01  0.7957747E-01            NaN
         13   -1    0    0    0    0  0.00000000000E+00  0.00000000000E+00  0.74505805969E-08  0.10566000000E+00  0.10566000000E+00 0. -1.
     999900   -1    0    0    0    0 -0.00000000000E+00 -0.00000000000E+00 -0.74505805969E-08  0.93827000000E+00  0.93827000000E+00 0.  1.
     999902    2    1    2    0    0 -0.11487714386E-01  0.58493707795E-02  0.20188381702E-01  0.10199768483E+01  0.10196955514E+01 0.  0.
     999903    2    3    3    0    0 -0.11180990983E+00  0.61511005543E-01 -0.22887810740E-01  0.13148468805E+00  0.21893185532E-01 0.  0.
         14    1    1    2    0    0  0.11487714386E-01 -0.58493707795E-02 -0.20188381702E-01  0.23953151694E-01  0.00000000000E+00 0.  1.
     999901    1    3    3    0    0  0.10032219544E+00 -0.55661634763E-01  0.43076192442E-01  0.88849216026E+00  0.88000000000E+00 0. -1.
        -11    1    4    4    0    0 -0.10253117277E+00  0.60344760583E-01 -0.25678903947E-01  0.12171194990E+00  0.51100000000E-03 0.  1.
         11    1    4    4    0    0 -0.92787370525E-02  0.11662449599E-02  0.27910932070E-02  0.97727381468E-02  0.51100000000E-03 0. -1.
</event>
<event>
 8    1  0.1111182E+005  0.1043930E+01  0.7957747E-01            NaN
         13   -1    0    0    0    0  0.00000000000E+00  0.00000000000E+00  0.74505805969E-08  0.10566000000E+00  0.10566000000E+00 0.  1.
     999900   -1    0    0    0    0 -0.00000000000E+00 -0.00000000000E+00 -0.74505805969E-08  0.93827000000E+00  0.93827000000E+00 0.  1.
     999902    2    1    2    0    0 -0.24028176713E-01  0.41545591974E-02 -0.12670150261E-02  0.10195124046E+01  0.10192199587E+01 0.  0.
     999903    2    3    3    0    0 -0.71673061780E-01 -0.25763933230E-01 -0.10536048024E+00  0.13159315108E+00  0.20374458904E-01 0.  0.
         14    1    1    2    0    0  0.24028176713E-01 -0.41545591974E-02  0.12670150261E-02  0.24417595405E-01  0.00000000000E+00 0. -1.
     999901    1    3    3    0    0  0.47644885067E-01  0.29918492427E-01  0.10409346521E+00  0.88791925351E+00  0.88000000000E+00 0. -1.
        -11    1    4    4    0    0 -0.29502123887E-01 -0.12569883116E-01 -0.61341438046E-01  0.69220014576E-01  0.51100000000E-03 0.  1.
         11    1    4    4    0    0 -0.42170937893E-01 -0.13194050114E-01 -0.44019042190E-01  0.62373136505E-01  0.51100000000E-03 0. -1.
</event>
<event>
 8    1  0.1111182E+005  0.1043930E+01  0.7957747E-01            NaN
         13   -1    0    0    0    0  0.00000000000E+00  0.00000000000E+00  0.74505805969E-08  0.10566000000E+00  0.10566000000E+00 0. -1.
     999900   -1    0    0    0    0 -0.00000000000E+00 -0.00000000000E+00 -0.74505805969E-08  0.93827000000E+00  0.93827000000E+00 0. -1.
     999902    2    1    2    0    0  0.12827884228E-01 -0.75118472433E-02 -0.19205924791E-01  0.10196431721E+01  0.10193538877E+01 0.  0.
     999903    2    3    3    0    0 -0.11351387751E-01 -0.93741764421E-01  0.85365342686E-01  0.12893817840E+00  0.20528996957E-01 0.  0.
         14    1    1    2    0    0 -0.12827884228E-01  0.75118472433E-02  0.19205924791E-01  0.24286827908E-01  0.00000000000E+00 0. -1.
     999901    1    3    3    0    0  0.24179271979E-01  0.86229917177E-01 -0.10457126748E+00  0.89070499369E+00  0.88000000000E+00 0. -1.
        -11    1    4    4    0    0 -0.88586269569E-03  0.24363870880E-03 -0.53618448996E-03  0.11801386966E-02  0.51100000000E-03 0. -1.
         11    1    4    4    0    0 -0.10465525056E-01 -0.93985403129E-01  0.85901527176E-01  0.12775803970E+00  0.51100000000E-03 0. -1.
</event>
<event>
 8    1  0.1111182E+005  0.1043930E+01  0.7957747E-01            NaN
         13   -1    0    0    0    0  0.00000000000E+00  0.00000000000E+00  0.74505805969E-08  0.10566000000E+00  0.10566000000E+00 0.  1.
     999900   -1    0    0    0    0 -0.00000000000E+00 -0.00000000000E+00 -0.74505805969E-08  0.93827000000E+00  0.93827000000E+00 0.  1.
     999902    2    1    2    0    0 -0.12595579259E-01 -0.18638591009E-01 -0.76300462657E-02  0.10201757731E+01  0.10198991836E+01 0.  0.
     999903    2    3    3    0    0  0.58934445976E-01 -0.84126459798E-02  0.11290921229E+00  0.12902436767E+00  0.18834959499E-01 0.  0.
         14    1    1    2    0    0  0.12595579259E-01  0.18638591009E-01  0.76300462657E-02  0.23754226943E-01  0.00000000000E+00 0. -1.
     999901    1    3    3    0    0 -0.71530025235E-01 -0.10225945029E-01 -0.12053925855E+00  0.89115140538E+00  0.88000000000E+00 0.  1.
        -11    1    4    4    0    0  0.58682736051E-01 -0.61646991008E-02  0.10171048936E+00  0.11758805973E+00  0.51100000000E-03 0. -1.
         11    1    4    4    0    0  0.25170992525E-03 -0.22479468790E-02  0.11198722929E-01  0.11436307940E-01  0.51100000000E-03 0.  1.
</event>
<event>
 8    1  0.1111182E+005  0.1043930E+01  0.7957747E-01            NaN
         13   -1    0    0    0    0  0.00000000000E+00  0.00000000000E+00  0.74505805969E-08  0.10566000000E+00  0.10566000000E+00 0. -1.
     999900   -1    0    0    0    0 -0.00000000000E+00 -0.00000000000E+00 -0.74505805969E-08  0.93827000000E+00  0.93827000000E+00 0.  1.
     999902    2    1    2    0    0 -0.50701703935E-02  0.80904934410E-02  0.21201622664E-01  0.10206776557E+01  0.10204127622E+01 0.  0.
     999903    2    3    3    0    0 -0.12621945477E+00  0.47810065483E-02  0.33641841331E-01  0.13228424012E+00  0.20325794210E-01 0.  0.
         14    1    1    2    0    0  0.50701703935E-02 -0.80904934410E-02 -0.21201622664E-01  0.23252344302E-01  0.00000000000E+00 0.  1.
     999901    1    3    3    0    0  0.12114928437E+00  0.33094868927E-02 -0.12440218667E-01  0.88839341558E+00  0.88000000000E+00 0. -1.
        -11    1    4    4    0    0 -0.60547888854E-01  0.25634431558E-02  0.56749823275E-02  0.60869406363E-01  0.51100000000E-03 0.  1.
         11    1    4    4    0    0 -0.65671565911E-01  0.22175633925E-02  0.27966859004E-01  0.71414833754E-01  0.51100000000E-03 0. -1.
</event>
<event>
 8    1  0.1111182E+005  0.1043930E+01  0.7957747E-01            NaN
         13   -1    0    0    0    0  0.00000000000E+00  0.00000000000E+00  0.74505805969E-08  0.10566000000E+00  0.10566000000E+00 0.  1.
     999900   -1    0    0    0    0 -0.00000000000E+00 -0.00000000000E+00 -0.74505805969E-08  0.93827000000E+00  0.93827000000E+00 0. -1.
     999902    2    1    2    0    0 -0.19522088458E-02  0.22954531962E-01 -0.20026935259E-02  0.10208057176E+01  0.10205437671E+01 0.  0.
     999903    2    3    3    0    0  0.64726121197E-01 -0.10541165381E-01 -0.11175328241E+00  0.13085450924E+00  0.18262516984E-01 0.  0.
         14    1    1    2    0    0  0.19522088458E-02 -0.22954531962E-01  0.20026935259E-02  0.23124282439E-01  0.00000000000E+00 0. -1.
     999901    1    3    3    0    0 -0.66678330042E-01  0.33495697342E-01  0.10975058888E+00  0.88995120832E+00  0.88000000000E+00 0.  1.
        -11    1    4    4    0    0  0.48178274277E-01 -0.15209131282E-01 -0.88854890919E-01  0.10221505050E+00  0.51100000000E-03 0.  1.
         11    1    4    4    0    0  0.16547846919E-01  0.46679659012E-02 -0.22898391487E-01  0.28639458741E-01  0.51100000000E-03 0. -1.
</event>
<event>
 8    1  0.1111182E+005  0.1043930E+01  0.7957747E-01            NaN
         13   -1    0    0    0    0  0.00000000000E+00  0.00000000000E+00  0.74505805969E-08  0.10566000000E+00  0.10566000000E+00 0.  1.
     999900   -1    0    0    0    0 -0.00000000000E+00 -0.00000000000E+00 -0.74505805969E-08  0.93827000000E+00  0.93827000000E+00 0.  1.
     999902    2    1    2    0    0 -0.24304216317E-02 -0.60098603395E-02  0.22374232976E-01  0.10206355442E+01  0.10203696793E+01 0.  0.
     999903    2    3    3    0    0  0.47657330028E-01 -0.53453757703E-01  0.11167356733E+00  0.13342977471E+00  0.14282640525E-01 0.  0.
         14    1    1    2    0    0  0.24304216317E-02  0.60098603395E-02 -0.22374232976E-01  0.23294455818E-01  0.00000000000E+00 0. -1.
     999901    1    3    3    0    0 -0.50087751660E-01  0.47443897363E-01 -0.89299334359E-01  0.88720576947E+00  0.88000000000E+00 0.  1.
        -11    1    4    4    0    0  0.34592296331E-01 -0.34270023933E-01  0.85893223753E-01  0.98736865017E-01  0.51100000000E-03 0. -1.
         11    1    4    4    0    0  0.13065033697E-01 -0.19183733769E-01  0.25780343582E-01  0.34692909695E-01  0.51100000000E-03 0.  1.
</event>
<event>
 7    1  0.1111182E+005  0.1043930E+01  0.7957747E-01            NaN
         13   -1    0    0    0    0  0.00000000000E+00  0.00000000000E+00  0.74505805969E-08  0.10566000000E+00  0.10566000000E+00 0. -1.
     999900   -1    0    0    0    0 -0.00000000000E+00 -0.00000000000E+00 -0.74505805969E-08  0.93827000000E+00  0.93827000000E+00 0.  1.
     999903    2    1    2    0    0  0.87278634570E-01 -0.37204776266E-01 -0.29089689021E-01  0.10081660815E+00  0.17777036942E-01 0.  0.
         14    1    1    2    0    0  0.19203409908E-01  0.51390941791E-01  0.13252294707E-01  0.56439553198E-01  0.00000000000E+00 0. -1.
     999901    1    1    2    0    0 -0.10648204448E+00 -0.14186165525E-01  0.15837394313E-01  0.88667383865E+00  0.88000000000E+00 0. -1.
        -11    1    3    3    0    0  0.71968572953E-01 -0.36606612356E-01 -0.20767363058E-01  0.83373041509E-01  0.51100000000E-03 0. -1.
         11    1    3    3    0    0  0.15310061617E-01 -0.59816390990E-03 -0.83223259627E-02  0.17443566642E-01  0.51100000000E-03 0.  1.
</event>
<event>
 8    1  0.1111182E+005  0.1043930E+01  0.7957747E-01            NaN
         13   -1    0    0    0    0  0.00000000000E+00  0.00000000000E+00  0.74505805969E-08  0.10566000000E+00  0.10566000000E+00 0. -1.
     999900   -1    0    0    0    0 -0.00000000000E+00 -0.00000000000E+00 -0.74505805969E-08  0.93827000000E+00  0.93827000000E+00 0.  1.
     999902    2    1    2    0    0  0.10856767518E-01  0.20946201217E-01  0.23965021896E-02  0.10202159542E+01  0.10199403106E+01 0.  0.
     999903    2    3    3    0    0  0.77480361975E-02 -0.11567697830E+00 -0.50714626944E-01  0.12808572298E+00  0.19818770639E-01 0.  0.
         14    1    1    2    0    0 -0.10856767518E-01 -0.20946201217E-01 -0.23965021896E-02  0.23714045819E-01  0.00000000000E+00 0.  1.
     999901    1    3    3    0    0  0.31087313201E-02  0.13662317952E+00  0.53111129134E-01  0.89213023121E+00  0.88000000000E+00 0.  1.
        -11    1    4    4    0    0 -0.38415352349E-02 -0.39187868034E-01 -0.24608872788E-01  0.46436021954E-01  0.51100000000E-03 0.  1.
         11    1    4    4    0    0  0.11589571432E-01 -0.76489110270E-01 -0.26105754157E-01  0.81649701022E-01  0.51100000000E-03 0. -1.
</event>
<event>
 8    1  0.1111182E+005  0.1043930E+01  0.7957747E-01            NaN
         13   -1    0    0    0    0  0.00000000000E+00  0.00000000000E+00  0.74505805969E-08  0.10566000000E+00  0.10566000000E+00 0. -1.
     999900   -1    0    0    0    0 -0.00000000000E+00 -0.00000000000E+00 -0.74505805969E-08  0.93827000000E+00  0.93827000000E+00 0.  1.
     999902    2    1    2    0    0 -0.90453339979E-02  0.15459854068E-03 -0.22095584915E-01  0.10200541369E+01  0.10197746738E+01 0.  0.
     999903    2    3    3    0    0 -0.90385474691E-01  0.78138957127E-01 -0.53379455958E-01  0.13231743082E+00  0.19578189999E-01 0.  0.
         14    1    1    2    0    0  0.90453339979E-02 -0.15459854068E-03  0.22095584915E-01  0.23875863138E-01  0.00000000000E+00 0. -1.
     999901    1    3    3    0    0  0.81340140694E-01 -0.77984358586E-01  0.31283871043E-01  0.88773670604E+00  0.88000000000E+00 0. -1.
        -11    1    4    4    0    0 -0.23055446911E-01  0.28421699778E-01 -0.23252146648E-01  0.43362081307E-01  0.51100000000E-03 0. -1.
         11    1    4    4    0    0 -0.67330027780E-01  0.49717257349E-01 -0.30127309310E-01  0.88955349510E-01  0.51100000000E-03 0.  1.
</event>
<event>
 8    1  0.1111182E+005  0.1043930E+01  0.7957747E-01            NaN
         13   -1    0    0    0    0  0.00000000000E+00  0.00000000000E+00  0.74505805969E-08  0.10566000000E+00  0.10566000000E+00 0.  1.
     999900   -1    0    0    0    0 -0.00000000000E+00 -0.00000000000E+00 -0.74505805969E-08  0.93827000000E+00  0.93827000000E+00 0. -1.
     999902    2    1    2    0    0 -0.15127008066E-01 -0.60168338988E-02 -0.15359411486E-01  0.10215483069E+01  0.10213030908E+01 0.  0.
     999903    2    3    3    0    0 -0.61209029793E-01 -0.56297249114E-01  0.99778514240E-01  0.13143122766E+00  0.20062156264E-01 0.  0.
         14    1    1    2    0    0  0.15127008066E-01  0.60168338988E-02  0.15359411486E-01  0.22381693064E-01  0.00000000000E+00 0.  1.
     999901    1    3    3    0    0  0.46082021727E-01  0.50280415216E-01 -0.11513792573E+00  0.89011707928E+00  0.88000000000E+00 0. -1.
        -11    1    4    4    0    0 -0.44673437202E-01 -0.50665589453E-01  0.73035068597E-01  0.99484171163E-01  0.51100000000E-03 0. -1.
         11    1    4    4    0    0 -0.16535592592E-01 -0.56316596609E-02  0.26743445643E-01  0.31947056496E-01  0.51100000000E-03 0.  1.
</event>
<event>
 8    1  0.1111182E+005  0.1043930E+01  0.7957747E-01            NaN
         13   -1    0    0    0    0  0.00000000000E+00  0.00000000000E+00  0.74505805969E-08  0.10566000000E+00  0.10566000000E+00 0.  1.
     999900   -1    0    0    0    0 -0.00000000000E+00 -0.00000000000E+00 -0.74505805969E-08  0.93827000000E+00  0.93827000000E+00 0. -1.
     999902    2    1    2    0    0 -0.18436547077E-01 -0.12956972426E-01  0.10373867949E-01  0.10191226112E+01  0.10188206369E+01 0.  0.
     999903    2    3    3    0    0 -0.41141559792E-01  0.11967995796E+00 -0.10569084212E-01  0.12864707524E+00  0.20553446142E-01 0.  0.
         14    1    1    2    0    0  0.18436547077E-01  0.12956972426E-01 -0.10373867949E-01  0.24807388795E-01  0.00000000000E+00 0. -1.
     999901    1    3    3    0    0  0.22705012715E-01 -0.13263693038E+00  0.20942952161E-01  0.89047553596E+00  0.88000000000E+00 0.  1.
        -11    1    4    4    0    0 -0.41113876591E-01  0.98848379612E-01 -0.54924429490E-02  0.10719972505E+00  0.51100000000E-03 0. -1.
         11    1    4    4    0    0 -0.27683201086E-04  0.20831578346E-01 -0.50766412634E-02  0.21447350192E-01  0.51100000000E-03 0.  1.
</event>
<event>
 8    1  0.1111182E+005  0.1043930E+01  0.7957747E-01            NaN
         13   -1    0    0    0    0  0.00000000000E+00  0.00000000000E+00  0.74505805969E-08  0.10566000000E+00  0.10566000000E+00 0.  1.
     999900   -1    0    0    0    0 -0.00000000000E+00 -0.00000000000E+00 -0.74505805969E-08  0.93827000000E+00  0.93827000000E+00 0. -1.
     999902    2    1    2    0    0  0.17494588328E-01  0.23005518234E-02 -0.16491868880E-01  0.10197776730E+01  0.10194916221E+01 0.  0.
     999903    2    3    3    0    0 -0.25648521742E-01 -0.93847684313E-01 -0.85106912181E-01  0.13083794760E+00  0.20252098978E-01 0.  0.
         14    1    1    2    0    0 -0.17494588328E-01 -0.23005518234E-02  0.16491868880E-01  0.24152326981E-01  0.00000000000E+00 0.  1.
     999901    1    3    3    0    0  0.43143110070E-01  0.96148236136E-01  0.68615043301E-01  0.88893972542E+00  0.88000000000E+00 0. -1.
        -11    1    4    4    0    0  0.32646059329E-02 -0.55235250693E-02 -0.56535776692E-02  0.85668572155E-02  0.51100000000E-03 0.  1.
         11    1    4    4    0    0 -0.28913127675E-01 -0.88324159243E-01 -0.79453334512E-01  0.12227109039E+00  0.51100000000E-03 0. -1.
</event>
<event>
 8    1  0.1111182E+005  0.1043930E+01  0.7957747E-01            NaN
         13   -1    0    0    0    0  0.00000000000E+00  0.00000000000E+00  0.74505805969E-08  0.10566000000E+00  0.10566000000E+00 0.  1.
     999900   -1    0    0    0    0 -0.00000000000E+00 -0.00000000000E+00 -0.74505805969E-08  0.93827000000E+00  0.93827000000E+00 0. -1.
     999902    2    1    2    0    0 -0.24139297712E-02  0.17914068584E-01  0.14954973550E-01  0.10204695622E+01  0.10201998506E+01 0.  0.
     999903    2    3    3    0    0  0.79688420857E-01  0.16868002692E-01  0.10197582370E+00  0.13237355462E+00  0.22111431658E-01 0.  0.
         14    1    1    2    0    0  0.24139297712E-02 -0.17914068584E-01 -0.14954973550E-01  0.23460437848E-01  0.00000000000E+00 0.  1.
     999901    1    3    3    0    0 -0.82102350628E-01  0.10460658915E-02 -0.87020850151E-01  0.88809600753E+00  0.88000000000E+00 0. -1.
        -11    1    4    4    0    0  0.95604949590E-02  0.95161282701E-02  0.21382999620E-01  0.25287418905E-01  0.51100000000E-03 0. -1.
         11    1    4    4    0    0  0.70127925898E-01  0.73518744224E-02  0.80592824080E-01  0.10708613572E+00  0.51100000000E-03 0.  1.
</event>
<event>
 8    1  0.1111182E+005  0.1043930E+01  0.7957747E-01            NaN
         13   -1    0    0    0    0  0.00000000000E+00  0.00000000000E+00  0.74505805969E-08  0.10566000000E+00  0.10566000000E+00 0. -1.
     999900   -1    0    0    0    0 -0.00000000000E+00 -0.00000000000E+00 -0.74505805969E-08  0.93827000000E+00  0.93827000000E+00 0.  1.
     999902    2    1    2    0    0 -0.42447273464E-02  0.22935913165E-01  0.63211891205E-02  0.10197632614E+01  0.10194768649E+01 0.  0.
     999903    2    3    3    0    0 -0.11160813554E+00 -0.24024530420E-02 -0.63803609676E-01  0.13010803513E+00  0.19875927597E-01 0.  0.
         14    1    1    2    0    0  0.42447273464E-02 -0.22935913165E-01 -0.63211891205E-02  0.24166738606E-01  0.00000000000E+00 0.  1.
     999901    1    3    3    0    0  0.10736340819E+00  0.25338366207E-01  0.70124798797E-01  0.88965522627E+00  0.88000000000E+00 0. -1.
        -11    1    4    4    0    0 -0.91395320570E-01 -0.41797905882E-02 -0.60125600559E-01  0.10948024587E+00  0.51100000000E-03 0. -1.
         11    1    4    4    0    0 -0.20212814967E-01  0.17773375462E-02 -0.36780091175E-02  0.20627789259E-01  0.51100000000E-03 0.  1.
</event>
<event>
 8    1  0.1111182E+005  0.1043930E+01  0.7957747E-01            NaN
         13   -1    0    0    0    0  0.00000000000E+00  0.00000000000E+00  0.74505805969E-08  0.10566000000E+00  0.10566000000E+00 0.  1.
     999900   -1    0    0    0    0 -0.00000000000E+00 -0.00000000000E+00 -0.74505805969E-08  0.93827000000E+00  0.93827000000E+00 0. -1.
     999902    2    1    2    0    0 -0.88306124827E-02 -0.20904470673E-01 -0.45122415338E-02  0.10207926507E+01  0.10205304007E+01 0.  0.
     999903    2    3    3    0    0  0.11963957214E+00  0.17806867336E-01 -0.42840374314E-01  0.12979758794E+00  0.19529577976E-01 0.  0.
         14    1    1    2    0    0  0.88306124827E-02  0.20904470673E-01  0.45122415338E-02  0.23137349342E-01  0.00000000000E+00 0. -1.
     999901    1    3    3    0    0 -0.12847018463E+00 -0.38711338009E-01  0.38328132780E-01  0.89099506272E+00  0.88000000000E+00 0.  1.
        -11    1    4    4    0    0  0.82421603367E-01  0.14361839268E-01 -0.38720485670E-01  0.92190673391E-01  0.51100000000E-03 0.  1.
         11    1    4    4    0    0  0.37217968777E-01  0.34450280675E-02 -0.41198886438E-02  0.37606914547E-01  0.51100000000E-03 0. -1.
</event>
<event>
 8    1  0.1111182E+005  0.1043930E+01  0.7957747E-01            NaN
         13   -1    0    0    0    0  0.00000000000E+00  0.00000000000E+00  0.74505805969E-08  0.10566000000E+00  0.10566000000E+00 0.  1.
     999900   -1    0    0    0    0 -0.00000000000E+00 -0.00000000000E+00 -0.74505805969E-08  0.93827000000E+00  0.93827000000E+00 0.  1.
     999902    2    1    2    0    0  0.13981231218E-01 -0.10099198754E-01  0.13588893395E-01  0.10219726171E+01  0.10217367094E+01 0.  0.
     999903    2    3    3    0    0  0.35599005545E-02 -0.22553402429E-02  0.13236138985E+00  0.13389771247E+00  0.19781315160E-01 0.  0.
         14    1    1    2    0    0 -0.13981231218E-01  0.10099198754E-01 -0.13588893395E-01  0.21957382939E-01  0.00000000000E+00 0. -1.
     999901    1    3    3    0    0  0.10421330664E-01 -0.78438585112E-02 -0.11877249646E+00  0.88807490459E+00  0.88000000000E+00 0.  1.
        -11    1    4    4    0    0  0.41301842241E-02 -0.98012486761E-02  0.46576589566E-01  0.47778266126E-01  0.51100000000E-03 0.  1.
         11    1    4    4    0    0 -0.57028366963E-03  0.75459084332E-02  0.85784800286E-01  0.86119446344E-01  0.51100000000E-03 0. -1.
</event>
<event>
 8    1  0.1111182E+005  0.1043930E+01  0.7957747E-01            NaN
         13   -1    0    0    0    0  0.00000000000E+00  0.00000000000E+00  0.74505805969E-08  0.10566000000E+00  0.10566000000E+00 0. -1.
     999900   -1    0    0    0    0 -0.00000000000E+00 -0.00000000000E+00 -0.74505805969E-08  0.93827000000E+00  0.93827000000E+00 0. -1.
     999902    2    1    2    0    0  0.17172588523E-01  0.38847698758E-02  0.17020466217E-01  0.10194415230E+01  0.10191473561E+01 0.  0.
     999903    2    3    3    0    0  0.31276903305E-01  0.11998109136E+00  0.38819890800E-01  0.13143673563E+00  0.19872709607E-01 0.  0.
         14    1    1    2    0    0 -0.17172588523E-01 -0.38847698758E-02 -0.17020466217E-01  0.24488476960E-01  0.00000000000E+00 0.  1.
     999901    1    3    3    0    0 -0.14104314782E-01 -0.11609632148E+00 -0.21799424583E-01  0.88800478741E+00  0.88000000000E+00 0. -1.
        -11    1    4    4    0    0  0.17724967723E-01  0.98721688316E-01  0.29451879763E-01  0.10453621653E+00  0.51100000000E-03 0.  1.
         11    1    4    4    0    0  0.13551935582E-01  0.21259403040E-01  0.93680110372E-02  0.26900519093E-01  0.51100000000E-03 0. -1.
</event>
<event>
 8    1  0.1111182E+005  0.1043930E+01  0.7957747E-01            NaN
         13   -1    0    0    0    0  0.00000000000E+00  0.00000000000E+00  0.74505805969E-08  0.10566000000E+00  0.10566000000E+00 0.  1.
     999900   -1    0    0    0    0 -0.00000000000E+00 -0.00000000000E+00 -0.74505805969E-08  0.93827000000E+00  0.93827000000E+00 0. -1.
     999902    2    1    2    0    0  0.16535130911E-01 -0.15242713575E-01 -0.69742797670E-02  0.10203844813E+01  0.10201127870E+01 0.  0.
     999903    2    3    3    0    0  0.15142134166E-01 -0.20881178504E-02 -0.12914406337E+00  0.13184610857E+00  0.21715496253E-01 0.  0.
         14    1    1    2    0    0 -0.16535130911E-01  0.15242713575E-01  0.69742797670E-02  0.23545518674E-01  0.00000000000E+00 0. -1.
     999901    1    3    3    0    0  0.13929967449E-02 -0.13154595724E-01  0.12216978361E+00  0.88853837275E+00  0.88000000000E+00 0.  1.
        -11    1    4    4    0    0  0.51950080741E-02 -0.76981427727E-02 -0.19466483634E-01  0.21574397259E-01  0.51100000000E-03 0.  1.
         11    1    4    4    0    0  0.99471260916E-02  0.56100249222E-02 -0.10967757974E+00  0.11027171131E+00  0.51100000000E-03 0. -1.
</event>
<event>
 8    1  0.1111182E+005  0.1043930E+01  0.7957747E-01            NaN
         13   -1    0    0    0    0  0.00000000000E+00  0.00000000000E+00  0.74505805969E-08  0.10566000000E+00  0.10566000000E+00 0. -1.
     999900   -1    0    0    0    0 -0.00000000000E+00 -0.00000000000E+00 -0.74505805969E-08  0.93827000000E+00  0.93827000000E+00 0.  1.
     999902    2    1    2    0    0  0.15645502990E-01  0.18716251484E-02 -0.16932256589E-01  0.10208002344E+01  0.10205381583E+01 0.  0.
     999903    2    3    3    0    0 -0.10890372779E+00 -0.65666028229E-01 -0.14513624822E-01  0.12946432952E+00  0.19450401615E-01 0.  0.
         14    1    1    2    0    0 -0.15645502990E-01 -0.18716251484E-02  0.16932256589E-01  0.23129765621E-01  0.00000000000E+00 0.  1.
     999901    1    3    3    0    0  0.12454923078E+00  0.67537653377E-01 -0.24186317668E-02  0.89133590486E+00  0.88000000000E+00 0.  1.
        -11    1    4    4    0    0 -0.21102878437E-01 -0.45739837129E-02 -0.69067588345E-03  0.21609973612E-01  0.51100000000E-03 0. -1.
         11    1    4    4    0    0 -0.87800849351E-01 -0.61092044516E-01 -0.13822948939E-01  0.10785435591E+00  0.51100000000E-03 0.  1.
</event>
<event>
 8    1  0.1111182E+005  0.1043930E+01  0.7957747E-01            NaN
         13   -1    0    0    0    0  0.00000000000E+00  0.00000000000E+00  0.74505805969E-08  0.10566000000E+00  0.10566000000E+00 0. -1.
     999900   -1    0    0    0    0 -0.00000000000E+00 -0.00000000000E+00 -0.74505805969E-08  0.93827000000E+00  0.93827000000E+00 0.  1.
     999902    2    1    2    0    0  0.32980615297E-02 -0.30761285796E-02 -0.21423923191E-01  0.10220365247E+01  0.10218020031E+01 0.  0.
     999903    2    3    3    0    0 -0.99392615777E-01 -0.81923472362E-01 -0.23868476471E-01  0.13256013113E+00  0.20301152737E-01 0.  0.
         14    1    1    2    0    0 -0.32980615297E-02  0.30761285796E-02  0.21423923191E-01  0.21893475324E-01  0.00000000000E+00 0. -1.
     999901    1    3    3    0    0  0.10269067731E+00  0.78847343782E-01  0.24445532805E-02  0.88947639354E+00  0.88000000000E+00 0. -1.
        -11    1    4    4    0    0 -0.35034051690E-01 -0.20410811669E-01 -0.65367357302E-03  0.40554585695E-01  0.51100000000E-03 0.  1.
         11    1    4    4    0    0 -0.64358564087E-01 -0.61512660693E-01 -0.23214802898E-01  0.92005545439E-01  0.51100000000E-03 0. -1.
</event>
<event>
 8    1  0.1111182E+005  0.1043930E+01  0.7957747E-01            NaN
         13   -1    0    0    0    0  0.00000000000E+00  0.00000000000E+00  0.74505805969E-08  0.10566000000E+00  0.10566000000E+00 0.  1.
     999900   -1    0    0    0    0 -0.00000000000E+00 -0.00000000000E+00 -0.74505805969E-08  0.93827000000E+00  0.93827000000E+00 0.  1.
     999902    2    1    2    0    0 -0.22706376745E-01  0.12243573416E-02  0.61437639910E-02  0.10203752885E+01  0.10201033796E+01 0.  0.
     999903    2    3    3    0    0 -0.35715117044E-01  0.97590334089E-01  0.78853938662E-01  0.13203841646E+00  0.20414624330E-01 0.  0.
         14    1    1    2    0    0  0.22706376745E-01 -0.12243573416E-02 -0.61437639910E-02  0.23554711456E-01  0.00000000000E+00 0. -1.
     999901    1    3    3    0    0  0.13008740299E-01 -0.96365976747E-01 -0.72710174671E-01  0.88833687208E+00  0.88000000000E+00 0. -1.
        -11    1    4    4    0    0 -0.18381987312E-01  0.27095860949E-01  0.30974917626E-01  0.45075378878E-01  0.51100000000E-03 0. -1.
         11    1    4    4    0    0 -0.17333129732E-01  0.70494473140E-01  0.47879021037E-01  0.86963037585E-01  0.51100000000E-03 0.  1.
</event>
<event>
 8    1  0.1111182E+005  0.1043930E+01  0.7957747E-01            NaN
         13   -1    0    0    0    0  0.00000000000E+00  0.00000000000E+00  0.74505805969E-08  0.10566000000E+00  0.10566000000E+00 0. -1.
     999900   -1    0    0    0    0 -0.00000000000E+00 -0.00000000000E+00 -0.74505805969E-08  0.93827000000E+00  0.93827000000E+00 0.  1.
     999902    2    1    2    0    0  0.13690484823E-01  0.10762784039E-01 -0.94507395576E-02  0.10241162832E+01  0.10239245959E+01 0.  0.
     999903    2    3    3    0    0  0.30020059918E-01 -0.11931810822E+00 -0.48237574029E-01  0.13355909129E+00  0.19317152229E-01 0.  0.
         14    1    1    2    0    0 -0.13690484823E-01 -0.10762784039E-01  0.94507395576E-02  0.19813716793E-01  0.00000000000E+00 0. -1.
     999901    1    3    3    0    0 -0.16329575094E-01  0.13008089226E+00  0.38786834472E-01  0.89055719192E+00  0.88000000000E+00 0. -1.
        -11    1    4    4    0    0  0.67937235688E-02 -0.49074909508E-01 -0.27758779910E-01  0.56791833975E-01  0.51100000000E-03 0. -1.
         11    1    4    4    0    0  0.23226336349E-01 -0.70243198712E-01 -0.20478794120E-01  0.76767257311E-01  0.51100000000E-03 0.  1.
</event>
<event>
 8    1  0.1111182E+005  0.1043930E+01  0.7957747E-01            NaN
         13   -1    0    0    0    0  0.00000000000E+00  0.00000000000E+00  0.74505805969E-08  0.10566000000E+00  0.10566000000E+00 0. -1.
     999900   -1    0    0    0    0 -0.00000000000E+00 -0.00000000000E+00 -0.74505805969E-08  0.93827000000E+00  0.93827000000E+00 0.  1.
     999902    2    1    2    0    0  0.47051485625E-02  0.24861980010E-02  0.23093985952E-01  0.10202308061E+01  0.10199555118E+01 0.  0.
     999903    2    3    3    0    0 -0.93073638464E-01 -0.37174762361E-01  0.83238506355E-01  0.13188906652E+00  0.20528316907E-01 0.  0.
         14    1    1    2    0    0 -0.47051485625E-02 -0.24861980010E-02 -0.23093985952E-01  0.23699193882E-01  0.00000000000E+00 0.  1.
     999901    1    3    3    0    0  0.97778787027E-01  0.39660960362E-01 -0.60144520403E-01  0.88834173959E+00  0.88000000000E+00 0.  1.
        -11    1    4    4    0    0 -0.56979668351E-01 -0.12889805591E-01  0.53252503448E-01  0.79050110298E-01  0.51100000000E-03 0.  1.
         11    1    4    4    0    0 -0.36093970113E-01 -0.24284956770E-01  0.29986002907E-01  0.52838956227E-01  0.51100000000E-03 0. -1.
</event>
<event>
 8    1  0.1111182E+005  0.1043930E+01  0.7957747E-01            NaN
         13   -1    0    0    0    0  0.00000000000E+00  0.00000000000E+00  0.74505805969E-08  0.10566000000E+00  0.10566000000E+00 0. -1.
     999900   -1    0    0    0    0 -0.00000000000E+00 -0.00000000000E+00 -0.74505805969E-08  0.93827000000E+00  0.93827000000E+00 0. -1.
     999902    2    1    2    0    0 -0.16610632859E-01 -0.77781915452E-02  0.11774066816E-01  0.10221345409E+01  0.10219021370E+01 0.  0.
     999903    2    3    3    0    0 -0.12787536954E-01 -0.12917514423E+00  0.25094042637E-01  0.13369250119E+00  0.19855349674E-01 0.  0.
         14    1    1    2    0    0  0.16610632859E-01  0.77781915452E-02 -0.11774066816E-01  0.21795459093E-01  0.00000000000E+00 0.  1.
     999901    1    3    3    0    0 -0.38230959052E-02  0.12139695268E+00 -0.13319975821E-01  0.88844203972E+00  0.88000000000E+00 0. -1.
        -11    1    4    4    0    0 -0.72118068605E-04 -0.92332693841E-01  0.17176599366E-01  0.93918199726E-01  0.51100000000E-03 0.  1.
         11    1    4    4    0    0 -0.12715418886E-01 -0.36842450386E-01  0.79174432712E-02  0.39774301463E-01  0.51100000000E-03 0. -1.
</event>
<event>
 7    1  0.1111182E+005  0.1043930E+01  0.7957747E-01            NaN
         13   -1    0    0    0    0  0.00000000000E+00  0.00000000000E+00  0.74505805969E-08  0.10566000000E+00  0.10566000000E+00 0. -1.
     999900   -1    0    0    0    0 -0.00000000000E+00 -0.00000000000E+00 -0.74505805969E-08  0.93827000000E+00  0.93827000000E+00 0. -1.
     999902    2    1    2    0    0  0.10102251578E-01  0.87104595403E-02 -0.20468916784E-01  0.10194983781E+01  0.10192055921E+01 0.  0.
         14    1    1    2    0    0 -0.10102251578E-01 -0.87104595403E-02  0.20468916784E-01  0.24431621859E-01  0.00000000000E+00 0. -1.
     999901    1    3    3    0    0  0.95522356287E-01  0.43189635278E-01  0.49720919972E-01  0.88761592766E+00  0.88000000000E+00 0.  1.
        -11    1    3    3    0    0 -0.37961328620E-02  0.12957363350E-01 -0.22170945584E-01  0.25963740847E-01  0.51100000000E-03 0.  1.
         11    1    3    3    0    0 -0.81623971848E-01 -0.47436539088E-01 -0.48018891172E-01  0.10591870964E+00  0.51100000000E-03 0. -1.
</event>
<event>
 8    1  0.1111182E+005  0.1043930E+01  0.7957747E-01            NaN
         13   -1    0    0    0    0  0.00000000000E+00  0.00000000000E+00  0.74505805969E-08  0.10566000000E+00  0.10566000000E+00 0. -1.
     999900   -1    0    0    0    0 -0.00000000000E+00 -0.00000000000E+00 -0.74505805969E-08  0.93827000000E+00  0.93827000000E+00 0.  1.
     999902    2    1    2    0    0  0.93596944648E-02 -0.17565864431E-01  0.11636537304E-01  0.10208741445E+01  0.10206137596E+01 0.  0.
     999903    2    3    3    0    0  0.23105272395E-01 -0.75257901440E-01  0.10629877761E+00  0.13381256161E+00  0.20217966832E-01 0.  0.
         14    1    1    2    0    0 -0.93596944648E-02  0.17565864431E-01 -0.11636537304E-01  0.23055855528E-01  0.00000000000E+00 0. -1.
     999901    1    3    3    0    0 -0.13745577930E-01  0.57692037009E-01 -0.94662240304E-01  0.88706158286E+00  0.88000000000E+00 0.  1.
        -11    1    4    4    0    0  0.24748946565E-02 -0.20816074228E-01  0.16020880913E-01  0.26388705843E-01  0.51100000000E-03 0. -1.
         11    1    4    4    0    0  0.20630377738E-01 -0.54441827212E-01  0.90277896695E-01  0.10742385577E+00  0.51100000000E-03 0.  1.
</event>
<event>
 8    1  0.1111182E+005  0.1043930E+01  0.7957747E-01            NaN
         13   -1    0    0    0    0  0.00000000000E+00  0.00000000000E+00  0.74505805969E-08  0.10566000000E+00  0.10566000000E+00 0.  1.
     999900   -1    0    0    0    0 -0.00000000000E+00 -0.00000000000E+00 -0.74505805969E-08  0.93827000000E+00  0.93827000000E+00 0.  1.
     999902    2    1    2    0    0  0.15137654138E-01 -0.66946125459E-02 -0.16745723719E-01  0.10203846040E+01  0.10201129126E+01 0.  0.
     999903    2    3    3    0    0 -0.44951708631E-01  0.45452567632E-01 -0.11293118204E+00  0.13157545558E+00  0.21726864061E-01 0.  0.
         14    1    1    2    0    0 -0.15137654138E-01  0.66946125459E-02  0.16745723719E-01  0.23545396000E-01  0.00000000000E+00 0.  1.
     999901    1    3    3    0    0  0.60089362769E-01 -0.52147180178E-01  0.96185458320E-01  0.88880914842E+00  0.88000000000E+00 0. -1.
        -11    1    4    4    0    0 -0.31899780288E-03  0.60823212741E-02 -0.22503074298E-01  0.23318358981E-01  0.51100000000E-03 0.  1.
         11    1    4    4    0    0 -0.44632710828E-01  0.39370246358E-01 -0.90428107740E-01  0.10825709660E+00  0.51100000000E-03 0. -1.
</event>
<event>
 8    1  0.1111182E+005  0.1043930E+01  0.7957747E-01            NaN
         13   -1    0    0    0    0  0.00000000000E+00  0.00000000000E+00  0.74505805969E-08  0.10566000000E+00  0.10566000000E+00 0. -1.
     999900   -1    0    0    0    0 -0.00000000000E+00 -0.00000000000E+00 -0.74505805969E-08  0.93827000000E+00  0.93827000000E+00 0. -1.
     999902    2    1    2    0    0 -0.61293345154E-02 -0.70691783232E-02 -0.23557597448E-01  0.10185823685E+01  0.10182669292E+01 0.  0.
     999903    2    3    3    0    0 -0.60561657531E-01  0.62811156748E-01  0.89944997403E-01  0.12688231915E+00  0.19901371325E-01 0.  0.
         14    1    1    2    0    0  0.61293345154E-02  0.70691783232E-02  0.23557597448E-01  0.25347631473E-01  0.00000000000E+00 0. -1.
     999901    1    3    3    0    0  0.54432323015E-01 -0.69880335071E-01 -0.11350259485E+00  0.89170004938E+00  0.88000000000E+00 0. -1.
        -11    1    4    4    0    0 -0.43303803653E-01  0.33334783897E-01  0.62799574603E-01  0.83249473990E-01  0.51100000000E-03 0.  1.
         11    1    4    4    0    0 -0.17257853877E-01  0.29476372851E-01  0.27145422799E-01  0.43632845161E-01  0.51100000000E-03 0. -1.
</event>
<event>
 8    1  0.1111182E+005  0.1043930E+01  0.7957747E-01            NaN
         13   -1    0    0    0    0  0.00000000000E+00  0.00000000000E+00  0.74505805969E-08  0.10566000000E+00  0.10566000000E+00 0.  1.
     999900   -1    0    0    0    0 -0.00000000000E+00 -0.00000000000E+00 -0.74505805969E-08  0.93827000000E+00  0.93827000000E+00 0.  1.
     999902    2    1    2    0    0 -0.99753508101E-02 -0.20457464494E-01 -0.37676153680E-02  0.10208603142E+01  0.10205996133E+01 0.  0.
     999903    2    3    3    0    0 -0.99993033958E-01  0.74832546450E-01  0.32090382464E-01  0.13042830362E+00  0.19576334928E-01 0.  0.
         14    1    1    2    0    0  0.99753508101E-02  0.20457464494E-01  0.37676153680E-02  0.23069685799E-01  0.00000000000E+00 0.  1.
     999901    1    3    3    0    0  0.90017683148E-01 -0.95290010944E-01 -0.35857997831E-01  0.89043201058E+00  0.88000000000E+00 0.  1.
        -11    1    4    4    0    0 -0.51543029634E-01  0.26506066070E-01  0.13441188311E-01  0.59499429465E-01  0.51100000000E-03 0.  1.
         11    1    4    4    0    0 -0.48450004324E-01  0.48326480380E-01  0.18649194153E-01  0.70928874152E-01  0.51100000000E-03 0. -1.
</event>
<event>
 8    1  0.1111182E+005  0.1043930E+01  0.7957747E-01            NaN
         13   -1    0    0    0    0  0.00000000000E+00  0.00000000000E+00  0.74505805969E-08  0.10566000000E+00  0.10566000000E+00 0.  1.
     999900   -1    0    0    0    0 -0.00000000000E+00 -0.00000000000E+00 -0.74505805969E-08  0.93827000000E+00  0.93827000000E+00 0.  1.
     999902    2    1    2    0    0  0.17684122501E-01  0.14904701567E-01 -0.43414538334E-02  0.10203986053E+01  0.10201272406E+01 0.  0.
     999903    2    3    3    0    0  0.16196683035E-01  0.26232634405E-01 -0.12686869003E+00  0.13183602549E+00  0.18291786611E-01 0.  0.
         14    1    1    2    0    0 -0.17684122501E-01 -0.14904701567E-01  0.43414538334E-02  0.23531394749E-01  0.00000000000E+00 0.  1.
     999901    1    3    3    0    0  0.14874394660E-02 -0.11327932838E-01  0.12252723620E+00  0.88856257976E+00  0.88000000000E+00 0. -1.
        -11    1    4    4    0    0 -0.16346873972E-02  0.38013188624E-02 -0.43081657655E-01  0.43282936306E-01  0.51100000000E-03 0.  1.
         11    1    4    4    0    0  0.17831370432E-01  0.22431315543E-01 -0.83787032379E-01  0.88553089186E-01  0.51100000000E-03 0. -1.
</event>
<event>
 8    1  0.1111182E+005  0.1043930E+01  0.7957747E-01            NaN
         13   -1    0    0    0    0  0.00000000000E+00  0.00000000000E+00  0.74505805969E-08  0.10566000000E+00  0.10566000000E+00 0. -1.
     999900   -1    0    0    0    0 -0.00000000000E+00 -0.00000000000E+00 -0.74505805969E-08  0.93827000000E+00  0.93827000000E+00 0. -1.
     999902    2    1    2    0    0  0.20671871560E-02  0.23398652640E-01 -0.14469716298E-02  0.10203956860E+01  0.10201242533E+01 0.  0.
     999903    2    3    3    0    0 -0.10817735473E+00 -0.61571538652E-01 -0.28442574170E-01  0.12904695797E+00  0.18728130875E-01 0.  0.
         14    1    1    2    0    0 -0.20671871560E-02 -0.23398652640E-01  0.14469716298E-02  0.23534313990E-01  0.00000000000E+00 0.  1.
     999901    1    3    3    0    0  0.11024454189E+00  0.84970191292E-01  0.26995602540E-01  0.89134872804E+00  0.88000000000E+00 0. -1.
        -11    1    4    4    0    0 -0.21785544525E-01 -0.83053242476E-02 -0.12008387511E-01  0.26230723450E-01  0.51100000000E-03 0. -1.
         11    1    4    4    0    0 -0.86391810210E-01 -0.53266214404E-01 -0.16434186658E-01  0.10281623452E+00  0.51100000000E-03 0.  1.
</event>
<event>
 8    1  0.1111182E+005  0.1043930E+01  0.7957747E-01            NaN
         13   -1    0    0    0    0  0.00000000000E+00  0.00000000000E+00  0.74505805969E-08  0.10566000000E+00  0.10566000000E+00 0. -1.
     999900   -1    0    0    0    0 -0.00000000000E+00 -0.00000000000E+00 -0.74505805969E-08  0.93827000000E+00  0.93827000000E+00 0.  1.
     999902    2    1    2    0    0 -0.11504480684E-01 -0.19766180768E-01  0.46239889260E-02  0.10205968422E+01  0.10203300829E+01 0.  0.
     999903    2    3    3    0    0  0.83367571489E-01  0.48089317661E-02  0.97994250549E-01  0.13024710859E+00  0.19701734802E-01 0.  0.
         14    1    1    2    0    0  0.11504480684E-01  0.19766180768E-01 -0.46239889260E-02  0.23333157771E-01  0.00000000000E+00 0. -1.
     999901    1    3    3    0    0 -0.94872052172E-01 -0.24575112534E-01 -0.93370261623E-01  0.89034973364E+00  0.88000000000E+00 0.  1.
        -11    1    4    4    0    0  0.42180775523E-01  0.60093604306E-02  0.63693068903E-01  0.76631575632E-01  0.51100000000E-03 0. -1.
         11    1    4    4    0    0  0.41186795965E-01 -0.12004286645E-02  0.34301181646E-01  0.53615532956E-01  0.51100000000E-03 0.  1.
</event>
<event>
 8    1  0.1111182E+005  0.1043930E+01  0.7957747E-01            NaN
         13   -1    0    0    0    0  0.00000000000E+00  0.00000000000E+00  0.74505805969E-08  0.10566000000E+00  0.10566000000E+00 0.  1.
     999900   -1    0    0    0    0 -0.00000000000E+00 -0.00000000000E+00 -0.74505805969E-08  0.93827000000E+00  0.93827000000E+00 0.  1.
     999902    2    1    2    0    0  0.91682907880E-02 -0.18905366272E-01 -0.10640600353E-01  0.10203780828E+01  0.10201062391E+01 0.  0.
     999903    2    3    3    0    0 -0.73681569838E-02 -0.30743011071E-02 -0.13014274089E+00  0.13200606704E+00  0.20608921947E-01 0.  0.
         14    1    1    2    0    0 -0.91682907880E-02  0.18905366272E-01  0.10640600353E-01  0.23551917241E-01  0.00000000000E+00 0.  1.
     999901    1    3    3    0    0  0.16536447772E-01 -0.15831065164E-01  0.11950214053E+00  0.88837201572E+00  0.88000000000E+00 0. -1.
        -11    1    4    4    0    0 -0.70197586087E-02  0.81622808476E-02 -0.68920472076E-01  0.69758099399E-01  0.51100000000E-03 0.  1.
         11    1    4    4    0    0 -0.34839837510E-03 -0.11236581955E-01 -0.61222268812E-01  0.62247967637E-01  0.51100000000E-03 0. -1.
</event>
<event>
 8    1  0.1111182E+005  0.1043930E+01  0.7957747E-01            NaN
         13   -1    0    0    0    0  0.00000000000E+00  0.00000000000E+00  0.74505805969E-08  0.10566000000E+00  0.10566000000E+00 0.  1.
     999900   -1    0    0    0    0 -0.00000000000E+00 -0.00000000000E+00 -0.74505805969E-08  0.93827000000E+00  0.93827000000E+00 0.  1.
     999902    2    1    2    0    0  0.15369456984E-01 -0.15867863932E-01 -0.86565124591E-02  0.10202035481E+01  0.10199276126E+01 0.  0.
     999903    2    3    3    0    0  0.12288429619E-01 -0.32698744573E-01 -0.12578666525E+00  0.13227773811E+00  0.21328418780E-01 0.  0.
         14    1    1    2    0    0 -0.15369456984E-01  0.15867863932E-01  0.86565124591E-02  0.23726451941E-01  0.00000000000E+00 0.  1.
     999901    1    3    3    0    0  0.30810273648E-02  0.16830880640E-01  0.11713015279E+00  0.88792580994E+00  0.88000000000E+00 0. -1.
        -11    1    4    4    0    0  0.67502265306E-02 -0.24694547219E-01 -0.53219969193E-01  0.59059397749E-01  0.51100000000E-03 0. -1.
         11    1    4    4    0    0  0.55382030886E-02 -0.80041973535E-02 -0.72566696054E-01  0.73218340366E-01  0.51100000000E-03 0.  1.
</event>
<event>
 8    1  0.1111182E+005  0.1043930E+01  0.7957747E-01            NaN
         13   -1    0    0    0    0  0.00000000000E+00  0.00000000000E+00  0.74505805969E-08  0.10566000000E+00  0.10566000000E+00 0.  1.
     999900   -1    0    0    0    0 -0.00000000000E+00 -0.00000000000E+00 -0.74505805969E-08  0.93827000000E+00  0.93827000000E+00 0. -1.
     999902    2    1    2    0    0 -0.22920695939E-02  0.14191281183E-02 -0.24145649167E-01  0.10196343238E+01  0.10193448261E+01 0.  0.
     999903    2    3    3    0    0  0.45733824453E-01 -0.39772513255E-01  0.11006455599E+00  0.12721311329E+00  0.19888041607E-01 0.  0.
         14    1    1    2    0    0  0.22920695939E-02 -0.14191281183E-02  0.24145649167E-01  0.24295676186E-01  0.00000000000E+00 0.  1.
     999901    1    3    3    0    0 -0.48025894047E-01  0.41191641373E-01 -0.13421020516E+00  0.89242121052E+00  0.88000000000E+00 0. -1.
        -11    1    4    4    0    0  0.11797252790E-01 -0.15291032460E-01  0.19514051261E-01  0.27459973866E-01  0.51100000000E-03 0. -1.
         11    1    4    4    0    0  0.33936571664E-01 -0.24481480795E-01  0.90550504729E-01  0.99753139428E-01  0.51100000000E-03 0.  1.
</event>
<event>
 8    1  0.1111182E+005  0.1043930E+01  0.7957747E-01            NaN
         13   -1    0    0    0    0  0.00000000000E+00  0.00000000000E+00  0.74505805969E-08  0.10566000000E+00  0.10566000000E+00 0.  1.
     999900   -1    0    0    0    0 -0.00000000000E+00 -0.00000000000E+00 -0.74505805969E-08  0.93827000000E+00  0.93827000000E+00 0. -1.
     999902    2    1    2    0    0 -0.80075831795E-02 -0.22108794369E-01  0.15436347610E-02  0.10203651324E+01  0.10200929862E+01 0.  0.
     999903    2    3    3    0    0 -0.31187947251E-01  0.11288587330E+00  0.48747827387E-01  0.12851922341E+00  0.20613870698E-01 0.  0.
         14    1    1    2    0    0  0.80075831795E-02  0.22108794369E-01 -0.15436347610E-02  0.23564867602E-01  0.00000000000E+00 0. -1.
     999901    1    3    3    0    0  0.23180364071E-01 -0.13499466767E+00 -0.47204192626E-01  0.89184590899E+00  0.88000000000E+00 0. -1.
        -11    1    4    4    0    0 -0.16870424219E-01  0.65386118465E-01  0.17063730191E-01  0.69651903853E-01  0.51100000000E-03 0.  1.
         11    1    4    4    0    0 -0.14317523031E-01  0.47499754839E-01  0.31684097196E-01  0.58867319556E-01  0.51100000000E-03 0. -1.
</event>
<event>
 8    1  0.1111182E+005  0.1043930E+01  0.7957747E-01            NaN
         13   -1    0    0    0    0  0.00000000000E+00  0.00000000000E+00  0.74505805969E-08  0.10566000000E+00  0.10566000000E+00 0. -1.
     999900   -1    0    0    0    0 -0.00000000000E+00 -0.00000000000E+00 -0.74505805969E-08  0.93827000000E+00  0.93827000000E+00 0.  1.
     999902    2    1    2    0    0 -0.16644581903E-01 -0.42911177534E-02  0.15260598004E-01  0.10209443164E+01  0.10206855322E+01 0.  0.
     999903    2    3    3    0    0  0.49446667488E-01 -0.96971900465E-01  0.71740973613E-01  0.13181675889E+00  0.19503031131E-01 0.  0.
         14    1    1    2    0    0  0.16644581903E-01  0.42911177534E-02 -0.15260598004E-01  0.22985683582E-01  0.00000000000E+00 0.  1.
     999901    1    3    3    0    0 -0.66091249392E-01  0.92680782711E-01 -0.56480375610E-01  0.88912755753E+00  0.88000000000E+00 0.  1.
        -11    1    4    4    0    0  0.47275173038E-01 -0.96470789331E-01  0.72258630700E-01  0.12947249133E+00  0.51100000000E-03 0. -1.
         11    1    4    4    0    0  0.21714944504E-02 -0.50111113353E-03 -0.51765708682E-03  0.23442675564E-02  0.51100000000E-03 0.  1.
</event>
<event>
 8    1  0.1111182E+005  0.1043930E+01  0.7957747E-01            NaN
         13   -1    0    0    0    0  0.00000000000E+00  0.00000000000E+00  0.74505805969E-08  0.10566000000E+00  0.10566000000E+00 0.  1.
     999900   -1    0    0    0    0 -0.00000000000E+00 -0.00000000000E+00 -0.74505805969E-08  0.93827000000E+00  0.93827000000E+00 0.  1.
     999902    2    1    2    0    0 -0.16946371638E-01 -0.77115419020E-02 -0.14007589069E-01  0.10206306450E+01  0.10203646670E+01 0.  0.
     999903    2    3    3    0    0 -0.78146529926E-01 -0.38823081474E-01  0.95796502781E-01  0.13115308722E+00  0.20249704890E-01 0.  0.
         14    1    1    2    0    0  0.16946371638E-01  0.77115419020E-02  0.14007589069E-01  0.23299354964E-01  0.00000000000E+00 0. -1.
     999901    1    3    3    0    0  0.61200158287E-01  0.31111539572E-01 -0.10980409185E+00  0.88947755781E+00  0.88000000000E+00 0.  1.
        -11    1    4    4    0    0 -0.45843642066E-01 -0.32301830515E-01  0.67110129568E-01  0.87459009736E-01  0.51100000000E-03 0.  1.
         11    1    4    4    0    0 -0.32302887860E-01 -0.65212509593E-02  0.28686373213E-01  0.43694077485E-01  0.51100000000E-03 0. -1.
</event>
<event>
 8    1  0.1111182E+005  0.1043930E+01  0.7957747E-01            NaN
         13   -1    0    0    0    0  0.00000000000E+00  0.00000000000E+00  0.74505805969E-08  0.10566000000E+00  0.10566000000E+00 0.  1.
     999900   -1    0    0    0    0 -0.00000000000E+00 -0.00000000000E+00 -0.74505805969E-08  0.93827000000E+00  0.93827000000E+00 0. -1.
     999902    2    1    2    0    0 -0.18685882763E-01  0.30566365772E-02  0.10761482460E-01  0.10221512317E+01  0.10219191875E+01 0.  0.
     999903    2    3    3    0    0 -0.16578313938E-01 -0.11534485757E+00  0.60810559769E-01  0.13280975301E+00  0.19006042568E-01 0.  0.
         14    1    1    2    0    0  0.18685882763E-01 -0.30566365772E-02 -0.10761482460E-01  0.21778768251E-01  0.00000000000E+00 0. -1.
     999901    1    3    3    0    0 -0.21075688251E-02  0.11840149415E+00 -0.50049077309E-01  0.88934147874E+00  0.88000000000E+00 0. -1.
        -11    1    4    4    0    0 -0.47860792522E-02 -0.21340692335E-01  0.20037699758E-01  0.29666517095E-01  0.51100000000E-03 0. -1.
         11    1    4    4    0    0 -0.11792234686E-01 -0.94004165238E-01  0.40772860011E-01  0.10314323592E+00  0.51100000000E-03 0.  1.
</event>
<event>
 8    1  0.1111182E+005  0.1043930E+01  0.7957747E-01            NaN
         13   -1    0    0    0    0  0.00000000000E+00  0.00000000000E+00  0.74505805969E-08  0.10566000000E+00  0.10566000000E+00 0.  1.
     999900   -1    0    0    0    0 -0.00000000000E+00 -0.00000000000E+00 -0.74505805969E-08  0.93827000000E+00  0.93827000000E+00 0.  1.
     999902    2    1    2    0    0 -0.98820936889E-02 -0.10468708480E-01  0.20137155620E-01  0.10191761181E+01  0.10188754610E+01 0.  0.
     999903    2    3    3    0    0  0.68214683705E-01  0.79273175493E-01  0.73875159946E-01  0.12954670902E+00  0.19680730059E-01 0.  0.
         14    1    1    2    0    0  0.98820936889E-02  0.10468708480E-01 -0.20137155620E-01  0.24753881905E-01  0.00000000000E+00 0. -1.
     999901    1    3    3    0    0 -0.78096777393E-01 -0.89741883974E-01 -0.53738004327E-01  0.88962940907E+00  0.88000000000E+00 0.  1.
        -11    1    4    4    0    0  0.68323208843E-01  0.74072664316E-01  0.67442336808E-01  0.12125819717E+00  0.51100000000E-03 0. -1.
         11    1    4    4    0    0 -0.10852513891E-03  0.52005111771E-02  0.64328231382E-02  0.82885118529E-02  0.51100000000E-03 0.  1.
</event>
<event>
 8    1  0.1111182E+005  0.1043930E+01  0.7957747E-01            NaN
         13   -1    0    0    0    0  0.00000000000E+00  0.00000000000E+00  0.74505805969E-08  0.10566000000E+00  0.10566000000E+00 0. -1.
     999900   -1    0    0    0    0 -0.00000000000E+00 -0.00000000000E+00 -0.74505805969E-08  0.93827000000E+00  0.93827000000E+00 0.  1.
     999902    2    1    2    0    0 -0.14998794548E-01  0.41814347536E-02  0.29814189098E-01  0.10102946896E+01  0.10097346313E+01 0.  0.
     999903    2    3    3    0    0  0.33624322433E-01 -0.25083827316E-01  0.11527559100E+00  0.12433514521E+00  0.20272469081E-01 0.  0.
         14    1    1    2    0    0  0.14998794548E-01 -0.41814347536E-02 -0.29814189098E-01  0.33635310405E-01  0.00000000000E+00 0.  1.
     999901    1    3    3    0    0 -0.48623116982E-01  0.29265262070E-01 -0.85461401901E-01  0.88595954438E+00  0.88000000000E+00 0.  1.
        -11    1    4    4    0    0  0.20763071307E-01 -0.21626770189E-01  0.55397796396E-01  0.62992057320E-01  0.51100000000E-03 0.  1.
         11    1    4    4    0    0  0.12861251126E-01 -0.34570571277E-02  0.59877794603E-01  0.61343087891E-01  0.51100000000E-03 0. -1.
</event>
<event>
 8    1  0.1465498E+005  0.1043930E+01  0.7957747E-01            NaN
         13   -1    0    0    0    0  0.00000000000E+00  0.00000000000E+00  0.74505805969E-08  0.10566000000E+00  0.10566000000E+00 0.  1.
     999900   -1    0    0    0    0 -0.00000000000E+00 -0.00000000000E+00 -0.74505805969E-08  0.93827000000E+00  0.93827000000E+00 0.  1.
     999902    2    1    2    0    0  0.17782124360E-02 -0.36760202383E-02 -0.22471626357E-01  0.10210903600E+01  0.10208348907E+01 0.  0.
     999903    2    3    3    0    0  0.81265453325E-02  0.23267906069E-01 -0.13012685645E+00  0.13409773034E+00  0.21018237856E-01 0.  0.
         14    1    1    2    0    0 -0.17782124360E-02  0.36760202383E-02  0.22471626357E-01  0.22839640001E-01  0.00000000000E+00 0.  1.
     999901    1    3    3    0    0 -0.63483328965E-02 -0.26943926307E-01  0.10765523009E+00  0.88699262965E+00  0.88000000000E+00 0. -1.
        -11    1    4    4    0    0 -0.18492819275E-02  0.20515959402E-02 -0.61704890400E-01  0.61768790743E-01  0.51100000000E-03 0. -1.
         11    1    4    4    0    0  0.99758272600E-02  0.21216310129E-01 -0.68421966048E-01  0.72328939601E-01  0.51100000000E-03 0.  1.
</event>
<event>
 8    1  0.1111182E+005  0.1043930E+01  0.7957747E-01            NaN
         13   -1    0    0    0    0  0.00000000000E+00  0.00000000000E+00  0.74505805969E-08  0.10566000000E+00  0.10566000000E+00 0. -1.
     999900   -1    0    0    0    0 -0.00000000000E+00 -0.00000000000E+00 -0.74505805969E-08  0.93827000000E+00  0.93827000000E+00 0. -1.
     999902    2    1    2    0    0 -0.15664383792E-01  0.95432795002E-02 -0.15072565812E-01  0.10201891208E+01  0.10199128458E+01 0.  0.
     999903    2    3    3    0    0  0.21705740539E-01 -0.87433831679E-01  0.88687530857E-01  0.12801915724E+00  0.20189412990E-01 0.  0.
         14    1    1    2    0    0  0.15664383792E-01 -0.95432795002E-02  0.15072565812E-01  0.23740879161E-01  0.00000000000E+00 0. -1.
     999901    1    3    3    0    0 -0.37370124331E-01  0.96977111179E-01 -0.10376009667E+00  0.89216996360E+00  0.88000000000E+00 0.  1.
        -11    1    4    4    0    0  0.14189801277E-01 -0.20867682348E-01  0.26845070770E-01  0.36847382166E-01  0.51100000000E-03 0.  1.
         11    1    4    4    0    0  0.75159392619E-02 -0.66566149331E-01  0.61842460087E-01  0.91171775075E-01  0.51100000000E-03 0. -1.
</event>
<event>
 8    1  0.1111182E+005  0.1043930E+01  0.7957747E-01            NaN
         13   -1    0    0    0    0  0.00000000000E+00  0.00000000000E+00  0.74505805969E-08  0.10566000000E+00  0.10566000000E+00 0. -1.
     999900   -1    0    0    0    0 -0.00000000000E+00 -0.00000000000E+00 -0.74505805969E-08  0.93827000000E+00  0.93827000000E+00 0. -1.
     999902    2    1    2    0    0  0.15592364929E-01  0.13250680681E-01 -0.13868656164E-02  0.10234208367E+01  0.10232153162E+01 0.  0.
     999903    2    3    3    0    0  0.67321880841E-02  0.10910387119E-01  0.13132653271E+00  0.13342261997E+00  0.19763057030E-01 0.  0.
         14    1    1    2    0    0 -0.15592364929E-01 -0.13250680681E-01  0.13868656164E-02  0.20509163289E-01  0.00000000000E+00 0.  1.
     999901    1    3    3    0    0  0.88601768452E-02  0.23402935621E-02 -0.13271339832E+00  0.88999821674E+00  0.88000000000E+00 0. -1.
        -11    1    4    4    0    0  0.74545711285E-02  0.16381207080E-01  0.10206229092E+00  0.10363825030E+00  0.51100000000E-03 0. -1.
         11    1    4    4    0    0 -0.72238304438E-03 -0.54708199618E-02  0.29264241787E-01  0.29784369671E-01  0.51100000000E-03 0.  1.
</event>
<event>
 8    1  0.1111182E+005  0.1043930E+01  0.7957747E-01            NaN
         13   -1    0    0    0    0  0.00000000000E+00  0.00000000000E+00  0.74505805969E-08  0.10566000000E+00  0.10566000000E+00 0.  1.
     999900   -1    0    0    0    0 -0.00000000000E+00 -0.00000000000E+00 -0.74505805969E-08  0.93827000000E+00  0.93827000000E+00 0. -1.
     999902    2    1    2    0    0 -0.23875255170E-02  0.26138372877E-02  0.23967699340E-01  0.10197022672E+01  0.10194144058E+01 0.  0.
     999903    2    3    3    0    0  0.54226239654E-01 -0.25127279289E-01 -0.11021295149E+00  0.12730149683E+00  0.22066064141E-01 0.  0.
         14    1    1    2    0    0  0.23875255170E-02 -0.26138372877E-02 -0.23967699340E-01  0.24227732768E-01  0.00000000000E+00 0. -1.
     999901    1    3    3    0    0 -0.56613765171E-01  0.27741116577E-01  0.13418065083E+00  0.89240077040E+00  0.88000000000E+00 0.  1.
        -11    1    4    4    0    0  0.21026727588E-01  0.15792431054E-02 -0.37265288867E-01  0.42820324114E-01  0.51100000000E-03 0.  1.
         11    1    4    4    0    0  0.33199512066E-01 -0.26706522394E-01 -0.72947662627E-01  0.84481172716E-01  0.51100000000E-03 0. -1.
</event>
<event>
 8    1  0.1111182E+005  0.1043930E+01  0.7957747E-01            NaN
         13   -1    0    0    0    0  0.00000000000E+00  0.00000000000E+00  0.74505805969E-08  0.10566000000E+00  0.10566000000E+00 0. -1.
     999900   -1    0    0    0    0 -0.00000000000E+00 -0.00000000000E+00 -0.74505805969E-08  0.93827000000E+00  0.93827000000E+00 0. -1.
     999902    2    1    2    0    0 -0.25411706063E-03  0.36168828254E-02  0.23347546055E-01  0.10203025938E+01  0.10200289842E+01 0.  0.
     999903    2    3    3    0    0 -0.12033641331E+00  0.33065988331E-01 -0.28918315321E-01  0.13012355116E+00  0.22839826038E-01 0.  0.
         14    1    1    2    0    0  0.25411706063E-03 -0.36168828254E-02 -0.23347546055E-01  0.23627406198E-01  0.00000000000E+00 0.  1.
     999901    1    3    3    0    0  0.12008229625E+00 -0.29449105506E-01  0.52265861376E-01  0.89017904264E+00  0.88000000000E+00 0. -1.
        -11    1    4    4    0    0 -0.88878345029E-01  0.20430680492E-01 -0.11242844552E-01  0.91888168961E-01  0.51100000000E-03 0. -1.
         11    1    4    4    0    0 -0.31458068282E-01  0.12635307839E-01 -0.17675470769E-01  0.38235382202E-01  0.51100000000E-03 0.  1.
</event>
<event>
 8    1  0.1111182E+005  0.1043930E+01  0.7957747E-01            NaN
         13   -1    0    0    0    0  0.00000000000E+00  0.00000000000E+00  0.74505805969E-08  0.10566000000E+00  0.10566000000E+00 0. -1.
     999900   -1    0    0    0    0 -0.00000000000E+00 -0.00000000000E+00 -0.74505805969E-08  0.93827000000E+00  0.93827000000E+00 0.  1.
     999902    2    1    2    0    0 -0.19387106109E-01 -0.97293717085E-02 -0.56906596270E-02  0.10215044752E+01  0.10212582869E+01 0.  0.
     999903    2    3    3    0    0  0.85010602931E-01 -0.83215074390E-01  0.50386022975E-01  0.13052544933E+00  0.18616938370E-01 0.  0.
         14    1    1    2    0    0  0.19387106109E-01  0.97293717085E-02  0.56906596270E-02  0.22425524835E-01  0.00000000000E+00 0.  1.
     999901    1    3    3    0    0 -0.10439770904E+00  0.73485702682E-01 -0.56076682602E-01  0.89097902584E+00  0.88000000000E+00 0.  1.
        -11    1    4    4    0    0  0.54106356238E-01 -0.42051181889E-01  0.34037989641E-01  0.76515655545E-01  0.51100000000E-03 0.  1.
         11    1    4    4    0    0  0.30904246693E-01 -0.41163892501E-01  0.16348033334E-01  0.54009793782E-01  0.51100000000E-03 0. -1.
</event>
<event>
 8    1  0.1111182E+005  0.1043930E+01  0.7957747E-01            NaN
         13   -1    0    0    0    0  0.00000000000E+00  0.00000000000E+00  0.74505805969E-08  0.10566000000E+00  0.10566000000E+00 0.  1.
     999900   -1    0    0    0    0 -0.00000000000E+00 -0.00000000000E+00 -0.74505805969E-08  0.93827000000E+00  0.93827000000E+00 0.  1.
     999902    2    1    2    0    0 -0.18722865361E-01 -0.72453952446E-02  0.13620476324E-01  0.10196697689E+01  0.10193811253E+01 0.  0.
     999903    2    3    3    0    0  0.99262420523E-01 -0.56753354138E-01 -0.53759177858E-01  0.12786733364E+00  0.19647760003E-01 0.  0.
         14    1    1    2    0    0  0.18722865361E-01  0.72453952446E-02 -0.13620476324E-01  0.24260231138E-01  0.00000000000E+00 0. -1.
     999901    1    3    3    0    0 -0.11798528588E+00  0.49507958893E-01  0.67379654182E-01  0.89180243523E+00  0.88000000000E+00 0. -1.
        -11    1    4    4    0    0  0.73845732357E-01 -0.51541918542E-01 -0.40993163855E-01  0.98946764263E-01  0.51100000000E-03 0. -1.
         11    1    4    4    0    0  0.25416688166E-01 -0.52114355960E-02 -0.12766014003E-01  0.28920569372E-01  0.51100000000E-03 0.  1.
</event>
<event>
 8    1  0.1111182E+005  0.1043930E+01  0.7957747E-01            NaN
         13   -1    0    0    0    0  0.00000000000E+00  0.00000000000E+00  0.74505805969E-08  0.10566000000E+00  0.10566000000E+00 0.  1.
     999900   -1    0    0    0    0 -0.00000000000E+00 -0.00000000000E+00 -0.74505805969E-08  0.93827000000E+00  0.93827000000E+00 0. -1.
     999902    2    1    2    0    0 -0.18369385229E-01 -0.75221556619E-03 -0.14532052410E-01  0.10204953955E+01  0.10202262845E+01 0.  0.
     999903    2    3    3    0    0 -0.55804313854E-01  0.10288128723E+00 -0.60277529913E-01  0.13244476320E+00  0.14475979397E-01 0.  0.
         14    1    1    2    0    0  0.18369385229E-01  0.75221556619E-03  0.14532052410E-01  0.23434604524E-01  0.00000000000E+00 0. -1.
     999901    1    3    3    0    0  0.37434928624E-01 -0.10363350279E+00  0.45745477503E-01  0.88805063228E+00  0.88000000000E+00 0.  1.
        -11    1    4    4    0    0 -0.57310681136E-02  0.22079869764E-01 -0.13292732935E-01  0.26406886609E-01  0.51100000000E-03 0.  1.
         11    1    4    4    0    0 -0.50073245740E-01  0.80801417462E-01 -0.46984796979E-01  0.10603787659E+00  0.51100000000E-03 0. -1.
</event>
<event>
 8    1  0.1111182E+005  0.1043930E+01  0.7957747E-01            NaN
         13   -1    0    0    0    0  0.00000000000E+00  0.00000000000E+00  0.74505805969E-08  0.10566000000E+00  0.10566000000E+00 0.  1.
     999900   -1    0    0    0    0 -0.00000000000E+00 -0.00000000000E+00 -0.74505805969E-08  0.93827000000E+00  0.93827000000E+00 0. -1.
     999902    2    1    2    0    0  0.16329473573E-01  0.67407399847E-02 -0.16377047535E-01  0.10198406462E+01  0.10195561027E+01 0.  0.
     999903    2    3    3    0    0  0.12890465198E+00  0.11924496445E-01  0.17056013366E-01  0.13202432974E+00  0.19516996052E-01 0.  0.
         14    1    1    2    0    0 -0.16329473573E-01 -0.67407399847E-02  0.16377047535E-01  0.24089353845E-01  0.00000000000E+00 0.  1.
     999901    1    3    3    0    0 -0.11257517841E+00 -0.51837564606E-02 -0.33433060901E-01  0.88781631641E+00  0.88000000000E+00 0. -1.
        -11    1    4    4    0    0  0.23818284684E-01  0.63691723920E-02 -0.31716638998E-02  0.24863580095E-01  0.51100000000E-03 0. -1.
         11    1    4    4    0    0  0.10508636730E+00  0.55553240533E-02  0.20227677266E-01  0.10716074965E+00  0.51100000000E-03 0.  1.
</event>
<event>
 8    1  0.1111182E+005  0.1043930E+01  0.7957747E-01            NaN
         13   -1    0    0    0    0  0.00000000000E+00  0.00000000000E+00  0.74505805969E-08  0.10566000000E+00  0.10566000000E+00 0.  1.
     999900   -1    0    0    0    0 -0.00000000000E+00 -0.00000000000E+00 -0.74505805969E-08  0.93827000000E+00  0.93827000000E+00 0.  1.
     999902    2    1    2    0    0 -0.22584934788E-01 -0.48857155269E-02 -0.42433806919E-02  0.10204362609E+01  0.10201657742E+01 0.  0.
     999903    2    3    3    0    0  0.76070658849E-02  0.11245074772E+00  0.60719508673E-01  0.12976259482E+00  0.21176264249E-01 0.  0.
         14    1    1    2    0    0  0.22584934788E-01  0.48857155269E-02  0.42433806919E-02  0.23493739066E-01  0.00000000000E+00 0. -1.
     999901    1    3    3    0    0 -0.30192000673E-01 -0.11733646325E+00 -0.64962889365E-01  0.89067366611E+00  0.88000000000E+00 0.  1.
        -11    1    4    4    0    0  0.96834721352E-02  0.74966156779E-01  0.30287403805E-01  0.81432685361E-01  0.51100000000E-03 0. -1.
         11    1    4    4    0    0 -0.20764062503E-02  0.37484590939E-01  0.30432104868E-01  0.48329909461E-01  0.51100000000E-03 0.  1.
</event>
<event>
 8    1  0.1111182E+005  0.1043930E+01  0.7957747E-01            NaN
         13   -1    0    0    0    0  0.00000000000E+00  0.00000000000E+00  0.74505805969E-08  0.10566000000E+00  0.10566000000E+00 0. -1.
     999900   -1    0    0    0    0 -0.00000000000E+00 -0.00000000000E+00 -0.74505805969E-08  0.93827000000E+00  0.93827000000E+00 0.  1.
     999902    2    1    2    0    0 -0.15445169929E-01  0.80675029357E-02  0.17801997874E-01  0.10190191789E+01  0.10187146500E+01 0.  0.
     999903    2    3    3    0    0 -0.30190090392E-02 -0.45429057416E-02  0.13013845963E+00  0.13170135960E+00  0.19480170358E-01 0.  0.
         14    1    1    2    0    0  0.15445169929E-01 -0.80675029357E-02 -0.17801997874E-01  0.24910821064E-01  0.00000000000E+00 0. -1.
     999901    1    3    3    0    0 -0.12426160890E-01  0.12610408677E-01 -0.11233646175E+00  0.88731781934E+00  0.88000000000E+00 0.  1.
        -11    1    4    4    0    0  0.11227835260E-02 -0.82831561124E-02  0.24075097154E-01  0.25490051824E-01  0.51100000000E-03 0.  1.
         11    1    4    4    0    0 -0.41417925652E-02  0.37402503707E-02  0.10606336247E+00  0.10621130777E+00  0.51100000000E-03 0. -1.
</event>
<event>
 8    1  0.1111182E+005  0.1043930E+01  0.7957747E-01            NaN
         13   -1    0    0    0    0  0.00000000000E+00  0.00000000000E+00  0.74505805969E-08  0.10566000000E+00  0.10566000000E+00 0.  1.
     999900   -1    0    0    0    0 -0.00000000000E+00 -0.00000000000E+00 -0.74505805969E-08  0.93827000000E+00  0.93827000000E+00 0. -1.
     999902    2    1    2    0    0 -0.90977550205E-02  0.18578589525E-01  0.99314932260E-02  0.10209829372E+01  0.10207250317E+01 0.  0.
     999903    2    3    3    0    0  0.12058998732E+00  0.31220182905E-01 -0.33616455228E-01  0.13032298847E+00  0.18367645396E-01 0.  0.
         14    1    1    2    0    0  0.90977550205E-02 -0.18578589525E-01 -0.99314932260E-02  0.22947062837E-01  0.00000000000E+00 0.  1.
     999901    1    3    3    0    0 -0.12968774234E+00 -0.12641593380E-01  0.43547948454E-01  0.89065994870E+00  0.88000000000E+00 0.  1.
        -11    1    4    4    0    0  0.10093290868E+00  0.26589499919E-01 -0.20892300612E-01  0.10644812308E+00  0.51100000000E-03 0. -1.
         11    1    4    4    0    0  0.19657078644E-01  0.46306829858E-02 -0.12724154616E-01  0.23874865391E-01  0.51100000000E-03 0.  1.
</event>
<event>
 8    1  0.1111182E+005  0.1043930E+01  0.7957747E-01            NaN
         13   -1    0    0    0    0  0.00000000000E+00  0.00000000000E+00  0.74505805969E-08  0.10566000000E+00  0.10566000000E+00 0.  1.
     999900   -1    0    0    0    0 -0.00000000000E+00 -0.00000000000E+00 -0.74505805969E-08  0.93827000000E+00  0.93827000000E+00 0.  1.
     999902    2    1    2    0    0  0.12236002667E-01  0.17787946242E-01  0.56516393472E-02  0.10216124773E+01  0.10213686807E+01 0.  0.
     999903    2    3    3    0    0 -0.67119429279E-01  0.76156735675E-01  0.83141336772E-01  0.13273180286E+00  0.20009583585E-01 0.  0.
         14    1    1    2    0    0 -0.12236002667E-01 -0.17787946242E-01 -0.56516393472E-02  0.22317522714E-01  0.00000000000E+00 0.  1.
     999901    1    3    3    0    0  0.79355431945E-01 -0.58368789432E-01 -0.77489697425E-01  0.88888067442E+00  0.88000000000E+00 0.  1.
        -11    1    4    4    0    0 -0.33816153563E-01  0.51095861514E-01  0.42946489754E-01  0.74826341678E-01  0.51100000000E-03 0.  1.
         11    1    4    4    0    0 -0.33303275715E-01  0.25060874160E-01  0.40194847018E-01  0.57905461183E-01  0.51100000000E-03 0. -1.
</event>
<event>
 8    1  0.1111182E+005  0.1043930E+01  0.7957747E-01            NaN
         13   -1    0    0    0    0  0.00000000000E+00  0.00000000000E+00  0.74505805969E-08  0.10566000000E+00  0.10566000000E+00 0. -1.
     999900   -1    0    0    0    0 -0.00000000000E+00 -0.00000000000E+00 -0.74505805969E-08  0.93827000000E+00  0.93827000000E+00 0.  1.
     999902    2    1    2    0    0  0.11968687944E-01  0.11792241480E-01 -0.16203577059E-01  0.10205877131E+01  0.10203207426E+01 0.  0.
     999903    2    3    3    0    0 -0.71063391019E-01  0.42045619533E-01  0.97386787867E-01  0.12889697966E+00  0.17674989378E-01 0.  0.
         14    1    1    2    0    0 -0.11968687944E-01 -0.11792241480E-01  0.16203577059E-01  0.23342286943E-01  0.00000000000E+00 0. -1.
     999901    1    3    3    0    0  0.83032078964E-01 -0.30253378052E-01 -0.11359036493E+00  0.89169073340E+00  0.88000000000E+00 0.  1.
        -11    1    4    4    0    0 -0.58429290445E-01  0.29172992279E-01  0.67054809785E-01  0.93603707708E-01  0.51100000000E-03 0. -1.
         11    1    4    4    0    0 -0.12634100574E-01  0.12872627254E-01  0.30331978082E-01  0.35293271952E-01  0.51100000000E-03 0.  1.
</event>
<event>
 8    1  0.1111182E+005  0.1043930E+01  0.7957747E-01            NaN
         13   -1    0    0    0    0  0.00000000000E+00  0.00000000000E+00  0.74505805969E-08  0.10566000000E+00  0.10566000000E+00 0. -1.
     999900   -1    0    0    0    0 -0.00000000000E+00 -0.00000000000E+00 -0.74505805969E-08  0.93827000000E+00  0.93827000000E+00 0. -1.
     999902    2    1    2    0    0  0.25148365490E-01 -0.65048641127E-02  0.58420034215E-03  0.10179474129E+01  0.10176157627E+01 0.  0.
     999903    2    3    3    0    0  0.32204573658E-01  0.11957703681E+00 -0.26193481123E-01  0.12852991808E+00  0.22316789441E-01 0.  0.
         14    1    1    2    0    0 -0.25148365490E-01  0.65048641127E-02 -0.58420034215E-03  0.25982587131E-01  0.00000000000E+00 0. -1.
     999901    1    3    3    0    0 -0.70562081677E-02 -0.12608190092E+00  0.26777681465E-01  0.88941749479E+00  0.88000000000E+00 0. -1.
        -11    1    4    4    0    0  0.18093017509E-01  0.69365527728E-01 -0.38648842934E-02  0.71792284900E-01  0.51100000000E-03 0.  1.
         11    1    4    4    0    0  0.14111556149E-01  0.50211509084E-01 -0.22328596829E-01  0.56737633179E-01  0.51100000000E-03 0. -1.
</event>
<event>
 8    1  0.1111182E+005  0.1043930E+01  0.7957747E-01            NaN
         13   -1    0    0    0    0  0.00000000000E+00  0.00000000000E+00  0.74505805969E-08  0.10566000000E+00  0.10566000000E+00 0.  1.
     999900   -1    0    0    0    0 -0.00000000000E+00 -0.00000000000E+00 -0.74505805969E-08  0.93827000000E+00  0.93827000000E+00 0. -1.
     999902    2    1    2    0    0 -0.10547719339E-01 -0.62612304261E-02 -0.20258080966E-01  0.10202477865E+01  0.10199728912E+01 0.  0.
     999903    2    3    3    0    0  0.10855549605E+00 -0.59032269952E-01 -0.36895997540E-01  0.13050221685E+00  0.20010231112E-01 0.  0.
         14    1    1    2    0    0  0.10547719339E-01  0.62612304261E-02  0.20258080966E-01  0.23682213454E-01  0.00000000000E+00 0.  1.
     999901    1    3    3    0    0 -0.11910321539E+00  0.52771039526E-01  0.16637916575E-01  0.88974556970E+00  0.88000000000E+00 0. -1.
        -11    1    4    4    0    0  0.38786108124E-01 -0.26629055625E-01 -0.22836540332E-01  0.52299497915E-01  0.51100000000E-03 0.  1.
         11    1    4    4    0    0  0.69769387927E-01 -0.32403214327E-01 -0.14059457209E-01  0.78202718933E-01  0.51100000000E-03 0. -1.
</event>
<event>
 8    1  0.1111182E+005  0.1043930E+01  0.7957747E-01            NaN
         13   -1    0    0    0    0  0.00000000000E+00  0.00000000000E+00  0.74505805969E-08  0.10566000000E+00  0.10566000000E+00 0.  1.
     999900   -1    0    0    0    0 -0.00000000000E+00 -0.00000000000E+00 -0.74505805969E-08  0.93827000000E+00  0.93827000000E+00 0. -1.
     999902    2    1    2    0    0  0.62348694641E-02  0.58634718658E-02  0.22231794688E-01  0.10201076031E+01  0.10198294050E+01 0.  0.
     999903    2    3    3    0    0  0.25121381099E-01 -0.60117479701E-01  0.11316660179E+00  0.13276363064E+00  0.23964697101E-01 0.  0.
         14    1    1    2    0    0 -0.62348694641E-02 -0.58634718658E-02 -0.22231794688E-01  0.23822396911E-01  0.00000000000E+00 0. -1.
     999901    1    3    3    0    0 -0.18886511635E-01  0.65980951567E-01 -0.90934807102E-01  0.88734397244E+00  0.88000000000E+00 0. -1.
        -11    1    4    4    0    0  0.24551091414E-01 -0.43023622965E-01  0.98381663825E-01  0.11014990295E+00  0.51100000000E-03 0.  1.
         11    1    4    4    0    0  0.57028968545E-03 -0.17093856736E-01  0.14784937965E-01  0.22613727690E-01  0.51100000000E-03 0. -1.
</event>
<event>
 7    1  0.1111182E+005  0.1043930E+01  0.7957747E-01            NaN
         13   -1    0    0    0    0  0.00000000000E+00  0.00000000000E+00  0.74505805969E-08  0.10566000000E+00  0.10566000000E+00 0. -1.
     999900   -1    0    0    0    0 -0.00000000000E+00 -0.00000000000E+00 -0.74505805969E-08  0.93827000000E+00  0.93827000000E+00 0.  1.
     999903    2    1    2    0    0 -0.35223163640E-01  0.49815168434E-01  0.62973890730E-01  0.90171501808E-01  0.21046770819E-01 0.  0.
         14    1    1    2    0    0  0.19829709779E-01 -0.47316076917E-01  0.43422590214E-01  0.67212721011E-01  0.00000000000E+00 0. -1.
     999901    1    1    2    0    0  0.15393453861E-01 -0.24990915162E-02 -0.10639648094E+00  0.88654577718E+00  0.88000000000E+00 0.  1.
        -11    1    3    3    0    0 -0.43136745685E-02  0.15164967211E-01  0.65091534795E-02  0.17064999819E-01  0.51100000000E-03 0. -1.
         11    1    3    3    0    0 -0.30909489071E-01  0.34650201222E-01  0.56464737250E-01  0.73106501989E-01  0.51100000000E-03 0.  1.
</event>
<event>
 8    1  0.1111182E+005  0.1043930E+01  0.7957747E-01            NaN
         13   -1    0    0    0    0  0.00000000000E+00  0.00000000000E+00  0.74505805969E-08  0.10566000000E+00  0.10566000000E+00 0.  1.
     999900   -1    0    0    0    0 -0.00000000000E+00 -0.00000000000E+00 -0.74505805969E-08  0.93827000000E+00  0.93827000000E+00 0.  1.
     999902    2    1    2    0    0 -0.21177534476E-01  0.11260733834E-01 -0.35540902527E-02  0.10196828630E+01  0.10193945348E+01 0.  0.
     999903    2    3    3    0    0  0.37556948565E-01 -0.87805227694E-01 -0.83681002388E-01  0.12856888252E+00  0.20178329888E-01 0.  0.
         14    1    1    2    0    0  0.21177534476E-01 -0.11260733834E-01  0.35540902527E-02  0.24247136954E-01  0.00000000000E+00 0.  1.
     999901    1    3    3    0    0 -0.58734483041E-01  0.99065961528E-01  0.80126912136E-01  0.89111398052E+00  0.88000000000E+00 0. -1.
        -11    1    4    4    0    0  0.10082809981E-01 -0.45267467545E-01 -0.47061317496E-01  0.66074468598E-01  0.51100000000E-03 0. -1.
         11    1    4    4    0    0  0.27474138585E-01 -0.42537760149E-01 -0.36619684892E-01  0.62494413927E-01  0.51100000000E-03 0.  1.
</event>
<event>
 8    1  0.1111182E+005  0.1043930E+01  0.7957747E-01            NaN
         13   -1    0    0    0    0  0.00000000000E+00  0.00000000000E+00  0.74505805969E-08  0.10566000000E+00  0.10566000000E+00 0. -1.
     999900   -1    0    0    0    0 -0.00000000000E+00 -0.00000000000E+00 -0.74505805969E-08  0.93827000000E+00  0.93827000000E+00 0. -1.
     999902    2    1    2    0    0 -0.26080589775E-03  0.22966343277E-01  0.33298312730E-02  0.10207220548E+01  0.10204581836E+01 0.  0.
     999903    2    3    3    0    0  0.48123448462E-01 -0.41763407367E-01 -0.11108493693E+00  0.12964309318E+00  0.20184645411E-01 0.  0.
         14    1    1    2    0    0  0.26080589775E-03 -0.22966343277E-01 -0.33298312730E-02  0.23207945181E-01  0.00000000000E+00 0.  1.
     999901    1    3    3    0    0 -0.48384254360E-01  0.64729750643E-01  0.11441476820E+00  0.89107896164E+00  0.88000000000E+00 0.  1.
        -11    1    4    4    0    0  0.19742263379E-01 -0.98569913432E-02 -0.23730997474E-01  0.32408927840E-01  0.51100000000E-03 0.  1.
         11    1    4    4    0    0  0.28381185083E-01 -0.31906416023E-01 -0.87353939456E-01  0.97234165342E-01  0.51100000000E-03 0. -1.
</event>
<event>
 8    1  0.1111182E+005  0.1043930E+01  0.7957747E-01            NaN
         13   -1    0    0    0    0  0.00000000000E+00  0.00000000000E+00  0.74505805969E-08  0.10566000000E+00  0.10566000000E+00 0.  1.
     999900   -1    0    0    0    0 -0.00000000000E+00 -0.00000000000E+00 -0.74505805969E-08  0.93827000000E+00  0.93827000000E+00 0.  1.
     999902    2    1    2    0    0 -0.18379730372E-01  0.12985053261E-01  0.66847610067E-02  0.10204542226E+01  0.10201841541E+01 0.  0.
     999903    2    3    3    0    0 -0.79619289458E-01  0.35450525593E-01 -0.97100893539E-01  0.13195749036E+00  0.19703418909E-01 0.  0.
         14    1    1    2    0    0  0.18379730372E-01 -0.12985053261E-01 -0.66847610067E-02  0.23475777441E-01  0.00000000000E+00 0.  1.
     999901    1    3    3    0    0  0.61239559086E-01 -0.22465472332E-01  0.10378565455E+00  0.88849673220E+00  0.88000000000E+00 0. -1.
        -11    1    4    4    0    0 -0.44720229665E-01  0.29828898242E-01 -0.63288802489E-01  0.83038519695E-01  0.51100000000E-03 0. -1.
         11    1    4    4    0    0 -0.34899059793E-01  0.56216273515E-02 -0.33812091050E-01  0.48918970662E-01  0.51100000000E-03 0.  1.
</event>
<event>
 8    1  0.1111182E+005  0.1043930E+01  0.7957747E-01            NaN
         13   -1    0    0    0    0  0.00000000000E+00  0.00000000000E+00  0.74505805969E-08  0.10566000000E+00  0.10566000000E+00 0. -1.
     999900   -1    0    0    0    0 -0.00000000000E+00 -0.00000000000E+00 -0.74505805969E-08  0.93827000000E+00  0.93827000000E+00 0.  1.
     999902    2    1    2    0    0 -0.21302028192E-01 -0.76069073544E-02 -0.42051380983E-02  0.10209229439E+01  0.10206636727E+01 0.  0.
     999903    2    3    3    0    0 -0.60345243229E-02  0.10104090165E+00  0.79333864785E-01  0.13018380807E+00  0.20206001383E-01 0.  0.
         14    1    1    2    0    0  0.21302028192E-01  0.76069073544E-02  0.42051380983E-02  0.23007056114E-01  0.00000000000E+00 0.  1.
     999901    1    3    3    0    0 -0.15267503869E-01 -0.10864780900E+00 -0.83539002884E-01  0.89073913582E+00  0.88000000000E+00 0.  1.
        -11    1    4    4    0    0  0.73029895139E-02  0.33757325540E-01  0.24152023935E-01  0.42148215438E-01  0.51100000000E-03 0. -1.
         11    1    4    4    0    0 -0.13337513837E-01  0.67283576107E-01  0.55181840850E-01  0.88035592630E-01  0.51100000000E-03 0.  1.
</event>
<event>
 8    1  0.1111182E+005  0.1043930E+01  0.7957747E-01            NaN
         13   -1    0    0    0    0  0.00000000000E+00  0.00000000000E+00  0.74505805969E-08  0.10566000000E+00  0.10566000000E+00 0.  1.
     999900   -1    0    0    0    0 -0.00000000000E+00 -0.00000000000E+00 -0.74505805969E-08  0.93827000000E+00  0.93827000000E+00 0.  1.
     999902    2    1    2    0    0  0.42732338977E-02  0.16738183847E-01 -0.15940742580E-01  0.10204239455E+01  0.10201531718E+01 0.  0.
     999903    2    3    3    0    0  0.10884887362E+00 -0.64599047066E-01  0.20704723793E-01  0.12975301870E+00  0.19648055968E-01 0.  0.
         14    1    1    2    0    0 -0.42732338977E-02 -0.16738183847E-01  0.15940742580E-01  0.23506054549E-01  0.00000000000E+00 0.  1.
     999901    1    3    3    0    0 -0.10457563973E+00  0.81337230913E-01 -0.36645466373E-01  0.89067092675E+00  0.88000000000E+00 0.  1.
        -11    1    4    4    0    0  0.61224658351E-01 -0.40314495482E-01  0.21124843650E-01  0.76290480903E-01  0.51100000000E-03 0.  1.
         11    1    4    4    0    0  0.47624215271E-01 -0.24284551584E-01 -0.42011985680E-03  0.53462537795E-01  0.51100000000E-03 0. -1.
</event>
<event>
 8    1  0.1111182E+005  0.1043930E+01  0.7957747E-01            NaN
         13   -1    0    0    0    0  0.00000000000E+00  0.00000000000E+00  0.74505805969E-08  0.10566000000E+00  0.10566000000E+00 0. -1.
     999900   -1    0    0    0    0 -0.00000000000E+00 -0.00000000000E+00 -0.74505805969E-08  0.93827000000E+00  0.93827000000E+00 0.  1.
     999902    2    1    2    0    0 -0.23688639216E-01  0.19881350194E-01 -0.32483485179E-02  0.10128338349E+01  0.10123563630E+01 0.  0.
     999903    2    3    3    0    0 -0.11068325482E+00 -0.50105542689E-01  0.23608428391E-01  0.12537255985E+00  0.19989311264E-01 0.  0.
         14    1    1    2    0    0  0.23688639216E-01 -0.19881350194E-01  0.32483485179E-02  0.31096165062E-01  0.00000000000E+00 0. -1.
     999901    1    3    3    0    0  0.86994615609E-01  0.69986892883E-01 -0.26856776908E-01  0.88746127509E+00  0.88000000000E+00 0.  1.
        -11    1    4    4    0    0 -0.54487460062E-01 -0.28977181639E-01  0.26206050799E-02  0.61771263965E-01  0.51100000000E-03 0. -1.
         11    1    4    4    0    0 -0.56195794762E-01 -0.21128361049E-01  0.20987823311E-01  0.63601295882E-01  0.51100000000E-03 0.  1.
</event>
<event>
 8    1  0.1111182E+005  0.1043930E+01  0.7957747E-01            NaN
         13   -1    0    0    0    0  0.00000000000E+00  0.00000000000E+00  0.74505805969E-08  0.10566000000E+00  0.10566000000E+00 0. -1.
     999900   -1    0    0    0    0 -0.00000000000E+00 -0.00000000000E+00 -0.74505805969E-08  0.93827000000E+00  0.93827000000E+00 0.  1.
     999902    2    1    2    0    0  0.77039986809E-02  0.19142453198E-01  0.99535973361E-02  0.10210201940E+01  0.10207631348E+01 0.  0.
     999903    2    3    3    0    0  0.14178196726E-01 -0.76126698037E-01  0.10365641221E+00  0.13090877182E+00  0.19903751663E-01 0.  0.
         14    1    1    2    0    0 -0.77039986809E-02 -0.19142453198E-01 -0.99535973361E-02  0.22909805980E-01  0.00000000000E+00 0.  1.
     999901    1    3    3    0    0 -0.64741980450E-02  0.95269151235E-01 -0.93702814875E-01  0.89011142220E+00  0.88000000000E+00 0. -1.
        -11    1    4    4    0    0  0.77575840753E-02 -0.13001063236E-01  0.11495796302E-01  0.19016366887E-01  0.51100000000E-03 0.  1.
         11    1    4    4    0    0  0.64206126507E-02 -0.63125634802E-01  0.92160615908E-01  0.11189240493E+00  0.51100000000E-03 0. -1.
</event>
<event>
 8    1  0.1111182E+005  0.1043930E+01  0.7957747E-01            NaN
         13   -1    0    0    0    0  0.00000000000E+00  0.00000000000E+00  0.74505805969E-08  0.10566000000E+00  0.10566000000E+00 0.  1.
     999900   -1    0    0    0    0 -0.00000000000E+00 -0.00000000000E+00 -0.74505805969E-08  0.93827000000E+00  0.93827000000E+00 0.  1.
     999902    2    1    2    0    0 -0.73886338045E-02 -0.22166841665E-01 -0.16383005605E-02  0.10205068318E+01  0.10202379864E+01 0.  0.
     999903    2    3    3    0    0  0.68082311509E-02  0.53616257467E-01  0.11547215261E+00  0.12940667621E+00  0.22163364905E-01 0.  0.
         14    1    1    2    0    0  0.73886338045E-02  0.22166841665E-01  0.16383005605E-02  0.23423168181E-01  0.00000000000E+00 0. -1.
     999901    1    3    3    0    0 -0.14196864955E-01 -0.75783099132E-01 -0.11711045317E+00  0.89110015561E+00  0.88000000000E+00 0.  1.
        -11    1    4    4    0    0  0.82015860835E-02  0.13731952203E-01  0.52201410620E-01  0.54599275794E-01  0.51100000000E-03 0. -1.
         11    1    4    4    0    0 -0.13933549325E-02  0.39884305264E-01  0.63270741986E-01  0.74807400414E-01  0.51100000000E-03 0.  1.
</event>
<event>
 8    1  0.1111182E+005  0.1043930E+01  0.7957747E-01            NaN
         13   -1    0    0    0    0  0.00000000000E+00  0.00000000000E+00  0.74505805969E-08  0.10566000000E+00  0.10566000000E+00 0. -1.
     999900   -1    0    0    0    0 -0.00000000000E+00 -0.00000000000E+00 -0.74505805969E-08  0.93827000000E+00  0.93827000000E+00 0.  1.
     999902    2    1    2    0    0  0.12932504419E-01  0.83801105969E-02  0.17916360138E-01  0.10202979903E+01  0.10200242728E+01 0.  0.
     999903    2    3    3    0    0 -0.10113153082E+00 -0.23595126973E-01  0.76400427042E-01  0.13043653697E+00  0.19807785913E-01 0.  0.
         14    1    1    2    0    0 -0.12932504419E-01 -0.83801105969E-02 -0.17916360138E-01  0.23632009748E-01  0.00000000000E+00 0. -1.
     999901    1    3    3    0    0  0.11406403524E+00  0.31975237570E-01 -0.58484066904E-01  0.88986145328E+00  0.88000000000E+00 0.  1.
        -11    1    4    4    0    0 -0.64392875659E-02  0.21907123049E-02  0.93647600184E-02  0.11585486436E-01  0.51100000000E-03 0.  1.
         11    1    4    4    0    0 -0.94692243251E-01 -0.25785839278E-01  0.67035667024E-01  0.11885105054E+00  0.51100000000E-03 0. -1.
</event>
<event>
 8    1  0.1111182E+005  0.1043930E+01  0.7957747E-01            NaN
         13   -1    0    0    0    0  0.00000000000E+00  0.00000000000E+00  0.74505805969E-08  0.10566000000E+00  0.10566000000E+00 0. -1.
     999900   -1    0    0    0    0 -0.00000000000E+00 -0.00000000000E+00 -0.74505805969E-08  0.93827000000E+00  0.93827000000E+00 0. -1.
     999902    2    1    2    0    0  0.11619006641E-01 -0.92018435934E-02 -0.22072255100E-03  0.10291069113E+01  0.10290001511E+01 0.  0.
     999903    2    3    3    0    0 -0.11454791846E+00  0.15740304309E-01  0.70654370494E-01  0.13693905569E+00  0.19780851840E-01 0.  0.
         14    1    1    2    0    0 -0.11619006641E-01  0.92018435934E-02  0.22072255100E-03  0.14823088723E-01  0.00000000000E+00 0.  1.
     999901    1    3    3    0    0  0.12616692510E+00 -0.24942147902E-01 -0.70875093045E-01  0.89216785559E+00  0.88000000000E+00 0. -1.
        -11    1    4    4    0    0 -0.85306350098E-01  0.14336625184E-01  0.42745942864E-01  0.96489320347E-01  0.51100000000E-03 0. -1.
         11    1    4    4    0    0 -0.29241568362E-01  0.14036791251E-02  0.27908427630E-01  0.40449735341E-01  0.51100000000E-03 0.  1.
</event>
<event>
 8    1  0.1111182E+005  0.1043930E+01  0.7957747E-01            NaN
         13   -1    0    0    0    0  0.00000000000E+00  0.00000000000E+00  0.74505805969E-08  0.10566000000E+00  0.10566000000E+00 0. -1.
     999900   -1    0    0    0    0 -0.00000000000E+00 -0.00000000000E+00 -0.74505805969E-08  0.93827000000E+00  0.93827000000E+00 0. -1.
     999902    2    1    2    0    0 -0.17789087238E-01 -0.48576760568E-02 -0.17542849747E-01  0.10184780803E+01  0.10181600069E+01 0.  0.
     999903    2    3    3    0    0 -0.69397354114E-01  0.37188856059E-01 -0.10392134385E+00  0.13174668445E+00  0.18935136167E-01 0.  0.
         14    1    1    2    0    0  0.17789087238E-01  0.48576760568E-02  0.17542849747E-01  0.25451919744E-01  0.00000000000E+00 0. -1.
     999901    1    3    3    0    0  0.51608266876E-01 -0.42046532116E-01  0.86378494104E-01  0.88673139581E+00  0.88000000000E+00 0.  1.
        -11    1    4    4    0    0 -0.28491759570E-01  0.10879622263E-01 -0.26988610945E-01  0.40728279926E-01  0.51100000000E-03 0.  1.
         11    1    4    4    0    0 -0.40905594543E-01  0.26309233797E-01 -0.76932732905E-01  0.91018404519E-01  0.51100000000E-03 0. -1.
</event>
<event>
 8    1  0.1111182E+005  0.1043930E+01  0.7957747E-01            NaN
         13   -1    0    0    0    0  0.00000000000E+00  0.00000000000E+00  0.74505805969E-08  0.10566000000E+00  0.10566000000E+00 0. -1.
     999900   -1    0    0    0    0 -0.00000000000E+00 -0.00000000000E+00 -0.74505805969E-08  0.93827000000E+00  0.93827000000E+00 0. -1.
     999902    2    1    2    0    0  0.16796344005E-01  0.52205113370E-03 -0.17152232979E-01  0.10199177364E+01  0.10196350328E+01 0.  0.
     999903    2    3    3    0    0 -0.11040623469E+00 -0.55616130047E-01  0.26394994475E-01  0.12793771840E+00  0.19714803493E-01 0.  0.
         14    1    1    2    0    0 -0.16796344005E-01 -0.52205113370E-03  0.17152232979E-01  0.24012263647E-01  0.00000000000E+00 0. -1.
     999901    1    3    3    0    0  0.12720257869E+00  0.56138181180E-01 -0.43547227453E-01  0.89198001795E+00  0.88000000000E+00 0.  1.
        -11    1    4    4    0    0 -0.51844949697E-01 -0.27750450176E-01  0.22505138295E-01  0.62966091388E-01  0.51100000000E-03 0. -1.
         11    1    4    4    0    0 -0.58561284989E-01 -0.27865679870E-01  0.38898561796E-02  0.64971627010E-01  0.51100000000E-03 0.  1.
</event>
<event>
 8    1  0.1111182E+005  0.1043930E+01  0.7957747E-01            NaN
         13   -1    0    0    0    0  0.00000000000E+00  0.00000000000E+00  0.74505805969E-08  0.10566000000E+00  0.10566000000E+00 0.  1.
     999900   -1    0    0    0    0 -0.00000000000E+00 -0.00000000000E+00 -0.74505805969E-08  0.93827000000E+00  0.93827000000E+00 0. -1.
     999902    2    1    2    0    0  0.19870991155E-01 -0.10282178614E-01 -0.80193715243E-02  0.10201625894E+01  0.10198856892E+01 0.  0.
     999903    2    3    3    0    0 -0.48115635641E-01 -0.11923191781E+00 -0.13800004083E-01  0.13082258536E+00  0.19817772570E-01 0.  0.
         14    1    1    2    0    0 -0.19870991155E-01  0.10282178614E-01  0.80193715243E-02  0.23767410590E-01  0.00000000000E+00 0.  1.
     999901    1    3    3    0    0  0.67986626796E-01  0.10894973919E+00  0.57806325585E-02  0.88934000405E+00  0.88000000000E+00 0.  1.
        -11    1    4    4    0    0 -0.20642658597E-01 -0.43308982149E-01 -0.14345820916E-01  0.50078448334E-01  0.51100000000E-03 0. -1.
         11    1    4    4    0    0 -0.27472977044E-01 -0.75922935660E-01  0.54581683323E-03  0.80744137025E-01  0.51100000000E-03 0.  1.
</event>
<event>
 8    1  0.1111182E+005  0.1043930E+01  0.7957747E-01            NaN
         13   -1    0    0    0    0  0.00000000000E+00  0.00000000000E+00  0.74505805969E-08  0.10566000000E+00  0.10566000000E+00 0.  1.
     999900   -1    0    0    0    0 -0.00000000000E+00 -0.00000000000E+00 -0.74505805969E-08  0.93827000000E+00  0.93827000000E+00 0. -1.
     999902    2    1    2    0    0 -0.14059030933E-01  0.19249889125E-01  0.42256679848E-02  0.10197210997E+01  0.10194336910E+01 0.  0.
     999903    2    3    3    0    0 -0.40923613395E-01  0.12426732577E+00 -0.12420371289E-01  0.13291364689E+00  0.19866089724E-01 0.  0.
         14    1    1    2    0    0  0.14059030933E-01 -0.19249889125E-01 -0.42256679848E-02  0.24208900264E-01  0.00000000000E+00 0. -1.
     999901    1    3    3    0    0  0.26864582462E-01 -0.10501743664E+00  0.16646039273E-01  0.88680745284E+00  0.88000000000E+00 0. -1.
        -11    1    4    4    0    0 -0.31007086450E-01  0.97970425622E-01 -0.15421878519E-02  0.10277296907E+00  0.51100000000E-03 0.  1.
         11    1    4    4    0    0 -0.99165269450E-02  0.26296900146E-01 -0.10878183437E-01  0.30140677827E-01  0.51100000000E-03 0. -1.
</event>
<event>
 8    1  0.1111182E+005  0.1043930E+01  0.7957747E-01            NaN
         13   -1    0    0    0    0  0.00000000000E+00  0.00000000000E+00  0.74505805969E-08  0.10566000000E+00  0.10566000000E+00 0.  1.
     999900   -1    0    0    0    0 -0.00000000000E+00 -0.00000000000E+00 -0.74505805969E-08  0.93827000000E+00  0.93827000000E+00 0. -1.
     999902    2    1    2    0    0 -0.14134731121E-01  0.37185769247E-02  0.19005726480E-01  0.10199542607E+01  0.10196724267E+01 0.  0.
     999903    2    3    3    0    0  0.30470291929E-01  0.12498215704E+00 -0.65889884579E-02  0.13015116256E+00  0.18626112769E-01 0.  0.
         14    1    1    2    0    0  0.14134731121E-01 -0.37185769247E-02 -0.19005726480E-01  0.23975739347E-01  0.00000000000E+00 0. -1.
     999901    1    3    3    0    0 -0.44605023049E-01 -0.12126358012E+00  0.25594714938E-01  0.88980309809E+00  0.88000000000E+00 0.  1.
        -11    1    4    4    0    0  0.31542422811E-01  0.99347586389E-01 -0.33962170332E-02  0.10429124014E+00  0.51100000000E-03 0.  1.
         11    1    4    4    0    0 -0.10721308825E-02  0.25634570655E-01 -0.31927714247E-02  0.25859922422E-01  0.51100000000E-03 0. -1.
</event>
<event>
 8    1  0.1111182E+005  0.1043930E+01  0.7957747E-01            NaN
         13   -1    0    0    0    0  0.00000000000E+00  0.00000000000E+00  0.74505805969E-08  0.10566000000E+00  0.10566000000E+00 0. -1.
     999900   -1    0    0    0    0 -0.00000000000E+00 -0.00000000000E+00 -0.74505805969E-08  0.93827000000E+00  0.93827000000E+00 0.  1.
     999902    2    1    2    0    0 -0.12724235295E-01  0.19493640562E-01 -0.28472608699E-03  0.10206493373E+01  0.10203837908E+01 0.  0.
     999903    2    3    3    0    0 -0.11497636236E+00  0.58168780988E-02 -0.62710175139E-01  0.13242668054E+00  0.18731248755E-01 0.  0.
         14    1    1    2    0    0  0.12724235295E-01 -0.19493640562E-01  0.28472608699E-03  0.23280662687E-01  0.00000000000E+00 0.  1.
     999901    1    3    3    0    0  0.10225212706E+00  0.13676762463E-01  0.62425449052E-01  0.88822265678E+00  0.88000000000E+00 0. -1.
        -11    1    4    4    0    0 -0.82475004510E-01  0.72529549062E-02 -0.53628727852E-01  0.98645999898E-01  0.51100000000E-03 0. -1.
         11    1    4    4    0    0 -0.32501357849E-01 -0.14360768074E-02 -0.90814472873E-02  0.33780680639E-01  0.51100000000E-03 0.  1.
</event>
<event>
 8    1  0.1111182E+005  0.1043930E+01  0.7957747E-01            NaN
         13   -1    0    0    0    0  0.00000000000E+00  0.00000000000E+00  0.74505805969E-08  0.10566000000E+00  0.10566000000E+00 0.  1.
     999900   -1    0    0    0    0 -0.00000000000E+00 -0.00000000000E+00 -0.74505805969E-08  0.93827000000E+00  0.93827000000E+00 0.  1.
     999902    2    1    2    0    0  0.17500419304E-01 -0.24990664696E-02 -0.18551890059E-01  0.10183041803E+01  0.10179816899E+01 0.  0.
     999903    2    3    3    0    0 -0.36058865449E-02  0.12403419611E+00  0.23162055696E-01  0.12802546220E+00  0.21367122518E-01 0.  0.
         14    1    1    2    0    0 -0.17500419304E-01  0.24990664696E-02  0.18551890059E-01  0.25625819671E-01  0.00000000000E+00 0.  1.
     999901    1    3    3    0    0  0.21106305849E-01 -0.12653326258E+00 -0.41713945755E-01  0.89027871813E+00  0.88000000000E+00 0. -1.
        -11    1    4    4    0    0 -0.92331256732E-02  0.29185595884E-01  0.93406024052E-02  0.32008711175E-01  0.51100000000E-03 0.  1.
         11    1    4    4    0    0  0.56272391283E-02  0.94848600226E-01  0.13821453290E-01  0.96016751023E-01  0.51100000000E-03 0. -1.
</event>
<event>
 8    1  0.1111182E+005  0.1043930E+01  0.7957747E-01            NaN
         13   -1    0    0    0    0  0.00000000000E+00  0.00000000000E+00  0.74505805969E-08  0.10566000000E+00  0.10566000000E+00 0. -1.
     999900   -1    0    0    0    0 -0.00000000000E+00 -0.00000000000E+00 -0.74505805969E-08  0.93827000000E+00  0.93827000000E+00 0. -1.
     999902    2    1    2    0    0 -0.88556633437E-02 -0.20891377668E-01  0.65599748270E-02  0.10203099724E+01  0.10200365357E+01 0.  0.
     999903    2    3    3    0    0 -0.25318147566E-01 -0.12846627457E+00  0.17265002586E-01  0.13354169971E+00  0.19766460214E-01 0.  0.
         14    1    1    2    0    0  0.88556633437E-02  0.20891377668E-01 -0.65599748270E-02  0.23620027601E-01  0.00000000000E+00 0. -1.
     999901    1    3    3    0    0  0.16462484222E-01  0.10757489690E+00 -0.10705027759E-01  0.88676827269E+00  0.88000000000E+00 0. -1.
        -11    1    4    4    0    0 -0.41364832420E-02 -0.48147807276E-01 -0.16234014543E-02  0.48355127881E-01  0.51100000000E-03 0. -1.
         11    1    4    4    0    0 -0.21181664324E-01 -0.80318467292E-01  0.18888404041E-01  0.85186571829E-01  0.51100000000E-03 0.  1.
</event>
<event>
 8    1  0.1111182E+005  0.1043930E+01  0.7957747E-01            NaN
         13   -1    0    0    0    0  0.00000000000E+00  0.00000000000E+00  0.74505805969E-08  0.10566000000E+00  0.10566000000E+00 0. -1.
     999900   -1    0    0    0    0 -0.00000000000E+00 -0.00000000000E+00 -0.74505805969E-08  0.93827000000E+00  0.93827000000E+00 0. -1.
     999902    2    1    2    0    0  0.56069716021E-02 -0.20951953641E-01 -0.49676724041E-02  0.10216791515E+01  0.10214368254E+01 0.  0.
     999903    2    3    3    0    0  0.16671065574E-01  0.32611317106E-01  0.12394402273E+00  0.13060695276E+00  0.18831699551E-01 0.  0.
         14    1    1    2    0    0 -0.56069716021E-02  0.20951953641E-01  0.49676724041E-02  0.22250848546E-01  0.00000000000E+00 0.  1.
     999901    1    3    3    0    0 -0.11064093972E-01 -0.53563270747E-01 -0.12891169513E+00  0.89107219870E+00  0.88000000000E+00 0. -1.
        -11    1    4    4    0    0 -0.59755514507E-03  0.19245177930E-01  0.54062348193E-01  0.57391049466E-01  0.51100000000E-03 0. -1.
         11    1    4    4    0    0  0.17268620719E-01  0.13366139177E-01  0.69881674534E-01  0.73215903291E-01  0.51100000000E-03 0.  1.
</event>
<event>
 8    1  0.1111182E+005  0.1043930E+01  0.7957747E-01            NaN
         13   -1    0    0    0    0  0.00000000000E+00  0.00000000000E+00  0.74505805969E-08  0.10566000000E+00  0.10566000000E+00 0. -1.
     999900   -1    0    0    0    0 -0.00000000000E+00 -0.00000000000E+00 -0.74505805969E-08  0.93827000000E+00  0.93827000000E+00 0.  1.
     999902    2    1    2    0    0  0.23289607161E-01  0.36394276632E-02  0.12540964705E-01  0.10172293065E+01  0.10168788202E+01 0.  0.
     999903    2    3    3    0    0 -0.60301963029E-02 -0.67590833560E-01  0.10755433687E+00  0.12876943582E+00  0.20217521476E-01 0.  0.
         14    1    1    2    0    0 -0.23289607161E-01 -0.36394276632E-02 -0.12540964705E-01  0.26700693459E-01  0.00000000000E+00 0.  1.
     999901    1    3    3    0    0  0.29319803464E-01  0.71230261223E-01 -0.95013372161E-01  0.88845987072E+00  0.88000000000E+00 0.  1.
        -11    1    4    4    0    0 -0.14896913476E-02 -0.23637874478E-01  0.21315981892E-01  0.31868487494E-01  0.51100000000E-03 0. -1.
         11    1    4    4    0    0 -0.45405049553E-02 -0.43952959082E-01  0.86238354974E-01  0.96900948328E-01  0.51100000000E-03 0.  1.
</event>
<event>
 8    1  0.1111182E+005  0.1043930E+01  0.7957747E-01            NaN
         13   -1    0    0    0    0  0.00000000000E+00  0.00000000000E+00  0.74505805969E-08  0.10566000000E+00  0.10566000000E+00 0. -1.
     999900   -1    0    0    0    0 -0.00000000000E+00 -0.00000000000E+00 -0.74505805969E-08  0.93827000000E+00  0.93827000000E+00 0.  1.
     999902    2    1    2    0    0 -0.17558503803E-01  0.11315406885E-01  0.10845227885E-01  0.10203936779E+01  0.10201221983E+01 0.  0.
     999903    2    3    3    0    0  0.82481420582E-02 -0.89581432585E-02 -0.12712545538E+00  0.12903914171E+00  0.18491579419E-01 0.  0.
         14    1    1    2    0    0  0.17558503803E-01 -0.11315406885E-01 -0.10845227885E-01  0.23536322072E-01  0.00000000000E+00 0.  1.
     999901    1    3    3    0    0 -0.25806645862E-01  0.20273550144E-01  0.13797068326E+00  0.89135453622E+00  0.88000000000E+00 0. -1.
        -11    1    4    4    0    0 -0.35605777575E-02 -0.32783320051E-02 -0.79276163358E-01  0.79425413895E-01  0.51100000000E-03 0.  1.
         11    1    4    4    0    0  0.11808719816E-01 -0.56798112534E-02 -0.47849292018E-01  0.49613727810E-01  0.51100000000E-03 0. -1.
</event>
<event>
 8    1  0.1111182E+005  0.1043930E+01  0.7957747E-01            NaN
         13   -1    0    0    0    0  0.00000000000E+00  0.00000000000E+00  0.74505805969E-08  0.10566000000E+00  0.10566000000E+00 0.  1.
     999900   -1    0    0    0    0 -0.00000000000E+00 -0.00000000000E+00 -0.74505805969E-08  0.93827000000E+00  0.93827000000E+00 0.  1.
     999902    2    1    2    0    0 -0.14753176210E-01  0.18256189383E-01 -0.17441694856E-04  0.10204577832E+01  0.10201877975E+01 0.  0.
     999903    2    3    3    0    0  0.14158901428E-01  0.87906674185E-01  0.95320415673E-01  0.13210177045E+00  0.20900675999E-01 0.  0.
         14    1    1    2    0    0  0.14753176210E-01 -0.18256189383E-01  0.17441694856E-04  0.23472216838E-01  0.00000000000E+00 0.  1.
     999901    1    3    3    0    0 -0.28912077637E-01 -0.69650484802E-01 -0.95337857368E-01  0.88835601271E+00  0.88000000000E+00 0.  1.
        -11    1    4    4    0    0  0.72133389916E-02  0.27618970406E-01  0.17773620243E-01  0.33630380361E-01  0.51100000000E-03 0.  1.
         11    1    4    4    0    0  0.69455624360E-02  0.60287703780E-01  0.77546795429E-01  0.98471390093E-01  0.51100000000E-03 0. -1.
</event>
<event>
 8    1  0.1111182E+005  0.1043930E+01  0.7957747E-01            NaN
         13   -1    0    0    0    0  0.00000000000E+00  0.00000000000E+00  0.74505805969E-08  0.10566000000E+00  0.10566000000E+00 0. -1.
     999900   -1    0    0    0    0 -0.00000000000E+00 -0.00000000000E+00 -0.74505805969E-08  0.93827000000E+00  0.93827000000E+00 0.  1.
     999902    2    1    2    0    0  0.14299688082E-01  0.31911972214E-02  0.68275274576E-03  0.10292626563E+01  0.10291581437E+01 0.  0.
     999903    2    3    3    0    0 -0.96944184711E-01 -0.66471762699E-01 -0.66783553144E-01  0.13697356100E+00  0.22023697626E-01 0.  0.
         14    1    1    2    0    0 -0.14299688082E-01 -0.31911972214E-02 -0.68275274576E-03  0.14667343667E-01  0.00000000000E+00 0. -1.
     999901    1    3    3    0    0  0.11124387279E+00  0.69662959920E-01  0.67466305889E-01  0.89228909533E+00  0.88000000000E+00 0. -1.
        -11    1    4    4    0    0 -0.71491853146E-01 -0.56776645787E-01 -0.58776860975E-01  0.10858016891E+00  0.51100000000E-03 0. -1.
         11    1    4    4    0    0 -0.25452331565E-01 -0.96951169117E-02 -0.80066921689E-02  0.28393392093E-01  0.51100000000E-03 0.  1.
</event>
<event>
 8    1  0.1111182E+005  0.1043930E+01  0.7957747E-01            NaN
         13   -1    0    0    0    0  0.00000000000E+00  0.00000000000E+00  0.74505805969E-08  0.10566000000E+00  0.10566000000E+00 0. -1.
     999900   -1    0    0    0    0 -0.00000000000E+00 -0.00000000000E+00 -0.74505805969E-08  0.93827000000E+00  0.93827000000E+00 0.  1.
     999902    2    1    2    0    0 -0.24482836116E-01  0.36766796801E-03  0.28080345121E-02  0.10192839151E+01  0.10189859028E+01 0.  0.
     999903    2    3    3    0    0  0.45057891147E-01  0.37360059573E-01 -0.11245557675E+00  0.12827883661E+00  0.19575892622E-01 0.  0.
         14    1    1    2    0    0  0.24482836116E-01 -0.36766796801E-03 -0.28080345121E-02  0.24646084919E-01  0.00000000000E+00 0.  1.
     999901    1    3    3    0    0 -0.69540727263E-01 -0.36992391605E-01  0.11526361127E+00  0.89100507847E+00  0.88000000000E+00 0. -1.
        -11    1    4    4    0    0  0.42279071920E-01  0.28044621449E-01 -0.10241553475E+00  0.11429446004E+00  0.51100000000E-03 0. -1.
         11    1    4    4    0    0  0.27788192273E-02  0.93154381231E-02 -0.10040042000E-01  0.13984376572E-01  0.51100000000E-03 0.  1.
</event>
<event>
 8    1  0.1111182E+005  0.1043930E+01  0.7957747E-01            NaN
         13   -1    0    0    0    0  0.00000000000E+00  0.00000000000E+00  0.74505805969E-08  0.10566000000E+00  0.10566000000E+00 0. -1.
     999900   -1    0    0    0    0 -0.00000000000E+00 -0.00000000000E+00 -0.74505805969E-08  0.93827000000E+00  0.93827000000E+00 0.  1.
     999902    2    1    2    0    0  0.22312459671E-01 -0.87018654991E-02  0.41927235586E-02  0.10196164801E+01  0.10193265518E+01 0.  0.
     999903    2    3    3    0    0  0.23695656862E-01  0.32529264106E-01  0.12283561488E+00  0.13069688027E+00  0.19324829878E-01 0.  0.
         14    1    1    2    0    0 -0.22312459671E-01  0.87018654991E-02 -0.41927235586E-02  0.24313519913E-01  0.00000000000E+00 0. -1.
     999901    1    3    3    0    0 -0.13831971910E-02 -0.41231129605E-01 -0.11864289133E+00  0.88891959982E+00  0.88000000000E+00 0.  1.
        -11    1    4    4    0    0  0.41813139793E-02  0.79958274432E-02  0.57757691464E-01  0.58460488258E-01  0.51100000000E-03 0. -1.
         11    1    4    4    0    0  0.19514342883E-01  0.24533436663E-01  0.65077923420E-01  0.72236392008E-01  0.51100000000E-03 0.  1.
</event>
<event>
 8    1  0.1111182E+005  0.1043930E+01  0.7957747E-01            NaN
         13   -1    0    0    0    0  0.00000000000E+00  0.00000000000E+00  0.74505805969E-08  0.10566000000E+00  0.10566000000E+00 0. -1.
     999900   -1    0    0    0    0 -0.00000000000E+00 -0.00000000000E+00 -0.74505805969E-08  0.93827000000E+00  0.93827000000E+00 0. -1.
     999902    2    1    2    0    0  0.34015613608E-03 -0.13246960257E-01 -0.22107332440E-01  0.10181553650E+01  0.10178290699E+01 0.  0.
     999903    2    3    3    0    0 -0.75092491203E-01 -0.89423380783E-01  0.50255589790E-01  0.12870085584E+00  0.20071440506E-01 0.  0.
         14    1    1    2    0    0 -0.34015613608E-03  0.13246960257E-01  0.22107332440E-01  0.25774635009E-01  0.00000000000E+00 0. -1.
     999901    1    3    3    0    0  0.75432647340E-01  0.76176420526E-01 -0.72362922230E-01  0.88945450915E+00  0.88000000000E+00 0. -1.
        -11    1    4    4    0    0 -0.54393951081E-01 -0.65224563266E-01  0.26498716574E-01  0.88968470081E-01  0.51100000000E-03 0. -1.
         11    1    4    4    0    0 -0.20698540122E-01 -0.24198817516E-01  0.23756873216E-01  0.39732385763E-01  0.51100000000E-03 0.  1.
</event>
<event>
 8    1  0.1111182E+005  0.1043930E+01  0.7957747E-01            NaN
         13   -1    0    0    0    0  0.00000000000E+00  0.00000000000E+00  0.74505805969E-08  0.10566000000E+00  0.10566000000E+00 0.  1.
     999900   -1    0    0    0    0 -0.00000000000E+00 -0.00000000000E+00 -0.74505805969E-08  0.93827000000E+00  0.93827000000E+00 0.  1.
     999902    2    1    2    0    0 -0.60581053136E-02 -0.23933916701E-01  0.23198418996E-02  0.10191325268E+01  0.10188307968E+01 0.  0.
     999903    2    3    3    0    0 -0.23168762520E-01  0.83257572898E-01 -0.91658527584E-01  0.12749654508E+00  0.19633347347E-01 0.  0.
         14    1    1    2    0    0  0.60581053136E-02  0.23933916701E-01 -0.23198418996E-02  0.24797473159E-01  0.00000000000E+00 0. -1.
     999901    1    3    3    0    0  0.17110657207E-01 -0.10719148960E+00  0.93978369484E-01  0.89163598176E+00  0.88000000000E+00 0. -1.
        -11    1    4    4    0    0 -0.16009019306E-01  0.73718896527E-01 -0.70772942457E-01  0.10344000633E+00  0.51100000000E-03 0.  1.
         11    1    4    4    0    0 -0.71597432146E-02  0.95386763711E-02 -0.20885585127E-01  0.24056538756E-01  0.51100000000E-03 0. -1.
</event>
<event>
 8    1  0.1111182E+005  0.1043930E+01  0.7957747E-01            NaN
         13   -1    0    0    0    0  0.00000000000E+00  0.00000000000E+00  0.74505805969E-08  0.10566000000E+00  0.10566000000E+00 0. -1.
     999900   -1    0    0    0    0 -0.00000000000E+00 -0.00000000000E+00 -0.74505805969E-08  0.93827000000E+00  0.93827000000E+00 0.  1.
     999902    2    1    2    0    0 -0.17631669016E-01  0.15729643458E-01  0.27147877292E-02  0.10201462344E+01  0.10198689484E+01 0.  0.
     999903    2    3    3    0    0  0.89699253412E-01  0.54572661965E-01  0.73852660315E-01  0.12992755116E+00  0.20070416515E-01 0.  0.
         14    1    1    2    0    0  0.17631669016E-01 -0.15729643458E-01 -0.27147877292E-02  0.23783765640E-01  0.00000000000E+00 0. -1.
     999901    1    3    3    0    0 -0.10733092243E+00 -0.38843018507E-01 -0.71137872586E-01  0.89021868320E+00  0.88000000000E+00 0.  1.
        -11    1    4    4    0    0  0.37752154068E-01  0.30353527273E-01  0.24484018716E-01  0.54279738836E-01  0.51100000000E-03 0. -1.
         11    1    4    4    0    0  0.51947099344E-01  0.24219134692E-01  0.49368641599E-01  0.75647812327E-01  0.51100000000E-03 0.  1.
</event>
<event>
 8    1  0.1111182E+005  0.1043930E+01  0.7957747E-01            NaN
         13   -1    0    0    0    0  0.00000000000E+00  0.00000000000E+00  0.74505805969E-08  0.10566000000E+00  0.10566000000E+00 0. -1.
     999900   -1    0    0    0    0 -0.00000000000E+00 -0.00000000000E+00 -0.74505805969E-08  0.93827000000E+00  0.93827000000E+00 0.  1.
     999902    2    1    2    0    0  0.74146744527E-02 -0.15955349442E-01  0.16137185896E-01  0.10200561787E+01  0.10197767640E+01 0.  0.
     999903    2    3    3    0    0 -0.22485437488E-01 -0.12810629099E+00  0.15935139249E-01  0.13243469905E+00  0.19188646588E-01 0.  0.
         14    1    1    2    0    0 -0.74146744527E-02  0.15955349442E-01 -0.16137185896E-01  0.23873821264E-01  0.00000000000E+00 0.  1.
     999901    1    3    3    0    0  0.29900111940E-01  0.11215094155E+00  0.20204664778E-03  0.88762147969E+00  0.88000000000E+00 0.  1.
        -11    1    4    4    0    0 -0.23945918293E-01 -0.11633226830E+00  0.10093576115E-01  0.11920044065E+00  0.51100000000E-03 0. -1.
         11    1    4    4    0    0  0.14604808049E-02 -0.11774022693E-01  0.58415631335E-02  0.13234258400E-01  0.51100000000E-03 0.  1.
</event>
<event>
 8    1  0.1111182E+005  0.1043930E+01  0.7957747E-01            NaN
         13   -1    0    0    0    0  0.00000000000E+00  0.00000000000E+00  0.74505805969E-08  0.10566000000E+00  0.10566000000E+00 0.  1.
     999900   -1    0    0    0    0 -0.00000000000E+00 -0.00000000000E+00 -0.74505805969E-08  0.93827000000E+00  0.93827000000E+00 0.  1.
     999902    2    1    2    0    0 -0.60459959221E-02  0.20136693804E-02 -0.23215459413E-01  0.10198558129E+01  0.10195716319E+01 0.  0.
     999903    2    3    3    0    0 -0.48972701098E-01  0.25188375561E-01  0.11373049904E+00  0.12792870565E+00  0.19958647278E-01 0.  0.
         14    1    1    2    0    0  0.60459959221E-02 -0.20136693804E-02  0.23215459413E-01  0.24074187148E-01  0.00000000000E+00 0.  1.
     999901    1    3    3    0    0  0.42926705176E-01 -0.23174706180E-01 -0.13694595845E+00  0.89192710720E+00  0.88000000000E+00 0.  1.
        -11    1    4    4    0    0 -0.17694691742E-01  0.60639531180E-03  0.47148149334E-01  0.50365453812E-01  0.51100000000E-03 0.  1.
         11    1    4    4    0    0 -0.31278009357E-01  0.24581980249E-01  0.66582349707E-01  0.77563251839E-01  0.51100000000E-03 0. -1.
</event>
<event>
 8    1  0.1111182E+005  0.1043930E+01  0.7957747E-01            NaN
         13   -1    0    0    0    0  0.00000000000E+00  0.00000000000E+00  0.74505805969E-08  0.10566000000E+00  0.10566000000E+00 0. -1.
     999900   -1    0    0    0    0 -0.00000000000E+00 -0.00000000000E+00 -0.74505805969E-08  0.93827000000E+00  0.93827000000E+00 0. -1.
     999902    2    1    2    0    0 -0.11692157514E-01  0.51467759731E-02 -0.19255109642E-01  0.10208225316E+01  0.10205609663E+01 0.  0.
     999903    2    3    3    0    0  0.97729825392E-01  0.17039237065E-01  0.79207533836E-01  0.12851681426E+00  0.20032068284E-01 0.  0.
         14    1    1    2    0    0  0.11692157514E-01 -0.51467759731E-02  0.19255109642E-01  0.23107468438E-01  0.00000000000E+00 0. -1.
     999901    1    3    3    0    0 -0.10942198291E+00 -0.11892461092E-01 -0.98462643479E-01  0.89230571730E+00  0.88000000000E+00 0. -1.
        -11    1    4    4    0    0  0.48536694582E-01  0.13451216619E-01  0.51068158911E-01  0.71728403893E-01  0.51100000000E-03 0. -1.
         11    1    4    4    0    0  0.49193130809E-01  0.35880204454E-02  0.28139374925E-01  0.56788410364E-01  0.51100000000E-03 0.  1.
</event>
<event>
 8    1  0.1111182E+005  0.1043930E+01  0.7957747E-01            NaN
         13   -1    0    0    0    0  0.00000000000E+00  0.00000000000E+00  0.74505805969E-08  0.10566000000E+00  0.10566000000E+00 0.  1.
     999900   -1    0    0    0    0 -0.00000000000E+00 -0.00000000000E+00 -0.74505805969E-08  0.93827000000E+00  0.93827000000E+00 0. -1.
     999902    2    1    2    0    0  0.14618327326E-01 -0.14189646815E-01 -0.11495467207E-01  0.10205379642E+01  0.10202698413E+01 0.  0.
     999903    2    3    3    0    0 -0.70462160734E-01  0.10535354949E+00 -0.17640731338E-03  0.12831748345E+00  0.20026456333E-01 0.  0.
         14    1    1    2    0    0 -0.14618327326E-01  0.14189646815E-01  0.11495467207E-01  0.23392035757E-01  0.00000000000E+00 0.  1.
     999901    1    3    3    0    0  0.85080488060E-01 -0.11954319631E+00 -0.11319059893E-01  0.89222048079E+00  0.88000000000E+00 0.  1.
        -11    1    4    4    0    0 -0.36754211282E-01  0.72270136720E-01 -0.53804691782E-03  0.81082645023E-01  0.51100000000E-03 0.  1.
         11    1    4    4    0    0 -0.33707949452E-01  0.33083412773E-01  0.36163960444E-03  0.47234838426E-01  0.51100000000E-03 0. -1.
</event>
<event>
 8    1  0.1111182E+005  0.1043930E+01  0.7957747E-01            NaN
         13   -1    0    0    0    0  0.00000000000E+00  0.00000000000E+00  0.74505805969E-08  0.10566000000E+00  0.10566000000E+00 0.  1.
     999900   -1    0    0    0    0 -0.00000000000E+00 -0.00000000000E+00 -0.74505805969E-08  0.93827000000E+00  0.93827000000E+00 0. -1.
     999902    2    1    2    0    0 -0.67092737280E-03 -0.17966555561E-01  0.15097961624E-01  0.10204524425E+01  0.10201823325E+01 0.  0.
     999903    2    3    3    0    0 -0.52497979060E-01 -0.51966297142E-01  0.10896006163E+00  0.13329286295E+00  0.20932234447E-01 0.  0.
         14    1    1    2    0    0  0.67092737280E-03  0.17966555561E-01 -0.15097961624E-01  0.23477557528E-01  0.00000000000E+00 0. -1.
     999901    1    3    3    0    0  0.51827051687E-01  0.33999741581E-01 -0.93862100010E-01  0.88715957952E+00  0.88000000000E+00 0. -1.
        -11    1    4    4    0    0 -0.44236265382E-01 -0.42545381505E-01  0.73942355769E-01  0.96097293198E-01  0.51100000000E-03 0. -1.
         11    1    4    4    0    0 -0.82617136771E-02 -0.94209156371E-02  0.35017705865E-01  0.37195569755E-01  0.51100000000E-03 0.  1.
</event>
<event>
 8    1  0.1111182E+005  0.1043930E+01  0.7957747E-01            NaN
         13   -1    0    0    0    0  0.00000000000E+00  0.00000000000E+00  0.74505805969E-08  0.10566000000E+00  0.10566000000E+00 0. -1.
     999900   -1    0    0    0    0 -0.00000000000E+00 -0.00000000000E+00 -0.74505805969E-08  0.93827000000E+00  0.93827000000E+00 0. -1.
     999902    2    1    2    0    0 -0.13643705017E-01 -0.18108685545E-01 -0.67808729276E-02  0.10202645100E+01  0.10199900073E+01 0.  0.
     999903    2    3    3    0    0  0.63655554113E-02  0.12554008767E+00 -0.17187665870E-01  0.12833197787E+00  0.19309240768E-01 0.  0.
         14    1    1    2    0    0  0.13643705017E-01  0.18108685545E-01  0.67808729276E-02  0.23665489989E-01  0.00000000000E+00 0. -1.
     999901    1    3    3    0    0 -0.20009260428E-01 -0.14364877321E+00  0.10406792942E-01  0.89193253214E+00  0.88000000000E+00 0.  1.
        -11    1    4    4    0    0  0.11060379543E-01  0.53757438380E-01 -0.27162587552E-02  0.54953010467E-01  0.51100000000E-03 0.  1.
         11    1    4    4    0    0 -0.46948241316E-02  0.71782649289E-01 -0.14471407114E-01  0.73378967405E-01  0.51100000000E-03 0. -1.
</event>
<event>
 8    1  0.1111182E+005  0.1043930E+01  0.7957747E-01            NaN
         13   -1    0    0    0    0  0.00000000000E+00  0.00000000000E+00  0.74505805969E-08  0.10566000000E+00  0.10566000000E+00 0.  1.
     999900   -1    0    0    0    0 -0.00000000000E+00 -0.00000000000E+00 -0.74505805969E-08  0.93827000000E+00  0.93827000000E+00 0.  1.
     999902    2    1    2    0    0  0.50122136610E-02 -0.22219501286E-01  0.63362061919E-02  0.10202873260E+01  0.10200133586E+01 0.  0.
     999903    2    3    3    0    0  0.12022116582E+00  0.43900334105E-01  0.11511946449E-01  0.13030321181E+00  0.21587821850E-01 0.  0.
         14    1    1    2    0    0 -0.50122136610E-02  0.22219501286E-01 -0.63362061919E-02  0.23642673962E-01  0.00000000000E+00 0. -1.
     999901    1    3    3    0    0 -0.11520895216E+00 -0.66119835391E-01 -0.51757402570E-02  0.88998411423E+00  0.88000000000E+00 0.  1.
        -11    1    4    4    0    0  0.71398804073E-01  0.23293823253E-01 -0.36148265117E-02  0.75191219677E-01  0.51100000000E-03 0. -1.
         11    1    4    4    0    0  0.48822361744E-01  0.20606510852E-01  0.15126772961E-01  0.55111992134E-01  0.51100000000E-03 0.  1.
</event>
<event>
 8    1  0.1111182E+005  0.1043930E+01  0.7957747E-01            NaN
         13   -1    0    0    0    0  0.00000000000E+00  0.00000000000E+00  0.74505805969E-08  0.10566000000E+00  0.10566000000E+00 0.  1.
     999900   -1    0    0    0    0 -0.00000000000E+00 -0.00000000000E+00 -0.74505805969E-08  0.93827000000E+00  0.93827000000E+00 0.  1.
     999902    2    1    2    0    0 -0.17048621572E-01  0.15218165436E-02 -0.14654102877E-01  0.10213974867E+01  0.10211489175E+01 0.  0.
     999903    2    3    3    0    0 -0.10505989387E+00 -0.70158163401E-01  0.35486198655E-01  0.13269165609E+00  0.19699139818E-01 0.  0.
         14    1    1    2    0    0  0.17048621572E-01 -0.15218165436E-02  0.14654102877E-01  0.22532513269E-01  0.00000000000E+00 0.  1.
     999901    1    3    3    0    0  0.88011272297E-01  0.71679979944E-01 -0.50140301532E-01  0.88870583064E+00  0.88000000000E+00 0. -1.
        -11    1    4    4    0    0 -0.43652463305E-01 -0.38172182719E-01  0.96501877520E-02  0.58788096846E-01  0.51100000000E-03 0. -1.
         11    1    4    4    0    0 -0.61407430564E-01 -0.31985980682E-01  0.25836010903E-01  0.73903559245E-01  0.51100000000E-03 0.  1.
</event>
<event>
 8    1  0.1111182E+005  0.1043930E+01  0.7957747E-01            NaN
         13   -1    0    0    0    0  0.00000000000E+00  0.00000000000E+00  0.74505805969E-08  0.10566000000E+00  0.10566000000E+00 0. -1.
     999900   -1    0    0    0    0 -0.00000000000E+00 -0.00000000000E+00 -0.74505805969E-08  0.93827000000E+00  0.93827000000E+00 0. -1.
     999902    2    1    2    0    0 -0.48871016850E-02 -0.20356653927E-01  0.10336832718E-01  0.10205820401E+01  0.10203149383E+01 0.  0.
     999903    2    3    3    0    0  0.94883251534E-01  0.84839683288E-01 -0.69499119492E-02  0.12855108530E+00  0.16627596716E-01 0.  0.
         14    1    1    2    0    0  0.48871016850E-02  0.20356653927E-01 -0.10336832718E-01  0.23347959924E-01  0.00000000000E+00 0.  1.
     999901    1    3    3    0    0 -0.99770353219E-01 -0.10519633721E+00  0.17286744667E-01  0.89203095478E+00  0.88000000000E+00 0.  1.
        -11    1    4    4    0    0  0.22348906445E-01  0.26926762398E-01 -0.72082345254E-02  0.35731553542E-01  0.51100000000E-03 0. -1.
         11    1    4    4    0    0  0.72534345089E-01  0.57912920890E-01  0.25832257627E-03  0.92819531754E-01  0.51100000000E-03 0.  1.
</event>
<event>
 8    1  0.1111182E+005  0.1043930E+01  0.7957747E-01            NaN
         13   -1    0    0    0    0  0.00000000000E+00  0.00000000000E+00  0.74505805969E-08  0.10566000000E+00  0.10566000000E+00 0.  1.
     999900   -1    0    0    0    0 -0.00000000000E+00 -0.00000000000E+00 -0.74505805969E-08  0.93827000000E+00  0.93827000000E+00 0. -1.
     999902    2    1    2    0    0  0.13052741773E-01 -0.12539226543E-01  0.16976046446E-01  0.10191148348E+01  0.10188126688E+01 0.  0.
     999903    2    3    3    0    0  0.28828690962E-01 -0.50178520362E-01  0.11650411514E+00  0.13256453536E+00  0.25518030133E-01 0.  0.
         14    1    1    2    0    0 -0.13052741773E-01  0.12539226543E-01 -0.16976046446E-01  0.24815165183E-01  0.00000000000E+00 0. -1.
     999901    1    3    3    0    0 -0.15775949188E-01  0.37639293818E-01 -0.99528068695E-01  0.88655029946E+00  0.88000000000E+00 0. -1.
        -11    1    4    4    0    0 -0.33500898937E-02 -0.15732773162E-01  0.30806541732E-01  0.34756976107E-01  0.51100000000E-03 0. -1.
         11    1    4    4    0    0  0.32178780855E-01 -0.34445747200E-01  0.85697573409E-01  0.97807559252E-01  0.51100000000E-03 0.  1.
</event>
<event>
 8    1  0.1111182E+005  0.1043930E+01  0.7957747E-01            NaN
         13   -1    0    0    0    0  0.00000000000E+00  0.00000000000E+00  0.74505805969E-08  0.10566000000E+00  0.10566000000E+00 0. -1.
     999900   -1    0    0    0    0 -0.00000000000E+00 -0.00000000000E+00 -0.74505805969E-08  0.93827000000E+00  0.93827000000E+00 0.  1.
     999902    2    1    2    0    0 -0.10641758547E-01  0.70117928396E-03  0.21693478253E-01  0.10197567570E+01  0.10194702045E+01 0.  0.
     999903    2    3    3    0    0 -0.11858649439E+00 -0.34809835055E-01 -0.37000976799E-01  0.13051093207E+00  0.19737016970E-01 0.  0.
         14    1    1    2    0    0  0.10641758547E-01 -0.70117928396E-03 -0.21693478253E-01  0.24173242978E-01  0.00000000000E+00 0.  1.
     999901    1    3    3    0    0  0.10794473584E+00  0.35511014339E-01  0.58694455051E-01  0.88924582495E+00  0.88000000000E+00 0.  1.
        -11    1    4    4    0    0 -0.63420720447E-01 -0.14413919144E-01 -0.10047472694E-01  0.65811561869E-01  0.51100000000E-03 0.  1.
         11    1    4    4    0    0 -0.55165773941E-01 -0.20395915911E-01 -0.26953504104E-01  0.64699370205E-01  0.51100000000E-03 0. -1.
</event>
<event>
 8    1  0.1111182E+005  0.1043930E+01  0.7957747E-01            NaN
         13   -1    0    0    0    0  0.00000000000E+00  0.00000000000E+00  0.74505805969E-08  0.10566000000E+00  0.10566000000E+00 0. -1.
     999900   -1    0    0    0    0 -0.00000000000E+00 -0.00000000000E+00 -0.74505805969E-08  0.93827000000E+00  0.93827000000E+00 0. -1.
     999902    2    1    2    0    0  0.66374200861E-02  0.19885711621E-02  0.22055227236E-01  0.10208119809E+01  0.10205501739E+01 0.  0.
     999903    2    3    3    0    0  0.10496046831E+00  0.65237205990E-01 -0.38444157164E-01  0.13102100140E+00  0.20395014917E-01 0.  0.
         14    1    1    2    0    0 -0.66374200861E-02 -0.19885711621E-02 -0.22055227236E-01  0.23118019143E-01  0.00000000000E+00 0.  1.
     999901    1    3    3    0    0 -0.98323048223E-01 -0.63248634828E-01  0.60499384399E-01  0.88979097946E+00  0.88000000000E+00 0. -1.
        -11    1    4    4    0    0  0.70610146748E-01  0.37825712270E-01 -0.16060306316E-01  0.81699277185E-01  0.51100000000E-03 0.  1.
         11    1    4    4    0    0  0.34350321561E-01  0.27411493720E-01 -0.22383850848E-01  0.49321724210E-01  0.51100000000E-03 0. -1.
</event>
<event>
 7    1  0.1111182E+005  0.1043930E+01  0.7957747E-01            NaN
         13   -1    0    0    0    0  0.00000000000E+00  0.00000000000E+00  0.74505805969E-08  0.10566000000E+00  0.10566000000E+00 0.  1.
     999900   -1    0    0    0    0 -0.00000000000E+00 -0.00000000000E+00 -0.74505805969E-08  0.93827000000E+00  0.93827000000E+00 0.  1.
     999903    2    1    2    0    0 -0.72368490156E-01  0.20322428024E-01  0.88994827923E-01  0.11855611873E+00  0.22028945552E-01 0.  0.
         14    1    1    2    0    0  0.19802142298E-01 -0.32996697920E-01 -0.12227094342E-01  0.40378320288E-01  0.00000000000E+00 0. -1.
     999901    1    1    2    0    0  0.52566347858E-01  0.12674269896E-01 -0.76767733582E-01  0.88499556099E+00  0.88000000000E+00 0.  1.
        -11    1    3    3    0    0 -0.20475279279E-01  0.63591773581E-02  0.42028533288E-01  0.47184053763E-01  0.51100000000E-03 0. -1.
         11    1    3    3    0    0 -0.51893210877E-01  0.13963250666E-01  0.46966294636E-01  0.71372064963E-01  0.51100000000E-03 0.  1.
</event>
<event>
 8    1  0.1111182E+005  0.1043930E+01  0.7957747E-01            NaN
         13   -1    0    0    0    0  0.00000000000E+00  0.00000000000E+00  0.74505805969E-08  0.10566000000E+00  0.10566000000E+00 0. -1.
     999900   -1    0    0    0    0 -0.00000000000E+00 -0.00000000000E+00 -0.74505805969E-08  0.93827000000E+00  0.93827000000E+00 0.  1.
     999902    2    1    2    0    0  0.62522614665E-02  0.19025345214E-01  0.11373110634E-01  0.10208995380E+01  0.10206397330E+01 0.  0.
     999903    2    3    3    0    0  0.11063364362E-01  0.85012084524E-01  0.10102847362E+00  0.13387333739E+00  0.19127609270E-01 0.  0.
         14    1    1    2    0    0 -0.62522614665E-02 -0.19025345214E-01 -0.11373110634E-01  0.23030461990E-01  0.00000000000E+00 0.  1.
     999901    1    3    3    0    0 -0.48111028958E-02 -0.65986739310E-01 -0.89655362983E-01  0.88702620062E+00  0.88000000000E+00 0.  1.
        -11    1    4    4    0    0  0.39769913498E-02  0.74502663397E-01  0.80647958118E-01  0.10986727258E+00  0.51100000000E-03 0. -1.
         11    1    4    4    0    0  0.70863730125E-02  0.10509421127E-01  0.20380515498E-01  0.24006064814E-01  0.51100000000E-03 0.  1.
</event>
<event>
 8    1  0.1111182E+005  0.1043930E+01  0.7957747E-01            NaN
         13   -1    0    0    0    0  0.00000000000E+00  0.00000000000E+00  0.74505805969E-08  0.10566000000E+00  0.10566000000E+00 0.  1.
     999900   -1    0    0    0    0 -0.00000000000E+00 -0.00000000000E+00 -0.74505805969E-08  0.93827000000E+00  0.93827000000E+00 0.  1.
     999902    2    1    2    0    0  0.22986296386E-01  0.20783298918E-02  0.95150409784E-04  0.10208497415E+01  0.10205887989E+01 0.  0.
     999903    2    3    3    0    0  0.25090686912E-01 -0.51385088971E-01 -0.11693571711E+00  0.13149098965E+00  0.18599690506E-01 0.  0.
         14    1    1    2    0    0 -0.22986296386E-01 -0.20783298918E-02 -0.95150409784E-04  0.23080258454E-01  0.00000000000E+00 0. -1.
     999901    1    3    3    0    0 -0.21043905263E-02  0.53463418863E-01  0.11703086752E+00  0.88935875189E+00  0.88000000000E+00 0. -1.
        -11    1    4    4    0    0  0.52212379858E-02 -0.65016296241E-03 -0.15022229682E-01  0.15925217223E-01  0.51100000000E-03 0.  1.
         11    1    4    4    0    0  0.19869448927E-01 -0.50734926009E-01 -0.10191348742E+00  0.11556577243E+00  0.51100000000E-03 0. -1.
</event>
<event>
 8    1  0.1111182E+005  0.1043930E+01  0.7957747E-01            NaN
         13   -1    0    0    0    0  0.00000000000E+00  0.00000000000E+00  0.74505805969E-08  0.10566000000E+00  0.10566000000E+00 0. -1.
     999900   -1    0    0    0    0 -0.00000000000E+00 -0.00000000000E+00 -0.74505805969E-08  0.93827000000E+00  0.93827000000E+00 0. -1.
     999902    2    1    2    0    0  0.19254865566E-02 -0.14970611995E-01 -0.18888637457E-01  0.10197513452E+01  0.10194646628E+01 0.  0.
     999903    2    3    3    0    0  0.26610219703E-01  0.48381471629E-01 -0.11780681311E+00  0.13160291842E+00  0.19799301318E-01 0.  0.
         14    1    1    2    0    0 -0.19254865566E-02  0.14970611995E-01  0.18888637457E-01  0.24178654780E-01  0.00000000000E+00 0. -1.
     999901    1    3    3    0    0 -0.24684733147E-01 -0.63352083624E-01  0.98918175651E-01  0.88814842680E+00  0.88000000000E+00 0.  1.
        -11    1    4    4    0    0  0.25894007235E-01  0.42003891283E-01 -0.86006635576E-01  0.99157596671E-01  0.51100000000E-03 0.  1.
         11    1    4    4    0    0  0.71621246871E-03  0.63775803461E-02 -0.31800177533E-01  0.32445321750E-01  0.51100000000E-03 0. -1.
</event>
<event>
 8    1  0.1111182E+005  0.1043930E+01  0.7957747E-01            NaN
         13   -1    0    0    0    0  0.00000000000E+00  0.00000000000E+00  0.74505805969E-08  0.10566000000E+00  0.10566000000E+00 0. -1.
     999900   -1    0    0    0    0 -0.00000000000E+00 -0.00000000000E+00 -0.74505805969E-08  0.93827000000E+00  0.93827000000E+00 0. -1.
     999902    2    1    2    0    0  0.24059704308E-01  0.10282328310E-02 -0.41019620407E-02  0.10195014772E+01  0.10192087663E+01 0.  0.
     999903    2    3    3    0    0  0.10390020786E+00  0.76999927428E-01 -0.21825189434E-01  0.13245000339E+00  0.18504661212E-01 0.  0.
         14    1    1    2    0    0 -0.24059704308E-01 -0.10282328310E-02  0.41019620407E-02  0.24428522811E-01  0.00000000000E+00 0. -1.
     999901    1    3    3    0    0 -0.79840503549E-01 -0.75971694598E-01  0.17723227393E-01  0.88705147380E+00  0.88000000000E+00 0. -1.
        -11    1    4    4    0    0  0.70413104456E-01  0.41732150857E-01 -0.16761320495E-01  0.83551066301E-01  0.51100000000E-03 0. -1.
         11    1    4    4    0    0  0.33487103401E-01  0.35267776571E-01 -0.50638689382E-02  0.48898937085E-01  0.51100000000E-03 0.  1.
</event>
<event>
 8    1  0.1111182E+005  0.1043930E+01  0.7957747E-01            NaN
         13   -1    0    0    0    0  0.00000000000E+00  0.00000000000E+00  0.74505805969E-08  0.10566000000E+00  0.10566000000E+00 0. -1.
     999900   -1    0    0    0    0 -0.00000000000E+00 -0.00000000000E+00 -0.74505805969E-08  0.93827000000E+00  0.93827000000E+00 0.  1.
     999902    2    1    2    0    0 -0.23465326243E-01  0.78718066961E-03 -0.39353098728E-02  0.10201239534E+01  0.10198461416E+01 0.  0.
     999903    2    3    3    0    0  0.10428592113E+00 -0.71061304748E-01  0.77130185385E-02  0.12792539391E+00  0.19497522271E-01 0.  0.
         14    1    1    2    0    0  0.23465326243E-01 -0.78718066961E-03  0.39353098728E-02  0.23806046561E-01  0.00000000000E+00 0.  1.
     999901    1    3    3    0    0 -0.12775124737E+00  0.71848485418E-01 -0.11648328411E-01  0.89219855952E+00  0.88000000000E+00 0.  1.
        -11    1    4    4    0    0  0.66780312835E-01 -0.35631638866E-01  0.95675703494E-02  0.76295631553E-01  0.51100000000E-03 0.  1.
         11    1    4    4    0    0  0.37505608295E-01 -0.35429665883E-01 -0.18545518109E-02  0.51629762362E-01  0.51100000000E-03 0. -1.
</event>
<event>
 8    1  0.1111182E+005  0.1043930E+01  0.7957747E-01            NaN
         13   -1    0    0    0    0  0.00000000000E+00  0.00000000000E+00  0.74505805969E-08  0.10566000000E+00  0.10566000000E+00 0. -1.
     999900   -1    0    0    0    0 -0.00000000000E+00 -0.00000000000E+00 -0.74505805969E-08  0.93827000000E+00  0.93827000000E+00 0.  1.
     999902    2    1    2    0    0  0.21183894908E-01  0.10527241596E-01 -0.12624132525E-02  0.10202408906E+01  0.10199658332E+01 0.  0.
     999903    2    3    3    0    0 -0.96888635201E-01  0.74292120629E-01  0.37206119293E-01  0.12923757397E+00  0.20281232572E-01 0.  0.
         14    1    1    2    0    0 -0.21183894908E-01 -0.10527241596E-01  0.12624132525E-02  0.23689109445E-01  0.00000000000E+00 0. -1.
     999901    1    3    3    0    0  0.11807253011E+00 -0.63764879033E-01 -0.38468532546E-01  0.89100331658E+00  0.88000000000E+00 0.  1.
        -11    1    4    4    0    0 -0.12092450950E-01  0.30886305266E-02  0.20974212116E-03  0.12492882824E-01  0.51100000000E-03 0.  1.
         11    1    4    4    0    0 -0.84796184251E-01  0.71203490103E-01  0.36996377172E-01  0.11674469115E+00  0.51100000000E-03 0. -1.
</event>
<event>
 8    1  0.1111182E+005  0.1043930E+01  0.7957747E-01            NaN
         13   -1    0    0    0    0  0.00000000000E+00  0.00000000000E+00  0.74505805969E-08  0.10566000000E+00  0.10566000000E+00 0.  1.
     999900   -1    0    0    0    0 -0.00000000000E+00 -0.00000000000E+00 -0.74505805969E-08  0.93827000000E+00  0.93827000000E+00 0. -1.
     999902    2    1    2    0    0 -0.20578809324E-01  0.22219682677E-02  0.11635934247E-01  0.10201851163E+01  0.10199087469E+01 0.  0.
     999903    2    3    3    0    0  0.49510375867E-01 -0.98938385177E-01 -0.62479753221E-01  0.12853549559E+00  0.19431229578E-01 0.  0.
         14    1    1    2    0    0  0.20578809324E-01 -0.22219682677E-02 -0.11635934247E-01  0.23744883701E-01  0.00000000000E+00 0. -1.
     999901    1    3    3    0    0 -0.70089185191E-01  0.10116035344E+00  0.74115687468E-01  0.89164962071E+00  0.88000000000E+00 0.  1.
        -11    1    4    4    0    0  0.31739322387E-01 -0.54760982407E-01 -0.25487457561E-01  0.68235045202E-01  0.51100000000E-03 0. -1.
         11    1    4    4    0    0  0.17771053480E-01 -0.44177402770E-01 -0.36992295660E-01  0.60300450384E-01  0.51100000000E-03 0.  1.
</event>
<event>
 8    1  0.1111182E+005  0.1043930E+01  0.7957747E-01            NaN
         13   -1    0    0    0    0  0.00000000000E+00  0.00000000000E+00  0.74505805969E-08  0.10566000000E+00  0.10566000000E+00 0. -1.
     999900   -1    0    0    0    0 -0.00000000000E+00 -0.00000000000E+00 -0.74505805969E-08  0.93827000000E+00  0.93827000000E+00 0. -1.
     999902    2    1    2    0    0 -0.21378480470E-01 -0.50749617528E-02 -0.45474957853E-02  0.10214917652E+01  0.10212452947E+01 0.  0.
     999903    2    3    3    0    0  0.94852724877E-01  0.89893461095E-02 -0.86098599007E-01  0.12999971233E+00  0.20226435554E-01 0.  0.
         14    1    1    2    0    0  0.21378480470E-01  0.50749617528E-02  0.45474957853E-02  0.22438234822E-01  0.00000000000E+00 0. -1.
     999901    1    3    3    0    0 -0.11623120535E+00 -0.14064307862E-01  0.81551103222E-01  0.89149205285E+00  0.88000000000E+00 0.  1.
        -11    1    4    4    0    0  0.71972982274E-01  0.15281940730E-01 -0.67418905066E-01  0.99795880532E-01  0.51100000000E-03 0. -1.
         11    1    4    4    0    0  0.22879742603E-01 -0.62925946202E-02 -0.18679693941E-01  0.30203831799E-01  0.51100000000E-03 0.  1.
</event>
<event>
 8    1  0.1111182E+005  0.1043930E+01  0.7957747E-01            NaN
         13   -1    0    0    0    0  0.00000000000E+00  0.00000000000E+00  0.74505805969E-08  0.10566000000E+00  0.10566000000E+00 0. -1.
     999900   -1    0    0    0    0 -0.00000000000E+00 -0.00000000000E+00 -0.74505805969E-08  0.93827000000E+00  0.93827000000E+00 0.  1.
     999902    2    1    2    0    0 -0.70881987505E-02  0.10308475163E-01 -0.20407073875E-01  0.10199935031E+01  0.10197126019E+01 0.  0.
     999903    2    3    3    0    0  0.72769922692E-01 -0.66268523898E-01  0.78646517938E-01  0.12755136465E+00  0.19927291167E-01 0.  0.
         14    1    1    2    0    0  0.70881987505E-02 -0.10308475163E-01  0.20407073875E-01  0.23936496942E-01  0.00000000000E+00 0. -1.
     999901    1    3    3    0    0 -0.79858121443E-01  0.76576999062E-01 -0.99053591813E-01  0.89244213840E+00  0.88000000000E+00 0.  1.
        -11    1    4    4    0    0  0.20577116281E-01 -0.28687074071E-01  0.35718887752E-01  0.50224157499E-01  0.51100000000E-03 0. -1.
         11    1    4    4    0    0  0.52192806412E-01 -0.37581449827E-01  0.42927630186E-01  0.77327207156E-01  0.51100000000E-03 0.  1.
</event>
<event>
 8    1  0.1111182E+005  0.1043930E+01  0.7957747E-01            NaN
         13   -1    0    0    0    0  0.00000000000E+00  0.00000000000E+00  0.74505805969E-08  0.10566000000E+00  0.10566000000E+00 0. -1.
     999900   -1    0    0    0    0 -0.00000000000E+00 -0.00000000000E+00 -0.74505805969E-08  0.93827000000E+00  0.93827000000E+00 0. -1.
     999902    2    1    2    0    0  0.11010641679E-01  0.16503248260E-01  0.13776817253E-01  0.10197764883E+01  0.10194904090E+01 0.  0.
     999903    2    3    3    0    0 -0.39068384646E-01 -0.91836526756E-01 -0.77185596403E-01  0.12707296730E+00  0.15153758627E-01 0.  0.
         14    1    1    2    0    0 -0.11010641679E-01 -0.16503248260E-01 -0.13776817253E-01  0.24153511690E-01  0.00000000000E+00 0.  1.
     999901    1    3    3    0    0  0.50079026325E-01  0.10833977502E+00  0.90962413656E-01  0.89270352101E+00  0.88000000000E+00 0.  1.
        -11    1    4    4    0    0 -0.16626203203E-01 -0.58008386092E-01 -0.46274086246E-01  0.76045747210E-01  0.51100000000E-03 0. -1.
         11    1    4    4    0    0 -0.22442181443E-01 -0.33828140664E-01 -0.30911510158E-01  0.51027220088E-01  0.51100000000E-03 0.  1.
</event>
<event>
 8    1  0.1111182E+005  0.1043930E+01  0.7957747E-01            NaN
         13   -1    0    0    0    0  0.00000000000E+00  0.00000000000E+00  0.74505805969E-08  0.10566000000E+00  0.10566000000E+00 0. -1.
     999900   -1    0    0    0    0 -0.00000000000E+00 -0.00000000000E+00 -0.74505805969E-08  0.93827000000E+00  0.93827000000E+00 0.  1.
     999902    2    1    2    0    0  0.15669903332E-01 -0.88541732904E-02 -0.15573436112E-01  0.10201292822E+01  0.10198515962E+01 0.  0.
     999903    2    3    3    0    0 -0.11597542525E+00  0.38931788345E-01  0.32196569190E-01  0.12777511257E+00  0.17996580764E-01 0.  0.
         14    1    1    2    0    0 -0.15669903332E-01  0.88541732904E-02  0.15573436112E-01  0.23800717792E-01  0.00000000000E+00 0. -1.
     999901    1    3    3    0    0  0.13164532858E+00 -0.47785961636E-01 -0.47770005302E-01  0.89235416964E+00  0.88000000000E+00 0.  1.
        -11    1    4    4    0    0 -0.84237123306E-01  0.23089680262E-01  0.29515318788E-01  0.92197838595E-01  0.51100000000E-03 0. -1.
         11    1    4    4    0    0 -0.31738301942E-01  0.15842108083E-01  0.26812504016E-02  0.35577273973E-01  0.51100000000E-03 0.  1.
</event>
<event>
 8    1  0.1111182E+005  0.1043930E+01  0.7957747E-01            NaN
         13   -1    0    0    0    0  0.00000000000E+00  0.00000000000E+00  0.74505805969E-08  0.10566000000E+00  0.10566000000E+00 0.  1.
     999900   -1    0    0    0    0 -0.00000000000E+00 -0.00000000000E+00 -0.74505805969E-08  0.93827000000E+00  0.93827000000E+00 0.  1.
     999902    2    1    2    0    0  0.19218153176E-01  0.89776900207E-02 -0.11941709821E-01  0.10195878398E+01  0.10192972198E+01 0.  0.
     999903    2    3    3    0    0  0.12568781337E+00  0.33824298993E-01 -0.16549447144E-01  0.13281031767E+00  0.20571500823E-01 0.  0.
         14    1    1    2    0    0 -0.19218153176E-01 -0.89776900207E-02  0.11941709821E-01  0.24342160197E-01  0.00000000000E+00 0. -1.
     999901    1    3    3    0    0 -0.10646966019E+00 -0.24846608973E-01  0.46077373230E-02  0.88677752213E+00  0.88000000000E+00 0. -1.
        -11    1    4    4    0    0  0.82254383083E-01  0.15895429683E-01 -0.27018440300E-02  0.83821293854E-01  0.51100000000E-03 0. -1.
         11    1    4    4    0    0  0.43433430287E-01  0.17928869310E-01 -0.13847603114E-01  0.48989023814E-01  0.51100000000E-03 0.  1.
</event>
<event>
 8    1  0.1111182E+005  0.1043930E+01  0.7957747E-01            NaN
         13   -1    0    0    0    0  0.00000000000E+00  0.00000000000E+00  0.74505805969E-08  0.10566000000E+00  0.10566000000E+00 0. -1.
     999900   -1    0    0    0    0 -0.00000000000E+00 -0.00000000000E+00 -0.74505805969E-08  0.93827000000E+00  0.93827000000E+00 0. -1.
     999902    2    1    2    0    0 -0.89536733524E-02  0.21432632607E-01  0.38050064722E-02  0.10203927087E+01  0.10201212065E+01 0.  0.
     999903    2    3    3    0    0 -0.73387514744E-01 -0.27920498156E-01  0.10307172145E+00  0.13110010662E+00  0.19954364340E-01 0.  0.
         14    1    1    2    0    0  0.89536733524E-02 -0.21432632607E-01 -0.38050064722E-02  0.23537291289E-01  0.00000000000E+00 0. -1.
     999901    1    3    3    0    0  0.64433841392E-01  0.49353130763E-01 -0.99266714974E-01  0.88929260209E+00  0.88000000000E+00 0. -1.
        -11    1    4    4    0    0 -0.27232151250E-01 -0.12532430273E-01  0.55345238828E-01  0.62944487068E-01  0.51100000000E-03 0.  1.
         11    1    4    4    0    0 -0.46155363494E-01 -0.15388067883E-01  0.47726482618E-01  0.68155619552E-01  0.51100000000E-03 0. -1.
</event>
<event>
 8    1  0.1111182E+005  0.1043930E+01  0.7957747E-01            NaN
         13   -1    0    0    0    0  0.00000000000E+00  0.00000000000E+00  0.74505805969E-08  0.10566000000E+00  0.10566000000E+00 0.  1.
     999900   -1    0    0    0    0 -0.00000000000E+00 -0.00000000000E+00 -0.74505805969E-08  0.93827000000E+00  0.93827000000E+00 0. -1.
     999902    2    1    2    0    0 -0.40784153059E-03  0.13931193126E-01  0.18973708581E-01  0.10203875682E+01  0.10201159460E+01 0.  0.
     999903    2    3    3    0    0  0.45881551926E-01 -0.82029311639E-01 -0.84459585129E-01  0.12794733344E+00  0.20079189178E-01 0.  0.
         14    1    1    2    0    0  0.40784153059E-03 -0.13931193126E-01 -0.18973708581E-01  0.23542431776E-01  0.00000000000E+00 0. -1.
     999901    1    3    3    0    0 -0.46289393456E-01  0.95960504764E-01  0.10343329371E+00  0.89244023479E+00  0.88000000000E+00 0.  1.
        -11    1    4    4    0    0  0.30942316447E-01 -0.45603929614E-01 -0.60581089814E-01  0.81899175255E-01  0.51100000000E-03 0. -1.
         11    1    4    4    0    0  0.14939235478E-01 -0.36425382025E-01 -0.23878495315E-01  0.46048158181E-01  0.51100000000E-03 0.  1.
</event>
<event>
 8    1  0.1111182E+005  0.1043930E+01  0.7957747E-01            NaN
         13   -1    0    0    0    0  0.00000000000E+00  0.00000000000E+00  0.74505805969E-08  0.10566000000E+00  0.10566000000E+00 0. -1.
     999900   -1    0    0    0    0 -0.00000000000E+00 -0.00000000000E+00 -0.74505805969E-08  0.93827000000E+00  0.93827000000E+00 0. -1.
     999902    2    1    2    0    0  0.91265270464E-03 -0.10615235934E-01 -0.20477547394E-01  0.10208465402E+01  0.10205855244E+01 0.  0.
     999903    2    3    3    0    0  0.69137100617E-01 -0.60555544158E-01  0.89552855916E-01  0.12997320503E+00  0.20649634672E-01 0.  0.
         14    1    1    2    0    0 -0.91265270464E-03  0.10615235934E-01  0.20477547394E-01  0.23083459796E-01  0.00000000000E+00 0. -1.
     999901    1    3    3    0    0 -0.68224447912E-01  0.49940308224E-01 -0.11003040331E+00  0.89087333518E+00  0.88000000000E+00 0. -1.
        -11    1    4    4    0    0  0.23506689144E-01 -0.32790452546E-01  0.44757840087E-01  0.60260298563E-01  0.51100000000E-03 0. -1.
         11    1    4    4    0    0  0.45630411472E-01 -0.27765091612E-01  0.44795015830E-01  0.69712906463E-01  0.51100000000E-03 0.  1.
</event>
<event>
 8    1  0.1111182E+005  0.1043930E+01  0.7957747E-01            NaN
         13   -1    0    0    0    0  0.00000000000E+00  0.00000000000E+00  0.74505805969E-08  0.10566000000E+00  0.10566000000E+00 0.  1.
     999900   -1    0    0    0    0 -0.00000000000E+00 -0.00000000000E+00 -0.74505805969E-08  0.93827000000E+00  0.93827000000E+00 0. -1.
     999902    2    1    2    0    0 -0.12314809351E-01  0.10719970264E-02 -0.20255336584E-01  0.10202006433E+01  0.10199246395E+01 0.  0.
     999903    2    3    3    0    0  0.11133689267E+00 -0.55802352431E-01 -0.25079677219E-01  0.12972452952E+00  0.26261324075E-01 0.  0.
         14    1    1    2    0    0  0.12314809351E-01 -0.10719970264E-02  0.20255336584E-01  0.23729356651E-01  0.00000000000E+00 0.  1.
     999901    1    3    3    0    0 -0.12365170202E+00  0.56874349457E-01  0.48243406347E-02  0.89047611383E+00  0.88000000000E+00 0.  1.
        -11    1    4    4    0    0  0.44134777802E-01 -0.98592117741E-02 -0.27439559041E-02  0.45308642481E-01  0.51100000000E-03 0.  1.
         11    1    4    4    0    0  0.67202114872E-01 -0.45943140657E-01 -0.22335721314E-01  0.84415887037E-01  0.51100000000E-03 0. -1.
</event>
<event>
 8    1  0.1111182E+005  0.1043930E+01  0.7957747E-01            NaN
         13   -1    0    0    0    0  0.00000000000E+00  0.00000000000E+00  0.74505805969E-08  0.10566000000E+00  0.10566000000E+00 0. -1.
     999900   -1    0    0    0    0 -0.00000000000E+00 -0.00000000000E+00 -0.74505805969E-08  0.93827000000E+00  0.93827000000E+00 0.  1.
     999902    2    1    2    0    0 -0.17569680569E-01 -0.11937216802E-01  0.95151056327E-02  0.10206549478E+01  0.10203895307E+01 0.  0.
     999903    2    3    3    0    0  0.84645132503E-01  0.80761972439E-01  0.49865692593E-01  0.12898843077E+00  0.21543753777E-01 0.  0.
         14    1    1    2    0    0  0.17569680569E-01  0.11937216802E-01 -0.95151056327E-02  0.23275052213E-01  0.00000000000E+00 0. -1.
     999901    1    3    3    0    0 -0.10221481307E+00 -0.92699189241E-01 -0.40350586960E-01  0.89166651701E+00  0.88000000000E+00 0.  1.
        -11    1    4    4    0    0  0.66733351443E-01  0.51390127931E-01  0.39668060734E-01  0.93102640171E-01  0.51100000000E-03 0. -1.
         11    1    4    4    0    0  0.17911781060E-01  0.29371844508E-01  0.10197631859E-01  0.35885790601E-01  0.51100000000E-03 0.  1.
</event>
<event>
 8    1  0.1111182E+005  0.1043930E+01  0.7957747E-01            NaN
         13   -1    0    0    0    0  0.00000000000E+00  0.00000000000E+00  0.74505805969E-08  0.10566000000E+00  0.10566000000E+00 0.  1.
     999900   -1    0    0    0    0 -0.00000000000E+00 -0.00000000000E+00 -0.74505805969E-08  0.93827000000E+00  0.93827000000E+00 0. -1.
     999902    2    1    2    0    0  0.14059348789E-01  0.10611497097E-01  0.15686648339E-01  0.10203431372E+01  0.10200704768E+01 0.  0.
     999903    2    3    3    0    0  0.85715987536E-01 -0.20212799840E-02  0.10014469975E+00  0.13331020471E+00  0.19782156110E-01 0.  0.
         14    1    1    2    0    0 -0.14059348789E-01 -0.10611497097E-01 -0.15686648339E-01  0.23586862765E-01  0.00000000000E+00 0.  1.
     999901    1    3    3    0    0 -0.71656638747E-01  0.12632777081E-01 -0.84458051410E-01  0.88703293252E+00  0.88000000000E+00 0. -1.
        -11    1    4    4    0    0  0.63552305445E-01  0.39415013180E-02  0.62543317355E-01  0.89254459983E-01  0.51100000000E-03 0.  1.
         11    1    4    4    0    0  0.22163682091E-01 -0.59627813020E-02  0.37601382393E-01  0.44055744728E-01  0.51100000000E-03 0. -1.
</event>
<event>
 8    1  0.1111182E+005  0.1043930E+01  0.7957747E-01            NaN
         13   -1    0    0    0    0  0.00000000000E+00  0.00000000000E+00  0.74505805969E-08  0.10566000000E+00  0.10566000000E+00 0. -1.
     999900   -1    0    0    0    0 -0.00000000000E+00 -0.00000000000E+00 -0.74505805969E-08  0.93827000000E+00  0.93827000000E+00 0. -1.
     999902    2    1    2    0    0 -0.18733922753E-01  0.12732598026E-01  0.64868094112E-02  0.10203682172E+01  0.10200961430E+01 0.  0.
     999903    2    3    3    0    0 -0.28539060720E-01  0.10210379646E+00 -0.75992561509E-01  0.13195041091E+00  0.19909251515E-01 0.  0.
         14    1    1    2    0    0  0.18733922753E-01 -0.12732598026E-01 -0.64868094112E-02  0.23561782838E-01  0.00000000000E+00 0.  1.
     999901    1    3    3    0    0  0.98051379669E-02 -0.89371198435E-01  0.82479370920E-01  0.88841780625E+00  0.88000000000E+00 0.  1.
        -11    1    4    4    0    0 -0.30192333301E-02  0.47458959614E-01 -0.33698488006E-01  0.58286515014E-01  0.51100000000E-03 0. -1.
         11    1    4    4    0    0 -0.25519827390E-01  0.54644836846E-01 -0.42294073503E-01  0.73663895895E-01  0.51100000000E-03 0.  1.
</event>
<event>
 8    1  0.1111182E+005  0.1043930E+01  0.7957747E-01            NaN
         13   -1    0    0    0    0  0.00000000000E+00  0.00000000000E+00  0.74505805969E-08  0.10566000000E+00  0.10566000000E+00 0. -1.
     999900   -1    0    0    0    0 -0.00000000000E+00 -0.00000000000E+00 -0.74505805969E-08  0.93827000000E+00  0.93827000000E+00 0. -1.
     999902    2    1    2    0    0  0.13486728572E-01  0.28765230552E-02  0.12222951520E-01  0.10255026623E+01  0.10253370878E+01 0.  0.
     999903    2    3    3    0    0 -0.13067309397E+00 -0.16829587611E-01  0.87696150959E-02  0.13354845336E+00  0.19989765847E-01 0.  0.
         14    1    1    2    0    0 -0.13486728572E-01 -0.28765230552E-02 -0.12222951520E-01  0.18427337744E-01  0.00000000000E+00 0.  1.
     999901    1    3    3    0    0  0.14415982254E+00  0.19706110666E-01  0.34533364236E-02  0.89195420890E+00  0.88000000000E+00 0.  1.
        -11    1    4    4    0    0 -0.62009982791E-01 -0.17676274783E-01  0.69312256470E-02  0.64853617215E-01  0.51100000000E-03 0. -1.
         11    1    4    4    0    0 -0.68663111182E-01  0.84668717198E-03  0.18383894489E-02  0.68694836146E-01  0.51100000000E-03 0.  1.
</event>
<event>
 8    1  0.1111182E+005  0.1043930E+01  0.7957747E-01            NaN
         13   -1    0    0    0    0  0.00000000000E+00  0.00000000000E+00  0.74505805969E-08  0.10566000000E+00  0.10566000000E+00 0. -1.
     999900   -1    0    0    0    0 -0.00000000000E+00 -0.00000000000E+00 -0.74505805969E-08  0.93827000000E+00  0.93827000000E+00 0.  1.
     999902    2    1    2    0    0 -0.11785374489E-01 -0.10736429010E-01  0.16913363228E-01  0.10206871986E+01  0.10204225251E+01 0.  0.
     999903    2    3    3    0    0  0.80814017027E-01 -0.35394848795E-01 -0.91934984837E-01  0.12881801100E+00  0.18929813817E-01 0.  0.
         14    1    1    2    0    0  0.11785374489E-01  0.10736429010E-01 -0.16913363228E-01  0.23242801367E-01  0.00000000000E+00 0. -1.
     999901    1    3    3    0    0 -0.92599391516E-01  0.24658419785E-01  0.10884834807E+00  0.89186918763E+00  0.88000000000E+00 0. -1.
        -11    1    4    4    0    0  0.35205103191E-01 -0.21558353817E-01 -0.53565063273E-01  0.67628684997E-01  0.51100000000E-03 0. -1.
         11    1    4    4    0    0  0.45608913837E-01 -0.13836494978E-01 -0.38369921565E-01  0.61189326001E-01  0.51100000000E-03 0.  1.
</event>
<event>
 8    1  0.1111182E+005  0.1043930E+01  0.7957747E-01            NaN
         13   -1    0    0    0    0  0.00000000000E+00  0.00000000000E+00  0.74505805969E-08  0.10566000000E+00  0.10566000000E+00 0.  1.
     999900   -1    0    0    0    0 -0.00000000000E+00 -0.00000000000E+00 -0.74505805969E-08  0.93827000000E+00  0.93827000000E+00 0.  1.
     999902    2    1    2    0    0 -0.17296080615E-01 -0.10216743709E-01 -0.13317589758E-01  0.10198282479E+01  0.10195434080E+01 0.  0.
     999903    2    3    3    0    0  0.16034611859E-01  0.10011444804E+00  0.75458431115E-01  0.12788369313E+00  0.19500068117E-01 0.  0.
         14    1    1    2    0    0  0.17296080615E-01  0.10216743709E-01  0.13317589758E-01  0.24101752086E-01  0.00000000000E+00 0. -1.
     999901    1    3    3    0    0 -0.33330692474E-01 -0.11033119175E+00 -0.88776020873E-01  0.89194455479E+00  0.88000000000E+00 0.  1.
        -11    1    4    4    0    0  0.98071127715E-02  0.92620264216E-01  0.64984751591E-01  0.11356923820E+00  0.51100000000E-03 0. -1.
         11    1    4    4    0    0  0.62274990871E-02  0.74941838272E-02  0.10473679524E-01  0.14314454928E-01  0.51100000000E-03 0.  1.
</event>
<event>
 8    1  0.1111182E+005  0.1043930E+01  0.7957747E-01            NaN
         13   -1    0    0    0    0  0.00000000000E+00  0.00000000000E+00  0.74505805969E-08  0.10566000000E+00  0.10566000000E+00 0.  1.
     999900   -1    0    0    0    0 -0.00000000000E+00 -0.00000000000E+00 -0.74505805969E-08  0.93827000000E+00  0.93827000000E+00 0.  1.
     999902    2    1    2    0    0 -0.10300689345E-02 -0.98456109445E-02 -0.21704563046E-01  0.10200744943E+01  0.10197955132E+01 0.  0.
     999903    2    3    3    0    0  0.21817545468E-02 -0.63956308197E-01 -0.11538832393E+00  0.13344326855E+00  0.19936679994E-01 0.  0.
         14    1    1    2    0    0  0.10300689345E-02  0.98456109445E-02  0.21704563046E-01  0.23855505735E-01  0.00000000000E+00 0.  1.
     999901    1    3    3    0    0 -0.32118234813E-02  0.54110697253E-01  0.93683760886E-01  0.88663122572E+00  0.88000000000E+00 0. -1.
        -11    1    4    4    0    0  0.57672397729E-02 -0.54162713909E-01 -0.81862472571E-01  0.98328969124E-01  0.51100000000E-03 0.  1.
         11    1    4    4    0    0 -0.35854852261E-02 -0.97935942887E-02 -0.33525851361E-01  0.35114299421E-01  0.51100000000E-03 0. -1.
</event>
<event>
 8    1  0.1111182E+005  0.1043930E+01  0.7957747E-01            NaN
         13   -1    0    0    0    0  0.00000000000E+00  0.00000000000E+00  0.74505805969E-08  0.10566000000E+00  0.10566000000E+00 0.  1.
     999900   -1    0    0    0    0 -0.00000000000E+00 -0.00000000000E+00 -0.74505805969E-08  0.93827000000E+00  0.93827000000E+00 0.  1.
     999902    2    1    2    0    0  0.12354970945E-01 -0.19528431453E-01  0.58424774378E-02  0.10200943233E+01  0.10198158113E+01 0.  0.
     999903    2    3    3    0    0 -0.62913180929E-01 -0.21023415778E-01 -0.10939707882E+00  0.12939365247E+00  0.19363473306E-01 0.  0.
         14    1    1    2    0    0 -0.12354970945E-01  0.19528431453E-01 -0.58424774378E-02  0.23835676719E-01  0.00000000000E+00 0.  1.
     999901    1    3    3    0    0  0.75268151874E-01  0.14949843250E-02  0.11523955626E+00  0.89070067082E+00  0.88000000000E+00 0. -1.
        -11    1    4    4    0    0 -0.44259313158E-02 -0.16566346775E-02 -0.21714686170E-01  0.22228855637E-01  0.51100000000E-03 0. -1.
         11    1    4    4    0    0 -0.58487249613E-01 -0.19366781100E-01 -0.87682392650E-01  0.10716479683E+00  0.51100000000E-03 0.  1.
</event>
<event>
 7    1  0.1111182E+005  0.1043930E+01  0.7957747E-01            NaN
         13   -1    0    0    0    0  0.00000000000E+00  0.00000000000E+00  0.74505805969E-08  0.10566000000E+00  0.10566000000E+00 0. -1.
     999900   -1    0    0    0    0 -0.00000000000E+00 -0.00000000000E+00 -0.74505805969E-08  0.93827000000E+00  0.93827000000E+00 0.  1.
     999903    2    1    2    0    0  0.23730586188E-01  0.74686637033E-02  0.10965871128E+00  0.11426564122E+00  0.20314579634E-01 0.  0.
         14    1    1    2    0    0  0.50847236951E-02 -0.45564644008E-02 -0.46420423031E-01  0.46919840763E-01  0.00000000000E+00 0.  1.
     999901    1    1    2    0    0 -0.28815309883E-01 -0.29121993025E-02 -0.63238288248E-01  0.88274451802E+00  0.88000000000E+00 0.  1.
        -11    1    3    3    0    0  0.63786600607E-02  0.11646030130E-01  0.33439808041E-01  0.35983318423E-01  0.51100000000E-03 0. -1.
         11    1    3    3    0    0  0.17351926128E-01 -0.41773664266E-02  0.76218903238E-01  0.78282322796E-01  0.51100000000E-03 0.  1.
</event>
<event>
 8    1  0.1111182E+005  0.1043930E+01  0.7957747E-01            NaN
         13   -1    0    0    0    0  0.00000000000E+00  0.00000000000E+00  0.74505805969E-08  0.10566000000E+00  0.10566000000E+00 0. -1.
     999900   -1    0    0    0    0 -0.00000000000E+00 -0.00000000000E+00 -0.74505805969E-08  0.93827000000E+00  0.93827000000E+00 0. -1.
     999902    2    1    2    0    0  0.40038060634E-02  0.12165823648E-01 -0.20166953590E-01  0.10200397563E+01  0.10197599525E+01 0.  0.
     999903    2    3    3    0    0  0.90592485185E-01  0.38505738470E-01 -0.86693577584E-01  0.13289986755E+00  0.21375409575E-01 0.  0.
         14    1    1    2    0    0 -0.40038060634E-02 -0.12165823648E-01  0.20166953590E-01  0.23890243722E-01  0.00000000000E+00 0. -1.
     999901    1    3    3    0    0 -0.86588679122E-01 -0.26339914822E-01  0.66526623994E-01  0.88713988872E+00  0.88000000000E+00 0. -1.
        -11    1    4    4    0    0  0.31789485135E-01  0.28919069469E-02 -0.25434991344E-01  0.40818309576E-01  0.51100000000E-03 0. -1.
         11    1    4    4    0    0  0.58803000050E-01  0.35613831523E-01 -0.61258586240E-01  0.92081557978E-01  0.51100000000E-03 0.  1.
</event>
<event>
 8    1  0.1111182E+005  0.1043930E+01  0.7957747E-01            NaN
         13   -1    0    0    0    0  0.00000000000E+00  0.00000000000E+00  0.74505805969E-08  0.10566000000E+00  0.10566000000E+00 0. -1.
     999900   -1    0    0    0    0 -0.00000000000E+00 -0.00000000000E+00 -0.74505805969E-08  0.93827000000E+00  0.93827000000E+00 0.  1.
     999902    2    1    2    0    0  0.16030582117E-01  0.17937305815E-01 -0.38816879450E-02  0.10195621112E+01  0.10192708691E+01 0.  0.
     999903    2    3    3    0    0  0.10620634867E+00  0.20412250028E-01  0.72201101725E-01  0.13168465057E+00  0.20770162665E-01 0.  0.
         14    1    1    2    0    0 -0.16030582117E-01 -0.17937305815E-01  0.38816879450E-02  0.24367888793E-01  0.00000000000E+00 0.  1.
     999901    1    3    3    0    0 -0.90175766551E-01 -0.24749442138E-02 -0.76082789670E-01  0.88787746064E+00  0.88000000000E+00 0.  1.
        -11    1    4    4    0    0  0.53854326003E-01 -0.20592902017E-03  0.35619492923E-01  0.64570428472E-01  0.51100000000E-03 0. -1.
         11    1    4    4    0    0  0.52352022665E-01  0.20618179049E-01  0.36581608802E-01  0.67114222099E-01  0.51100000000E-03 0.  1.
</event>
<event>
 8    1  0.1111182E+005  0.1043930E+01  0.7957747E-01            NaN
         13   -1    0    0    0    0  0.00000000000E+00  0.00000000000E+00  0.74505805969E-08  0.10566000000E+00  0.10566000000E+00 0. -1.
     999900   -1    0    0    0    0 -0.00000000000E+00 -0.00000000000E+00 -0.74505805969E-08  0.93827000000E+00  0.93827000000E+00 0.  1.
     999902    2    1    2    0    0 -0.10200177995E-01 -0.14120966438E-01  0.16598413079E-01  0.10198685653E+01  0.10195846889E+01 0.  0.
     999903    2    3    3    0    0  0.11649967353E+00 -0.39748673729E-01 -0.32977406255E-01  0.12904456828E+00  0.20318963652E-01 0.  0.
         14    1    1    2    0    0  0.10200177995E-01  0.14120966438E-01 -0.16598413079E-01  0.24061434725E-01  0.00000000000E+00 0.  1.
     999901    1    3    3    0    0 -0.12669985152E+00  0.25627707292E-01  0.49575819334E-01  0.89082399699E+00  0.88000000000E+00 0. -1.
        -11    1    4    4    0    0  0.32960093124E-01 -0.19593961693E-01 -0.15417000227E-01  0.41330812846E-01  0.51100000000E-03 0. -1.
         11    1    4    4    0    0  0.83539580406E-01 -0.20154712037E-01 -0.17560406029E-01  0.87713755435E-01  0.51100000000E-03 0.  1.
</event>
<event>
 8    1  0.1111182E+005  0.1043930E+01  0.7957747E-01            NaN
         13   -1    0    0    0    0  0.00000000000E+00  0.00000000000E+00  0.74505805969E-08  0.10566000000E+00  0.10566000000E+00 0.  1.
     999900   -1    0    0    0    0 -0.00000000000E+00 -0.00000000000E+00 -0.74505805969E-08  0.93827000000E+00  0.93827000000E+00 0. -1.
     999902    2    1    2    0    0 -0.16179248345E-01 -0.15901574291E-01 -0.66612709973E-02  0.10202868049E+01  0.10200128252E+01 0.  0.
     999903    2    3    3    0    0 -0.85343248907E-01 -0.40523031393E-01 -0.91554780859E-01  0.13315841335E+00  0.20574230017E-01 0.  0.
         14    1    1    2    0    0  0.16179248345E-01  0.15901574291E-01  0.66612709973E-02  0.23643195073E-01  0.00000000000E+00 0.  1.
     999901    1    3    3    0    0  0.69164000562E-01  0.24621457102E-01  0.84893509862E-01  0.88712839158E+00  0.88000000000E+00 0.  1.
        -11    1    4    4    0    0 -0.31204209486E-01 -0.25989849584E-01 -0.39744680343E-01  0.56824956732E-01  0.51100000000E-03 0. -1.
         11    1    4    4    0    0 -0.54139039421E-01 -0.14533181809E-01 -0.51810100516E-01  0.76333456619E-01  0.51100000000E-03 0.  1.
</event>
<event>
 8    1  0.1111182E+005  0.1043930E+01  0.7957747E-01            NaN
         13   -1    0    0    0    0  0.00000000000E+00  0.00000000000E+00  0.74505805969E-08  0.10566000000E+00  0.10566000000E+00 0.  1.
     999900   -1    0    0    0    0 -0.00000000000E+00 -0.00000000000E+00 -0.74505805969E-08  0.93827000000E+00  0.93827000000E+00 0.  1.
     999902    2    1    2    0    0  0.22936857764E-01  0.27555287588E-02 -0.18243300675E-02  0.10207562959E+01  0.10204932116E+01 0.  0.
     999903    2    3    3    0    0  0.37629696831E-01  0.11973001097E+00  0.36198029774E-01  0.13208053450E+00  0.19588277695E-01 0.  0.
         14    1    1    2    0    0 -0.22936857764E-01 -0.27555287588E-02  0.18243300675E-02  0.23173704128E-01  0.00000000000E+00 0. -1.
     999901    1    3    3    0    0 -0.14692839067E-01 -0.11697448221E+00 -0.38022359841E-01  0.88867576138E+00  0.88000000000E+00 0.  1.
        -11    1    4    4    0    0  0.92320039258E-02  0.52041047024E-01  0.80647397531E-02  0.53467762438E-01  0.51100000000E-03 0.  1.
         11    1    4    4    0    0  0.28397692905E-01  0.67688963945E-01  0.28133290021E-01  0.78612772059E-01  0.51100000000E-03 0. -1.
</event>
<event>
 8    1  0.1111182E+005  0.1043930E+01  0.7957747E-01            NaN
         13   -1    0    0    0    0  0.00000000000E+00  0.00000000000E+00  0.74505805969E-08  0.10566000000E+00  0.10566000000E+00 0.  1.
     999900   -1    0    0    0    0 -0.00000000000E+00 -0.00000000000E+00 -0.74505805969E-08  0.93827000000E+00  0.93827000000E+00 0.  1.
     999902    2    1    2    0    0 -0.46059649748E-02  0.23209299784E-01 -0.11167259697E-02  0.10202417416E+01  0.10199667042E+01 0.  0.
     999903    2    3    3    0    0 -0.56221865578E-01  0.41006142536E-01 -0.11016001690E+00  0.13183228188E+00  0.20052913189E-01 0.  0.
         14    1    1    2    0    0  0.46059649748E-02 -0.23209299784E-01  0.11167259697E-02  0.23688258414E-01  0.00000000000E+00 0.  1.
     999901    1    3    3    0    0  0.51615900603E-01 -0.17796842752E-01  0.10904329093E+00  0.88840945971E+00  0.88000000000E+00 0. -1.
        -11    1    4    4    0    0 -0.37416720676E-01  0.26403020328E-01 -0.53834831182E-01  0.70679421602E-01  0.51100000000E-03 0. -1.
         11    1    4    4    0    0 -0.18805144902E-01  0.14603122208E-01 -0.56325185713E-01  0.61152860273E-01  0.51100000000E-03 0.  1.
</event>
<event>
 8    1  0.1111182E+005  0.1043930E+01  0.7957747E-01            NaN
         13   -1    0    0    0    0  0.00000000000E+00  0.00000000000E+00  0.74505805969E-08  0.10566000000E+00  0.10566000000E+00 0. -1.
     999900   -1    0    0    0    0 -0.00000000000E+00 -0.00000000000E+00 -0.74505805969E-08  0.93827000000E+00  0.93827000000E+00 0. -1.
     999902    2    1    2    0    0  0.14269780991E-01 -0.14536657148E-01  0.13371207690E-01  0.10195634195E+01  0.10192722090E+01 0.  0.
     999903    2    3    3    0    0 -0.11102513578E+00 -0.29704199380E-01  0.56366018024E-01  0.12951992380E+00  0.19732268925E-01 0.  0.
         14    1    1    2    0    0 -0.14269780991E-01  0.14536657148E-01 -0.13371207690E-01  0.24366580508E-01  0.00000000000E+00 0. -1.
     999901    1    3    3    0    0  0.12529491677E+00  0.15167542232E-01 -0.42994810334E-01  0.89004349569E+00  0.88000000000E+00 0.  1.
        -11    1    4    4    0    0 -0.10301155094E+00 -0.32273392053E-01  0.54309934261E-01  0.12084196929E+00  0.51100000000E-03 0.  1.
         11    1    4    4    0    0 -0.80135848473E-02  0.25691926726E-02  0.20560837635E-02  0.86779545133E-02  0.51100000000E-03 0. -1.
</event>
<event>
 8    1  0.1111182E+005  0.1043930E+01  0.7957747E-01            NaN
         13   -1    0    0    0    0  0.00000000000E+00  0.00000000000E+00  0.74505805969E-08  0.10566000000E+00  0.10566000000E+00 0. -1.
     999900   -1    0    0    0    0 -0.00000000000E+00 -0.00000000000E+00 -0.74505805969E-08  0.93827000000E+00  0.93827000000E+00 0. -1.
     999902    2    1    2    0    0  0.95768055571E-02 -0.19860600493E-01 -0.96445921701E-02  0.10198639074E+01  0.10195799197E+01 0.  0.
     999903    2    3    3    0    0 -0.73024855607E-01 -0.24165883114E-01 -0.10401502502E+00  0.13096157950E+00  0.20376222216E-01 0.  0.
         14    1    1    2    0    0 -0.95768055571E-02  0.19860600493E-01  0.96445921701E-02  0.24066092636E-01  0.00000000000E+00 0. -1.
     999901    1    3    3    0    0  0.82601661164E-01  0.43052826210E-02  0.94370432852E-01  0.88890232786E+00  0.88000000000E+00 0.  1.
        -11    1    4    4    0    0 -0.17329119015E-01 -0.10186039414E-01 -0.15232626333E-01  0.25225934884E-01  0.51100000000E-03 0. -1.
         11    1    4    4    0    0 -0.55695736591E-01 -0.13979843700E-01 -0.88782398689E-01  0.10573564462E+00  0.51100000000E-03 0.  1.
</event>
<event>
 8    1  0.1111182E+005  0.1043930E+01  0.7957747E-01            NaN
         13   -1    0    0    0    0  0.00000000000E+00  0.00000000000E+00  0.74505805969E-08  0.10566000000E+00  0.10566000000E+00 0. -1.
     999900   -1    0    0    0    0 -0.00000000000E+00 -0.00000000000E+00 -0.74505805969E-08  0.93827000000E+00  0.93827000000E+00 0. -1.
     999902    2    1    2    0    0  0.82889331933E-02 -0.11536824760E-02  0.21795495357E-01  0.10205830299E+01  0.10203159510E+01 0.  0.
     999903    2    3    3    0    0 -0.34434287418E-01 -0.89797312004E-01  0.88914357090E-01  0.13255830710E+00  0.20412361246E-01 0.  0.
         14    1    1    2    0    0 -0.82889331933E-02  0.11536824760E-02 -0.21795495357E-01  0.23346970137E-01  0.00000000000E+00 0.  1.
     999901    1    3    3    0    0  0.42723220611E-01  0.88643629528E-01 -0.67118861733E-01  0.88802472276E+00  0.88000000000E+00 0. -1.
        -11    1    4    4    0    0 -0.12435038625E-01 -0.50538402427E-01  0.58158556924E-01  0.78047672419E-01  0.51100000000E-03 0. -1.
         11    1    4    4    0    0 -0.21999248793E-01 -0.39258909577E-01  0.30755800166E-01  0.54510634683E-01  0.51100000000E-03 0.  1.
</event>
<event>
 8    1  0.1111182E+005  0.1043930E+01  0.7957747E-01            NaN
         13   -1    0    0    0    0  0.00000000000E+00  0.00000000000E+00  0.74505805969E-08  0.10566000000E+00  0.10566000000E+00 0. -1.
     999900   -1    0    0    0    0 -0.00000000000E+00 -0.00000000000E+00 -0.74505805969E-08  0.93827000000E+00  0.93827000000E+00 0.  1.
     999902    2    1    2    0    0 -0.10866222343E-01 -0.11019869588E-01 -0.18067270730E-01  0.10201405363E+01  0.10198631159E+01 0.  0.
     999903    2    3    3    0    0  0.34068393269E-01  0.74585866944E-01 -0.10015584831E+00  0.13104774223E+00  0.20459956640E-01 0.  0.
         14    1    1    2    0    0  0.10866222343E-01  0.11019869588E-01  0.18067270730E-01  0.23789463747E-01  0.00000000000E+00 0. -1.
     999901    1    3    3    0    0 -0.44934615612E-01 -0.85605736532E-01  0.82088577582E-01  0.88909279402E+00  0.88000000000E+00 0. -1.
        -11    1    4    4    0    0  0.29579831069E-01  0.44061425848E-01 -0.55735763415E-01  0.76961757375E-01  0.51100000000E-03 0. -1.
         11    1    4    4    0    0  0.44885621998E-02  0.30524441097E-01 -0.44420084897E-01  0.54085984858E-01  0.51100000000E-03 0.  1.
</event>
<event>
 8    1  0.1111182E+005  0.1043930E+01  0.7957747E-01            NaN
         13   -1    0    0    0    0  0.00000000000E+00  0.00000000000E+00  0.74505805969E-08  0.10566000000E+00  0.10566000000E+00 0.  1.
     999900   -1    0    0    0    0 -0.00000000000E+00 -0.00000000000E+00 -0.74505805969E-08  0.93827000000E+00  0.93827000000E+00 0.  1.
     999902    2    1    2    0    0 -0.39445477462E-02  0.22196026002E-01 -0.58007676109E-02  0.10206518572E+01  0.10203863688E+01 0.  0.
     999903    2    3    3    0    0 -0.70436940665E-01  0.46662993257E-01 -0.10046532643E+00  0.13274350073E+00  0.19716937431E-01 0.  0.
         14    1    1    2    0    0  0.39445477462E-02 -0.22196026002E-01  0.58007676109E-02  0.23278142797E-01  0.00000000000E+00 0.  1.
     999901    1    3    3    0    0  0.66492392919E-01 -0.24466967255E-01  0.94664558814E-01  0.88790835648E+00  0.88000000000E+00 0. -1.
        -11    1    4    4    0    0 -0.24337303299E-01  0.56469795856E-02 -0.26654933833E-01  0.36536821550E-01  0.51100000000E-03 0. -1.
         11    1    4    4    0    0 -0.46099637366E-01  0.41016013672E-01 -0.73810392592E-01  0.96206679178E-01  0.51100000000E-03 0.  1.
</event>
<event>
 8    1  0.1600358E+005  0.1043930E+01  0.7957747E-01            NaN
         13   -1    0    0    0    0  0.00000000000E+00  0.00000000000E+00  0.74505805969E-08  0.10566000000E+00  0.10566000000E+00 0.  1.
     999900   -1    0    0    0    0 -0.00000000000E+00 -0.00000000000E+00 -0.74505805969E-08  0.93827000000E+00  0.93827000000E+00 0.  1.
     999902    2    1    2    0    0 -0.19163278205E-01  0.34064058560E-02  0.13977755939E-01  0.10199672687E+01  0.10196857441E+01 0.  0.
     999903    2    3    3    0    0 -0.39643687280E-01  0.12007325826E+00  0.31384785583E-01  0.13186051478E+00  0.20321941370E-01 0.  0.
         14    1    1    2    0    0  0.19163278205E-01 -0.34064058560E-02 -0.13977755939E-01  0.23962731345E-01  0.00000000000E+00 0. -1.
     999901    1    3    3    0    0  0.20480409075E-01 -0.11666685240E+00 -0.17407029644E-01  0.88810675388E+00  0.88000000000E+00 0. -1.
        -11    1    4    4    0    0 -0.34127953211E-01  0.72494420795E-01  0.17980582637E-01  0.82120160191E-01  0.51100000000E-03 0. -1.
         11    1    4    4    0    0 -0.55157340687E-02  0.47578837463E-01  0.13404202946E-01  0.49740354585E-01  0.51100000000E-03 0.  1.
</event>
<event>
 8    1  0.1144195E+005  0.1043930E+01  0.7957747E-01            NaN
         13   -1    0    0    0    0  0.00000000000E+00  0.00000000000E+00  0.74505805969E-08  0.10566000000E+00  0.10566000000E+00 0. -1.
     999900   -1    0    0    0    0 -0.00000000000E+00 -0.00000000000E+00 -0.74505805969E-08  0.93827000000E+00  0.93827000000E+00 0. -1.
     999902    2    1    2    0    0  0.18460296569E-01 -0.13797565294E-01 -0.26388336298E-01  0.10088943089E+01  0.10082857863E+01 0.  0.
     999903    2    3    3    0    0  0.31518260463E-01 -0.10868916431E+00  0.39473902827E-01  0.12124980770E+00  0.18346435158E-01 0.  0.
         14    1    1    2    0    0 -0.18460296569E-01  0.13797565294E-01  0.26388336298E-01  0.35035691089E-01  0.00000000000E+00 0. -1.
     999901    1    3    3    0    0 -0.13057963894E-01  0.94891599013E-01 -0.65862239126E-01  0.88764450121E+00  0.88000000000E+00 0. -1.
        -11    1    4    4    0    0  0.23917760698E-02 -0.39294761478E-01  0.12702114550E-01  0.41369115381E-01  0.51100000000E-03 0. -1.
         11    1    4    4    0    0  0.29126484393E-01 -0.69394402829E-01  0.26771788277E-01  0.79880692321E-01  0.51100000000E-03 0.  1.
</event>
<event>
 8    1  0.1111182E+005  0.1043930E+01  0.7957747E-01            NaN
         13   -1    0    0    0    0  0.00000000000E+00  0.00000000000E+00  0.74505805969E-08  0.10566000000E+00  0.10566000000E+00 0.  1.
     999900   -1    0    0    0    0 -0.00000000000E+00 -0.00000000000E+00 -0.74505805969E-08  0.93827000000E+00  0.93827000000E+00 0.  1.
     999902    2    1    2    0    0  0.96130557207E-03 -0.20892333959E-01 -0.30504468600E-02  0.10227942731E+01  0.10225758681E+01 0.  0.
     999903    2    3    3    0    0 -0.12275347953E+00 -0.30942165867E-01 -0.36829736739E-01  0.13344204386E+00  0.20603766555E-01 0.  0.
         14    1    1    2    0    0 -0.96130557207E-03  0.20892333959E-01  0.30504468600E-02  0.21135726926E-01  0.00000000000E+00 0.  1.
     999901    1    3    3    0    0  0.12371478511E+00  0.10049831908E-01  0.33779289879E-01  0.88935222921E+00  0.88000000000E+00 0.  1.
        -11    1    4    4    0    0 -0.52359955157E-01 -0.23329891142E-01 -0.19451211635E-01  0.60534779093E-01  0.51100000000E-03 0. -1.
         11    1    4    4    0    0 -0.70393524377E-01 -0.76122747246E-02 -0.17378525104E-01  0.72907264772E-01  0.51100000000E-03 0.  1.
</event>
<event>
 8    1  0.1111182E+005  0.1043930E+01  0.7957747E-01            NaN
         13   -1    0    0    0    0  0.00000000000E+00  0.00000000000E+00  0.74505805969E-08  0.10566000000E+00  0.10566000000E+00 0. -1.
     999900   -1    0    0    0    0 -0.00000000000E+00 -0.00000000000E+00 -0.74505805969E-08  0.93827000000E+00  0.93827000000E+00 0.  1.
     999902    2    1    2    0    0  0.65165474199E-02  0.13480384417E-01 -0.18063015218E-01  0.10204681443E+01  0.10201983997E+01 0.  0.
     999903    2    3    3    0    0 -0.37550402811E-01  0.49058037409E-01 -0.11629130543E+00  0.13319340528E+00  0.20002292497E-01 0.  0.
         14    1    1    2    0    0 -0.65165474199E-02 -0.13480384417E-01  0.18063015218E-01  0.23461855704E-01  0.00000000000E+00 0. -1.
     999901    1    3    3    0    0  0.44066950231E-01 -0.35577652992E-01  0.98228290216E-01  0.88727473901E+00  0.88000000000E+00 0. -1.
        -11    1    4    4    0    0 -0.32172674684E-01  0.34239177479E-01 -0.70157181082E-01  0.84437512097E-01  0.51100000000E-03 0. -1.
         11    1    4    4    0    0 -0.53777281268E-02  0.14818859929E-01 -0.46134124353E-01  0.48755893184E-01  0.51100000000E-03 0.  1.
</event>
<event>
 8    1  0.1111182E+005  0.1043930E+01  0.7957747E-01            NaN
         13   -1    0    0    0    0  0.00000000000E+00  0.00000000000E+00  0.74505805969E-08  0.10566000000E+00  0.10566000000E+00 0. -1.
     999900   -1    0    0    0    0 -0.00000000000E+00 -0.00000000000E+00 -0.74505805969E-08  0.93827000000E+00  0.93827000000E+00 0. -1.
     999902    2    1    2    0    0  0.20234891917E-01  0.97810605881E-02  0.64020581392E-02  0.10205610816E+01  0.10202934945E+01 0.  0.
     999903    2    3    3    0    0  0.11257774854E+00  0.65071933009E-01 -0.25087036157E-01  0.13344449020E+00  0.16430661865E-01 0.  0.
         14    1    1    2    0    0 -0.20234891917E-01 -0.97810605881E-02 -0.64020581392E-02  0.23368918364E-01  0.00000000000E+00 0. -1.
     999901    1    3    3    0    0 -0.92342856624E-01 -0.55290872421E-01  0.31489094296E-01  0.88711659144E+00  0.88000000000E+00 0.  1.
        -11    1    4    4    0    0  0.79186980864E-01  0.53226438112E-01 -0.21690798862E-01  0.97848778882E-01  0.51100000000E-03 0.  1.
         11    1    4    4    0    0  0.33390767676E-01  0.11845494897E-01 -0.33962372947E-02  0.35595711317E-01  0.51100000000E-03 0. -1.
</event>
<event>
 8    1  0.1111182E+005  0.1043930E+01  0.7957747E-01            NaN
         13   -1    0    0    0    0  0.00000000000E+00  0.00000000000E+00  0.74505805969E-08  0.10566000000E+00  0.10566000000E+00 0.  1.
     999900   -1    0    0    0    0 -0.00000000000E+00 -0.00000000000E+00 -0.74505805969E-08  0.93827000000E+00  0.93827000000E+00 0. -1.
     999902    2    1    2    0    0 -0.12712770080E-01  0.54745379928E-02 -0.19637831689E-01  0.10199043986E+01  0.10196213772E+01 0.  0.
     999903    2    3    3    0    0 -0.10150905632E+00  0.28506836190E-01  0.73769247978E-01  0.13021897681E+00  0.19958751207E-01 0.  0.
         14    1    1    2    0    0  0.12712770080E-01 -0.54745379928E-02  0.19637831689E-01  0.24025601403E-01  0.00000000000E+00 0.  1.
     999901    1    3    3    0    0  0.88796286238E-01 -0.23032298197E-01 -0.93407079667E-01  0.88968542179E+00  0.88000000000E+00 0. -1.
        -11    1    4    4    0    0 -0.18705353011E-01  0.83568645355E-02  0.60512898840E-02  0.21368356193E-01  0.51100000000E-03 0.  1.
         11    1    4    4    0    0 -0.82803703307E-01  0.20149971655E-01  0.67717958094E-01  0.10885062062E+00  0.51100000000E-03 0. -1.
</event>
<event>
 8    1  0.1111182E+005  0.1043930E+01  0.7957747E-01            NaN
         13   -1    0    0    0    0  0.00000000000E+00  0.00000000000E+00  0.74505805969E-08  0.10566000000E+00  0.10566000000E+00 0. -1.
     999900   -1    0    0    0    0 -0.00000000000E+00 -0.00000000000E+00 -0.74505805969E-08  0.93827000000E+00  0.93827000000E+00 0.  1.
     999902    2    1    2    0    0  0.18487348370E-01 -0.70501138248E-03 -0.14758068758E-01  0.10202639973E+01  0.10199894825E+01 0.  0.
     999903    2    3    3    0    0 -0.30879485948E-01 -0.12352986645E+00  0.15674267203E-01  0.12984322236E+00  0.20010227000E-01 0.  0.
         14    1    1    2    0    0 -0.18487348370E-01  0.70501138248E-03  0.14758068758E-01  0.23666002710E-01  0.00000000000E+00 0. -1.
     999901    1    3    3    0    0  0.49366834318E-01  0.12282485506E+00 -0.30432335961E-01  0.89042077493E+00  0.88000000000E+00 0.  1.
        -11    1    4    4    0    0 -0.92813709409E-02 -0.62238600018E-01  0.15691787899E-01  0.64855844048E-01  0.51100000000E-03 0.  1.
         11    1    4    4    0    0 -0.21598115007E-01 -0.61291266427E-01 -0.17520696379E-04  0.64987378313E-01  0.51100000000E-03 0. -1.
</event>
<event>
 8    1  0.1111182E+005  0.1043930E+01  0.7957747E-01            NaN
         13   -1    0    0    0    0  0.00000000000E+00  0.00000000000E+00  0.74505805969E-08  0.10566000000E+00  0.10566000000E+00 0. -1.
     999900   -1    0    0    0    0 -0.00000000000E+00 -0.00000000000E+00 -0.74505805969E-08  0.93827000000E+00  0.93827000000E+00 0. -1.
     999902    2    1    2    0    0 -0.17318251880E-01  0.14234252006E-01 -0.67626345557E-02  0.10205148552E+01  0.10202461961E+01 0.  0.
     999903    2    3    3    0    0  0.86471937969E-01  0.87588221417E-01 -0.38747698824E-01  0.13080914396E+00  0.21460554324E-01 0.  0.
         14    1    1    2    0    0  0.17318251880E-01 -0.14234252006E-01  0.67626345557E-02  0.23415144768E-01  0.00000000000E+00 0. -1.
     999901    1    3    3    0    0 -0.10379018985E+00 -0.73353969412E-01  0.31985064268E-01  0.88970571127E+00  0.88000000000E+00 0.  1.
        -11    1    4    4    0    0  0.21110105524E-01  0.17905798300E-01  0.63317047861E-04  0.27686084917E-01  0.51100000000E-03 0.  1.
         11    1    4    4    0    0  0.65361832445E-01  0.69682423117E-01 -0.38811015872E-01  0.10312305904E+00  0.51100000000E-03 0. -1.
</event>
<event>
 8    1  0.1111182E+005  0.1043930E+01  0.7957747E-01            NaN
         13   -1    0    0    0    0  0.00000000000E+00  0.00000000000E+00  0.74505805969E-08  0.10566000000E+00  0.10566000000E+00 0.  1.
     999900   -1    0    0    0    0 -0.00000000000E+00 -0.00000000000E+00 -0.74505805969E-08  0.93827000000E+00  0.93827000000E+00 0.  1.
     999902    2    1    2    0    0  0.22381264205E-01 -0.18571598610E-03  0.72711602801E-02  0.10203965079E+01  0.10201250943E+01 0.  0.
     999903    2    3    3    0    0 -0.12067054991E+00 -0.20833901950E-01  0.33455652791E-01  0.12822175107E+00  0.18058340411E-01 0.  0.
         14    1    1    2    0    0 -0.22381264205E-01  0.18571598610E-03 -0.72711602801E-02  0.23533492084E-01  0.00000000000E+00 0.  1.
     999901    1    3    3    0    0  0.14305181411E+00  0.20648185963E-01 -0.26184492511E-01  0.89217475685E+00  0.88000000000E+00 0. -1.
        -11    1    4    4    0    0 -0.52992253865E-01 -0.21219823728E-03  0.12866054601E-01  0.54534580587E-01  0.51100000000E-03 0.  1.
         11    1    4    4    0    0 -0.67678296043E-01 -0.20621703712E-01  0.20589598190E-01  0.73687170483E-01  0.51100000000E-03 0. -1.
</event>
<event>
 8    1  0.1111182E+005  0.1043930E+01  0.7957747E-01            NaN
         13   -1    0    0    0    0  0.00000000000E+00  0.00000000000E+00  0.74505805969E-08  0.10566000000E+00  0.10566000000E+00 0.  1.
     999900   -1    0    0    0    0 -0.00000000000E+00 -0.00000000000E+00 -0.74505805969E-08  0.93827000000E+00  0.93827000000E+00 0.  1.
     999902    2    1    2    0    0  0.56313527274E-02  0.35134108413E-02 -0.23332377157E-01  0.10196718877E+01  0.10193832952E+01 0.  0.
     999903    2    3    3    0    0  0.52557857688E-01  0.74249100669E-01 -0.94499695219E-01  0.13272745772E+00  0.20276298527E-01 0.  0.
         14    1    1    2    0    0 -0.56313527274E-02 -0.35134108413E-02  0.23332377157E-01  0.24258112315E-01  0.00000000000E+00 0.  1.
     999901    1    3    3    0    0 -0.46926504960E-01 -0.70735689828E-01  0.71167318062E-01  0.88694442996E+00  0.88000000000E+00 0. -1.
        -11    1    4    4    0    0  0.27284813417E-01  0.24415799448E-01 -0.45531600048E-01  0.58429273740E-01  0.51100000000E-03 0. -1.
         11    1    4    4    0    0  0.25273044271E-01  0.49833301221E-01 -0.48968095171E-01  0.74298183982E-01  0.51100000000E-03 0.  1.
</event>
<event>
 8    1  0.1111182E+005  0.1043930E+01  0.7957747E-01            NaN
         13   -1    0    0    0    0  0.00000000000E+00  0.00000000000E+00  0.74505805969E-08  0.10566000000E+00  0.10566000000E+00 0.  1.
     999900   -1    0    0    0    0 -0.00000000000E+00 -0.00000000000E+00 -0.74505805969E-08  0.93827000000E+00  0.93827000000E+00 0. -1.
     999902    2    1    2    0    0  0.11480439769E-01  0.21563617224E-01 -0.59274958533E-03  0.10194935224E+01  0.10192006185E+01 0.  0.
     999903    2    3    3    0    0 -0.94170936530E-01  0.79370415728E-01  0.37921409309E-01  0.13045630176E+00  0.20322037396E-01 0.  0.
         14    1    1    2    0    0 -0.11480439769E-01 -0.21563617224E-01  0.59274958533E-03  0.24436477593E-01  0.00000000000E+00 0.  1.
     999901    1    3    3    0    0  0.10565137630E+00 -0.57806798504E-01 -0.38514158895E-01  0.88903722065E+00  0.88000000000E+00 0. -1.
        -11    1    4    4    0    0 -0.71361396814E-01  0.52217323339E-01  0.34142855299E-01  0.94789733099E-01  0.51100000000E-03 0. -1.
         11    1    4    4    0    0 -0.22809539717E-01  0.27153092389E-01  0.37785540099E-02  0.35666568657E-01  0.51100000000E-03 0.  1.
</event>
<event>
 8    1  0.1111182E+005  0.1043930E+01  0.7957747E-01            NaN
         13   -1    0    0    0    0  0.00000000000E+00  0.00000000000E+00  0.74505805969E-08  0.10566000000E+00  0.10566000000E+00 0.  1.
     999900   -1    0    0    0    0 -0.00000000000E+00 -0.00000000000E+00 -0.74505805969E-08  0.93827000000E+00  0.93827000000E+00 0.  1.
     999902    2    1    2    0    0  0.53155307957E-02  0.19068318113E-01  0.11837386148E-01  0.10208653228E+01  0.10206047364E+01 0.  0.
     999903    2    3    3    0    0 -0.83215500917E-01 -0.86991233962E-01 -0.40697231200E-01  0.12853900459E+00  0.19331753516E-01 0.  0.
         14    1    1    2    0    0 -0.53155307957E-02 -0.19068318113E-01 -0.11837386148E-01  0.23064677195E-01  0.00000000000E+00 0. -1.
     999901    1    3    3    0    0  0.88531031713E-01  0.10605955207E+00  0.52534617348E-01  0.89232631822E+00  0.88000000000E+00 0. -1.
        -11    1    4    4    0    0 -0.18509638637E-01 -0.24240212500E-01 -0.23831648169E-02  0.30596326905E-01  0.51100000000E-03 0. -1.
         11    1    4    4    0    0 -0.64705862281E-01 -0.62751021462E-01 -0.38314066383E-01  0.97942677683E-01  0.51100000000E-03 0.  1.
</event>
<event>
 8    1  0.1111182E+005  0.1043930E+01  0.7957747E-01            NaN
         13   -1    0    0    0    0  0.00000000000E+00  0.00000000000E+00  0.74505805969E-08  0.10566000000E+00  0.10566000000E+00 0.  1.
     999900   -1    0    0    0    0 -0.00000000000E+00 -0.00000000000E+00 -0.74505805969E-08  0.93827000000E+00  0.93827000000E+00 0. -1.
     999902    2    1    2    0    0  0.12984857883E-01 -0.89469713000E-02  0.16659979117E-01  0.10209907382E+01  0.10207330100E+01 0.  0.
     999903    2    3    3    0    0 -0.16178794720E-01 -0.13467292913E-01  0.13016183327E+00  0.13321057233E+00  0.18969247815E-01 0.  0.
         14    1    1    2    0    0 -0.12984857883E-01  0.89469713000E-02 -0.16659979117E-01  0.22939261842E-01  0.00000000000E+00 0. -1.
     999901    1    3    3    0    0  0.29163652603E-01  0.45203216126E-02 -0.11350185416E+00  0.88778016583E+00  0.88000000000E+00 0. -1.
        -11    1    4    4    0    0 -0.55582975790E-02  0.25189318660E-02  0.11727031329E-01  0.13229666455E-01  0.51100000000E-03 0.  1.
         11    1    4    4    0    0 -0.10620497141E-01 -0.15986224779E-01  0.11843480194E+00  0.11998090587E+00  0.51100000000E-03 0. -1.
</event>
<event>
 8    1  0.1111182E+005  0.1043930E+01  0.7957747E-01            NaN
         13   -1    0    0    0    0  0.00000000000E+00  0.00000000000E+00  0.74505805969E-08  0.10566000000E+00  0.10566000000E+00 0. -1.
     999900   -1    0    0    0    0 -0.00000000000E+00 -0.00000000000E+00 -0.74505805969E-08  0.93827000000E+00  0.93827000000E+00 0. -1.
     999902    2    1    2    0    0 -0.11501550817E-01  0.85736067060E-02 -0.16880351240E-01  0.10217773780E+01  0.10215372101E+01 0.  0.
     999903    2    3    3    0    0 -0.53378402099E-01 -0.97002079577E-01 -0.70702872965E-01  0.13284725699E+00  0.19769678579E-01 0.  0.
         14    1    1    2    0    0  0.11501550817E-01 -0.85736067060E-02  0.16880351240E-01  0.22152621993E-01  0.00000000000E+00 0. -1.
     999901    1    3    3    0    0  0.41876851282E-01  0.10557568628E+00  0.53822521725E-01  0.88893012102E+00  0.88000000000E+00 0.  1.
        -11    1    4    4    0    0 -0.19603605874E-01 -0.22690743478E-01 -0.11997473337E-01  0.32301264531E-01  0.51100000000E-03 0. -1.
         11    1    4    4    0    0 -0.33774796225E-01 -0.74311336100E-01 -0.58705399628E-01  0.10054599246E+00  0.51100000000E-03 0.  1.
</event>
<event>
 7    1  0.1111182E+005  0.1043930E+01  0.7957747E-01            NaN
         13   -1    0    0    0    0  0.00000000000E+00  0.00000000000E+00  0.74505805969E-08  0.10566000000E+00  0.10566000000E+00 0. -1.
     999900   -1    0    0    0    0 -0.00000000000E+00 -0.00000000000E+00 -0.74505805969E-08  0.93827000000E+00  0.93827000000E+00 0. -1.
     999903    2    1    2    0    0  0.14551295236E-01 -0.63716835691E-01 -0.99206249251E-01  0.12044686885E+00  0.19849256481E-01 0.  0.
         14    1    1    2    0    0 -0.25958659127E-01  0.24967912100E-01  0.13232655966E-01  0.38371236652E-01  0.00000000000E+00 0. -1.
     999901    1    1    2    0    0  0.11407363892E-01  0.38748923592E-01  0.85973593285E-01  0.88511189449E+00  0.88000000000E+00 0.  1.
        -11    1    3    3    0    0 -0.22879635376E-02 -0.10445264679E-01 -0.75354827729E-02  0.13091331215E-01  0.51100000000E-03 0. -1.
         11    1    3    3    0    0  0.16839258773E-01 -0.53271571012E-01 -0.91670766478E-01  0.10735553764E+00  0.51100000000E-03 0.  1.
</event>
<event>
 8    1  0.1111182E+005  0.1043930E+01  0.7957747E-01            NaN
         13   -1    0    0    0    0  0.00000000000E+00  0.00000000000E+00  0.74505805969E-08  0.10566000000E+00  0.10566000000E+00 0.  1.
     999900   -1    0    0    0    0 -0.00000000000E+00 -0.00000000000E+00 -0.74505805969E-08  0.93827000000E+00  0.93827000000E+00 0.  1.
     999902    2    1    2    0    0 -0.71471666900E-02 -0.21379702420E-01 -0.38628066024E-02  0.10210587311E+01  0.10208025457E+01 0.  0.
     999903    2    3    3    0    0 -0.71423430511E-01  0.34126801522E-01 -0.10278816216E+00  0.13145284303E+00  0.21177786771E-01 0.  0.
         14    1    1    2    0    0  0.71471666900E-02  0.21379702420E-01  0.38628066024E-02  0.22871268922E-01  0.00000000000E+00 0.  1.
     999901    1    3    3    0    0  0.64276263821E-01 -0.55506503943E-01  0.98925355561E-01  0.88960588804E+00  0.88000000000E+00 0. -1.
        -11    1    4    4    0    0 -0.34070512547E-02  0.83688995486E-02 -0.14108390250E-01  0.16761690677E-01  0.51100000000E-03 0.  1.
         11    1    4    4    0    0 -0.68016379256E-01  0.25757901974E-01 -0.88679771913E-01  0.11469115236E+00  0.51100000000E-03 0. -1.
</event>
<event>
 8    1  0.1111182E+005  0.1043930E+01  0.7957747E-01            NaN
         13   -1    0    0    0    0  0.00000000000E+00  0.00000000000E+00  0.74505805969E-08  0.10566000000E+00  0.10566000000E+00 0.  1.
     999900   -1    0    0    0    0 -0.00000000000E+00 -0.00000000000E+00 -0.74505805969E-08  0.93827000000E+00  0.93827000000E+00 0. -1.
     999902    2    1    2    0    0 -0.82551303789E-02  0.55473490349E-02  0.21597174424E-01  0.10201527377E+01  0.10198756052E+01 0.  0.
     999903    2    3    3    0    0  0.10127917873E+00 -0.74116447195E-01 -0.18068696409E-01  0.12890784061E+00  0.23238627140E-01 0.  0.
         14    1    1    2    0    0  0.82551303789E-02 -0.55473490349E-02 -0.21597174424E-01  0.23777262290E-01  0.00000000000E+00 0. -1.
     999901    1    3    3    0    0 -0.10953430911E+00  0.79663796230E-01  0.39665870834E-01  0.89124489710E+00  0.88000000000E+00 0.  1.
        -11    1    4    4    0    0  0.57926964753E-01 -0.31489477573E-01 -0.17028792630E-01  0.68098174298E-01  0.51100000000E-03 0. -1.
         11    1    4    4    0    0  0.43352213976E-01 -0.42626969622E-01 -0.10399037796E-02  0.60809666310E-01  0.51100000000E-03 0.  1.
</event>
<event>
 8    1  0.1111182E+005  0.1043930E+01  0.7957747E-01            NaN
         13   -1    0    0    0    0  0.00000000000E+00  0.00000000000E+00  0.74505805969E-08  0.10566000000E+00  0.10566000000E+00 0. -1.
     999900   -1    0    0    0    0 -0.00000000000E+00 -0.00000000000E+00 -0.74505805969E-08  0.93827000000E+00  0.93827000000E+00 0.  1.
     999902    2    1    2    0    0 -0.11240933816E-01  0.20973253348E-01 -0.19965866872E-02  0.10200506720E+01  0.10197711268E+01 0.  0.
     999903    2    3    3    0    0  0.66164294006E-01  0.75269456844E-01  0.83051689990E-01  0.13090903174E+00  0.14013794877E-01 0.  0.
         14    1    1    2    0    0  0.11240933816E-01 -0.20973253348E-01  0.19965866872E-02  0.23879328036E-01  0.00000000000E+00 0. -1.
     999901    1    3    3    0    0 -0.77405227822E-01 -0.54296203496E-01 -0.85048276678E-01  0.88914164022E+00  0.88000000000E+00 0.  1.
        -11    1    4    4    0    0  0.10451070491E-01  0.19755718714E-01  0.15186363743E-01  0.27025914620E-01  0.51100000000E-03 0.  1.
         11    1    4    4    0    0  0.55713223516E-01  0.55513738130E-01  0.67865326248E-01  0.10388311712E+00  0.51100000000E-03 0. -1.
</event>
<event>
 8    1  0.1111182E+005  0.1043930E+01  0.7957747E-01            NaN
         13   -1    0    0    0    0  0.00000000000E+00  0.00000000000E+00  0.74505805969E-08  0.10566000000E+00  0.10566000000E+00 0.  1.
     999900   -1    0    0    0    0 -0.00000000000E+00 -0.00000000000E+00 -0.74505805969E-08  0.93827000000E+00  0.93827000000E+00 0.  1.
     999902    2    1    2    0    0 -0.10684844746E-01  0.68282157449E-02 -0.20375054131E-01  0.10199313903E+01  0.10196490120E+01 0.  0.
     999903    2    3    3    0    0  0.10818947450E+00  0.54256982155E-01  0.38708562079E-01  0.12871230085E+00  0.20487096092E-01 0.  0.
         14    1    1    2    0    0  0.10684844746E-01 -0.68282157449E-02  0.20375054131E-01  0.23998609717E-01  0.00000000000E+00 0.  1.
     999901    1    3    3    0    0 -0.11887431925E+00 -0.47428766410E-01 -0.59083616211E-01  0.89121908943E+00  0.88000000000E+00 0.  1.
        -11    1    4    4    0    0  0.44567840024E-01  0.33695254823E-01  0.18654354948E-01  0.58905930445E-01  0.51100000000E-03 0.  1.
         11    1    4    4    0    0  0.63621634480E-01  0.20561727332E-01  0.20054207131E-01  0.69806370408E-01  0.51100000000E-03 0. -1.
</event>
<event>
 8    1  0.1111182E+005  0.1043930E+01  0.7957747E-01            NaN
         13   -1    0    0    0    0  0.00000000000E+00  0.00000000000E+00  0.74505805969E-08  0.10566000000E+00  0.10566000000E+00 0. -1.
     999900   -1    0    0    0    0 -0.00000000000E+00 -0.00000000000E+00 -0.74505805969E-08  0.93827000000E+00  0.93827000000E+00 0. -1.
     999902    2    1    2    0    0 -0.80817786464E-02 -0.21152796383E-01  0.62389448616E-02  0.10204421228E+01  0.10201717726E+01 0.  0.
     999903    2    3    3    0    0  0.18624543162E-01 -0.12031791902E+00  0.50089873915E-01  0.13338527395E+00  0.21432699153E-01 0.  0.
         14    1    1    2    0    0  0.80817786464E-02  0.21152796383E-01 -0.62389448616E-02  0.23487877168E-01  0.00000000000E+00 0.  1.
     999901    1    3    3    0    0 -0.26706321808E-01  0.99165122634E-01 -0.43850929053E-01  0.88705684888E+00  0.88000000000E+00 0. -1.
        -11    1    4    4    0    0 -0.28572647754E-02 -0.38013073878E-01  0.10393855074E-01  0.39515200771E-01  0.51100000000E-03 0.  1.
         11    1    4    4    0    0  0.21481807937E-01 -0.82304845139E-01  0.39696018841E-01  0.93870073178E-01  0.51100000000E-03 0. -1.
</event>
<event>
 8    1  0.1111182E+005  0.1043930E+01  0.7957747E-01            NaN
         13   -1    0    0    0    0  0.00000000000E+00  0.00000000000E+00  0.74505805969E-08  0.10566000000E+00  0.10566000000E+00 0.  1.
     999900   -1    0    0    0    0 -0.00000000000E+00 -0.00000000000E+00 -0.74505805969E-08  0.93827000000E+00  0.93827000000E+00 0.  1.
     999902    2    1    2    0    0 -0.13483362025E-01  0.19224584099E-01  0.53088081330E-02  0.10198557580E+01  0.10195715757E+01 0.  0.
     999903    2    3    3    0    0 -0.96179342118E-02 -0.11967950765E+00  0.40797763240E-01  0.12824555493E+00  0.19151388075E-01 0.  0.
         14    1    1    2    0    0  0.13483362025E-01 -0.19224584099E-01 -0.53088081330E-02  0.24074242025E-01  0.00000000000E+00 0. -1.
     999901    1    3    3    0    0 -0.38654278132E-02  0.13890409175E+00 -0.35488955107E-01  0.89161020304E+00  0.88000000000E+00 0. -1.
        -11    1    4    4    0    0  0.46991953689E-02 -0.29316507040E-01  0.14520385388E-01  0.33055146875E-01  0.51100000000E-03 0. -1.
         11    1    4    4    0    0 -0.14317129581E-01 -0.90363000608E-01  0.26277377852E-01  0.95190408057E-01  0.51100000000E-03 0.  1.
</event>
<event>
 8    1  0.1111182E+005  0.1043930E+01  0.7957747E-01            NaN
         13   -1    0    0    0    0  0.00000000000E+00  0.00000000000E+00  0.74505805969E-08  0.10566000000E+00  0.10566000000E+00 0.  1.
     999900   -1    0    0    0    0 -0.00000000000E+00 -0.00000000000E+00 -0.74505805969E-08  0.93827000000E+00  0.93827000000E+00 0. -1.
     999902    2    1    2    0    0 -0.22234597516E-01  0.41749765518E-02 -0.81761986936E-03  0.10212920615E+01  0.10210411347E+01 0.  0.
     999903    2    3    3    0    0  0.65764832011E-01  0.94697318889E-02  0.10996050000E+00  0.12997633415E+00  0.19693829655E-01 0.  0.
         14    1    1    2    0    0  0.22234597516E-01 -0.41749765518E-02  0.81761986936E-03  0.22637938470E-01  0.00000000000E+00 0. -1.
     999901    1    3    3    0    0 -0.87999429527E-01 -0.52947553371E-02 -0.11077811987E+00  0.89131572738E+00  0.88000000000E+00 0. -1.
        -11    1    4    4    0    0  0.22818602225E-01  0.79703944722E-02  0.55984139573E-01  0.60981151189E-01  0.51100000000E-03 0. -1.
         11    1    4    4    0    0  0.42946229786E-01  0.14993374168E-02  0.53976360431E-01  0.68995182962E-01  0.51100000000E-03 0.  1.
</event>
<event>
 8    1  0.1154628E+005  0.1043930E+01  0.7957747E-01            NaN
         13   -1    0    0    0    0  0.00000000000E+00  0.00000000000E+00  0.74505805969E-08  0.10566000000E+00  0.10566000000E+00 0.  1.
     999900   -1    0    0    0    0 -0.00000000000E+00 -0.00000000000E+00 -0.74505805969E-08  0.93827000000E+00  0.93827000000E+00 0. -1.
     999902    2    1    2    0    0  0.83893660365E-02  0.44354505035E-02  0.22575937409E-01  0.10194406629E+01  0.10191464750E+01 0.  0.
     999903    2    3    3    0    0 -0.27591506432E-01  0.11199338543E+00  0.59754016411E-01  0.13138349009E+00  0.19679161181E-01 0.  0.
         14    1    1    2    0    0 -0.83893660365E-02 -0.44354505035E-02 -0.22575937409E-01  0.24489337140E-01  0.00000000000E+00 0. -1.
     999901    1    3    3    0    0  0.35980872469E-01 -0.10755793492E+00 -0.37178079002E-01  0.88805717277E+00  0.88000000000E+00 0. -1.
        -11    1    4    4    0    0 -0.81521636664E-02  0.28105770042E-01  0.25110176468E-01  0.38563897176E-01  0.51100000000E-03 0. -1.
         11    1    4    4    0    0 -0.19439342766E-01  0.83887615384E-01  0.34643839943E-01  0.92819592915E-01  0.51100000000E-03 0.  1.
</event>
<event>
 8    1  0.1111182E+005  0.1043930E+01  0.7957747E-01            NaN
         13   -1    0    0    0    0  0.00000000000E+00  0.00000000000E+00  0.74505805969E-08  0.10566000000E+00  0.10566000000E+00 0. -1.
     999900   -1    0    0    0    0 -0.00000000000E+00 -0.00000000000E+00 -0.74505805969E-08  0.93827000000E+00  0.93827000000E+00 0.  1.
     999902    2    1    2    0    0 -0.47151187428E-02  0.15413715010E-01  0.17417341166E-01  0.10201986130E+01  0.10199225614E+01 0.  0.
     999903    2    3    3    0    0  0.47241626086E-01  0.46729157466E-01  0.11334409861E+00  0.13290942505E+00  0.20066020705E-01 0.  0.
         14    1    1    2    0    0  0.47151187428E-02 -0.15413715010E-01 -0.17417341166E-01  0.23731386990E-01  0.00000000000E+00 0.  1.
     999901    1    3    3    0    0 -0.51956744829E-01 -0.31315442456E-01 -0.95926757439E-01  0.88728918796E+00  0.88000000000E+00 0.  1.
        -11    1    4    4    0    0  0.20433873285E-01  0.13419337975E-01  0.58207538575E-01  0.63134780249E-01  0.51100000000E-03 0.  1.
         11    1    4    4    0    0  0.26807752801E-01  0.33309819491E-01  0.55136560030E-01  0.69774644805E-01  0.51100000000E-03 0. -1.
</event>
<event>
 8    1  0.1111182E+005  0.1043930E+01  0.7957747E-01            NaN
         13   -1    0    0    0    0  0.00000000000E+00  0.00000000000E+00  0.74505805969E-08  0.10566000000E+00  0.10566000000E+00 0.  1.
     999900   -1    0    0    0    0 -0.00000000000E+00 -0.00000000000E+00 -0.74505805969E-08  0.93827000000E+00  0.93827000000E+00 0.  1.
     999902    2    1    2    0    0  0.14017801892E-01 -0.22762659201E-02  0.18481330780E-01  0.10206224960E+01  0.10203563297E+01 0.  0.
     999903    2    3    3    0    0  0.68892835035E-01  0.44482379740E-01 -0.98780806664E-01  0.12992162078E+00  0.19926739653E-01 0.  0.
         14    1    1    2    0    0 -0.14017801892E-01  0.22762659201E-02 -0.18481330780E-01  0.23307504023E-01  0.00000000000E+00 0. -1.
     999901    1    3    3    0    0 -0.54875033143E-01 -0.46758645661E-01  0.11726213744E+00  0.89070087520E+00  0.88000000000E+00 0. -1.
        -11    1    4    4    0    0  0.35813924539E-01  0.30444979185E-01 -0.43889905617E-01  0.64312665040E-01  0.51100000000E-03 0.  1.
         11    1    4    4    0    0  0.33078910496E-01  0.14037400555E-01 -0.54890901047E-01  0.65608955735E-01  0.51100000000E-03 0. -1.
</event>
<event>
 8    1  0.1111182E+005  0.1043930E+01  0.7957747E-01            NaN
         13   -1    0    0    0    0  0.00000000000E+00  0.00000000000E+00  0.74505805969E-08  0.10566000000E+00  0.10566000000E+00 0.  1.
     999900   -1    0    0    0    0 -0.00000000000E+00 -0.00000000000E+00 -0.74505805969E-08  0.93827000000E+00  0.93827000000E+00 0. -1.
     999902    2    1    2    0    0  0.14689023376E-01  0.63862797451E-02  0.15205759751E-01  0.10218445499E+01  0.10216058521E+01 0.  0.
     999903    2    3    3    0    0 -0.45973692433E-01 -0.10085056600E+00  0.68354195043E-01  0.13167352006E+00  0.19524416701E-01 0.  0.
         14    1    1    2    0    0 -0.14689023376E-01 -0.63862797451E-02 -0.15205759751E-01  0.22085450105E-01  0.00000000000E+00 0. -1.
     999901    1    3    3    0    0  0.60662715809E-01  0.10723684575E+00 -0.53148435292E-01  0.89017102983E+00  0.88000000000E+00 0.  1.
        -11    1    4    4    0    0 -0.26687498024E-01 -0.77163452542E-01  0.45078836607E-01  0.93267269660E-01  0.51100000000E-03 0.  1.
         11    1    4    4    0    0 -0.19286194409E-01 -0.23687113459E-01  0.23275358437E-01  0.38406250405E-01  0.51100000000E-03 0. -1.
</event>
<event>
 8    1  0.1111182E+005  0.1043930E+01  0.7957747E-01            NaN
         13   -1    0    0    0    0  0.00000000000E+00  0.00000000000E+00  0.74505805969E-08  0.10566000000E+00  0.10566000000E+00 0. -1.
     999900   -1    0    0    0    0 -0.00000000000E+00 -0.00000000000E+00 -0.74505805969E-08  0.93827000000E+00  0.93827000000E+00 0.  1.
     999902    2    1    2    0    0  0.17639047952E-01 -0.27325509071E-03  0.15836195310E-01  0.10202235502E+01  0.10199480852E+01 0.  0.
     999903    2    3    3    0    0 -0.83641932987E-02 -0.12713517867E+00  0.20034163488E-01  0.13073620393E+00  0.21383964240E-01 0.  0.
         14    1    1    2    0    0 -0.17639047952E-01  0.27325509071E-03 -0.15836195310E-01  0.23706449817E-01  0.00000000000E+00 0. -1.
     999901    1    3    3    0    0  0.26003241251E-01  0.12686192358E+00 -0.41979681777E-02  0.88948734625E+00  0.88000000000E+00 0. -1.
        -11    1    4    4    0    0 -0.16223280959E-02 -0.72989095469E-01  0.21632078850E-01  0.76146227498E-01  0.51100000000E-03 0.  1.
         11    1    4    4    0    0 -0.67418652028E-02 -0.54146083200E-01 -0.15979153621E-02  0.54589976431E-01  0.51100000000E-03 0. -1.
</event>
<event>
 8    1  0.1111182E+005  0.1043930E+01  0.7957747E-01            NaN
         13   -1    0    0    0    0  0.00000000000E+00  0.00000000000E+00  0.74505805969E-08  0.10566000000E+00  0.10566000000E+00 0. -1.
     999900   -1    0    0    0    0 -0.00000000000E+00 -0.00000000000E+00 -0.74505805969E-08  0.93827000000E+00  0.93827000000E+00 0.  1.
     999902    2    1    2    0    0  0.53012497980E-02  0.41761379630E-03  0.21137119165E-01  0.10221342330E+01  0.10219018225E+01 0.  0.
     999903    2    3    3    0    0  0.66394468986E-01  0.51498147002E-01 -0.97892132105E-01  0.13055722293E+00  0.20050792364E-01 0.  0.
         14    1    1    2    0    0 -0.53012497980E-02 -0.41761379630E-03 -0.21137119165E-01  0.21795766958E-01  0.00000000000E+00 0.  1.
     999901    1    3    3    0    0 -0.61093219189E-01 -0.51080533205E-01  0.11902925127E+00  0.89157701011E+00  0.88000000000E+00 0.  1.
        -11    1    4    4    0    0  0.19927570452E-01  0.22411626358E-01 -0.23273332632E-01  0.37964433262E-01  0.51100000000E-03 0. -1.
         11    1    4    4    0    0  0.46466898534E-01  0.29086520644E-01 -0.74618799473E-01  0.92592789667E-01  0.51100000000E-03 0.  1.
</event>
<event>
 8    1  0.1111182E+005  0.1043930E+01  0.7957747E-01            NaN
         13   -1    0    0    0    0  0.00000000000E+00  0.00000000000E+00  0.74505805969E-08  0.10566000000E+00  0.10566000000E+00 0. -1.
     999900   -1    0    0    0    0 -0.00000000000E+00 -0.00000000000E+00 -0.74505805969E-08  0.93827000000E+00  0.93827000000E+00 0.  1.
     999902    2    1    2    0    0  0.31016495870E-02  0.60634725650E-02 -0.23713874707E-01  0.10192574691E+01  0.10189588090E+01 0.  0.
     999903    2    3    3    0    0 -0.77418577900E-01  0.53808239739E-01  0.83905906495E-01  0.12777270355E+00  0.19917323082E-01 0.  0.
         14    1    1    2    0    0 -0.31016495870E-02 -0.60634725650E-02  0.23713874707E-01  0.24672530947E-01  0.00000000000E+00 0. -1.
     999901    1    3    3    0    0  0.80520227487E-01 -0.47744767174E-01 -0.10761978120E+00  0.89148476551E+00  0.88000000000E+00 0.  1.
        -11    1    4    4    0    0 -0.49948639776E-01  0.28608497248E-01  0.61683827493E-01  0.84371016502E-01  0.51100000000E-03 0. -1.
         11    1    4    4    0    0 -0.27469938124E-01  0.25199742490E-01  0.22222079002E-01  0.43401687044E-01  0.51100000000E-03 0.  1.
</event>
<event>
 8    1  0.1111182E+005  0.1043930E+01  0.7957747E-01            NaN
         13   -1    0    0    0    0  0.00000000000E+00  0.00000000000E+00  0.74505805969E-08  0.10566000000E+00  0.10566000000E+00 0.  1.
     999900   -1    0    0    0    0 -0.00000000000E+00 -0.00000000000E+00 -0.74505805969E-08  0.93827000000E+00  0.93827000000E+00 0. -1.
     999902    2    1    2    0    0 -0.36002465071E-02  0.13807508707E-01  0.18429194495E-01  0.10206223986E+01  0.10203562301E+01 0.  0.
     999903    2    3    3    0    0  0.25008747772E-01 -0.71640636929E-01 -0.10115028326E+00  0.12797514936E+00  0.19708899604E-01 0.  0.
         14    1    1    2    0    0  0.36002465071E-02 -0.13807508707E-01 -0.18429194495E-01  0.23307601364E-01  0.00000000000E+00 0. -1.
     999901    1    3    3    0    0 -0.28608994279E-01  0.85448145636E-01  0.11957947776E+00  0.89264724928E+00  0.88000000000E+00 0.  1.
        -11    1    4    4    0    0  0.10991350823E-01 -0.35197055334E-01 -0.65151325408E-01  0.74863868592E-01  0.51100000000E-03 0.  1.
         11    1    4    4    0    0  0.14017396950E-01 -0.36443581595E-01 -0.35998957856E-01  0.53111280764E-01  0.51100000000E-03 0. -1.
</event>
<event>
 8    1  0.1111182E+005  0.1043930E+01  0.7957747E-01            NaN
         13   -1    0    0    0    0  0.00000000000E+00  0.00000000000E+00  0.74505805969E-08  0.10566000000E+00  0.10566000000E+00 0.  1.
     999900   -1    0    0    0    0 -0.00000000000E+00 -0.00000000000E+00 -0.74505805969E-08  0.93827000000E+00  0.93827000000E+00 0. -1.
     999902    2    1    2    0    0 -0.13174160260E-01  0.12020439314E-01  0.73942323089E-02  0.10246239354E+01  0.10244420358E+01 0.  0.
     999903    2    3    3    0    0 -0.12167470917E+00  0.51767449997E-01  0.28735447222E-01  0.13681334667E+00  0.20188169033E-01 0.  0.
         14    1    1    2    0    0  0.13174160260E-01 -0.12020439314E-01 -0.73942323089E-02  0.19306064625E-01  0.00000000000E+00 0. -1.
     999901    1    3    3    0    0  0.10850054891E+00 -0.39747010683E-01 -0.21341214913E-01  0.88781058871E+00  0.88000000000E+00 0.  1.
        -11    1    4    4    0    0 -0.72831436091E-01  0.26534586205E-01  0.75069481451E-02  0.77878865808E-01  0.51100000000E-03 0. -1.
         11    1    4    4    0    0 -0.48843273075E-01  0.25232863793E-01  0.21228499077E-01  0.58934480857E-01  0.51100000000E-03 0.  1.
</event>
<event>
 8    1  0.1111182E+005  0.1043930E+01  0.7957747E-01            NaN
         13   -1    0    0    0    0  0.00000000000E+00  0.00000000000E+00  0.74505805969E-08  0.10566000000E+00  0.10566000000E+00 0.  1.
     999900   -1    0    0    0    0 -0.00000000000E+00 -0.00000000000E+00 -0.74505805969E-08  0.93827000000E+00  0.93827000000E+00 0.  1.
     999902    2    1    2    0    0 -0.10308614645E-01 -0.20477244825E-01 -0.66240434070E-02  0.10200665752E+01  0.10197874067E+01 0.  0.
     999903    2    3    3    0    0  0.10055612538E+00 -0.72988126333E-01 -0.36904209804E-01  0.13104167582E+00  0.19266529628E-01 0.  0.
         14    1    1    2    0    0  0.10308614645E-01  0.20477244825E-01  0.66240434070E-02  0.23863424787E-01  0.00000000000E+00 0. -1.
     999901    1    3    3    0    0 -0.11086474003E+00  0.52510881508E-01  0.30280166397E-01  0.88902489939E+00  0.88000000000E+00 0. -1.
        -11    1    4    4    0    0  0.90515150145E-01 -0.69698584085E-01 -0.38025818714E-01  0.12040394113E+00  0.51100000000E-03 0.  1.
         11    1    4    4    0    0  0.10040975236E-01 -0.32895422487E-02  0.11216089103E-02  0.10637734695E-01  0.51100000000E-03 0. -1.
</event>
<event>
 8    1  0.1111182E+005  0.1043930E+01  0.7957747E-01            NaN
         13   -1    0    0    0    0  0.00000000000E+00  0.00000000000E+00  0.74505805969E-08  0.10566000000E+00  0.10566000000E+00 0. -1.
     999900   -1    0    0    0    0 -0.00000000000E+00 -0.00000000000E+00 -0.74505805969E-08  0.93827000000E+00  0.93827000000E+00 0. -1.
     999902    2    1    2    0    0  0.21452715633E-02  0.16581198979E-01 -0.17192013009E-01  0.10199486810E+01  0.10196667143E+01 0.  0.
     999903    2    3    3    0    0 -0.26563759800E-01 -0.96316538386E-01  0.76448158165E-01  0.12734653601E+00  0.19756276099E-01 0.  0.
         14    1    1    2    0    0 -0.21452715633E-02 -0.16581198979E-01  0.17192013009E-01  0.23981319000E-01  0.00000000000E+00 0. -1.
     999901    1    3    3    0    0  0.28709031363E-01  0.11289773737E+00 -0.93640171174E-01  0.89260214499E+00  0.88000000000E+00 0.  1.
        -11    1    4    4    0    0 -0.10210823923E-01 -0.18737789031E-01  0.86692880085E-02  0.23038735610E-01  0.51100000000E-03 0. -1.
         11    1    4    4    0    0 -0.16352935877E-01 -0.77578749356E-01  0.67778870157E-01  0.10430780040E+00  0.51100000000E-03 0.  1.
</event>
<event>
 8    1  0.1111182E+005  0.1043930E+01  0.7957747E-01            NaN
         13   -1    0    0    0    0  0.00000000000E+00  0.00000000000E+00  0.74505805969E-08  0.10566000000E+00  0.10566000000E+00 0.  1.
     999900   -1    0    0    0    0 -0.00000000000E+00 -0.00000000000E+00 -0.74505805969E-08  0.93827000000E+00  0.93827000000E+00 0.  1.
     999902    2    1    2    0    0 -0.21030873151E-01 -0.50429715643E-03 -0.10364389232E-01  0.10204785074E+01  0.10202090039E+01 0.  0.
     999903    2    3    3    0    0  0.11569308521E+00 -0.20969647649E-01 -0.48722412875E-01  0.12885997387E+00  0.20159445928E-01 0.  0.
         14    1    1    2    0    0  0.21030873151E-01  0.50429715643E-03  0.10364389232E-01  0.23451492602E-01  0.00000000000E+00 0. -1.
     999901    1    3    3    0    0 -0.13672395836E+00  0.20465350493E-01  0.38358023643E-01  0.89161853353E+00  0.88000000000E+00 0. -1.
        -11    1    4    4    0    0  0.97137178309E-01 -0.21817256612E-01 -0.34175213063E-01  0.10526077334E+00  0.51100000000E-03 0.  1.
         11    1    4    4    0    0  0.18555906901E-01  0.84760896314E-03 -0.14547199813E-01  0.23599200522E-01  0.51100000000E-03 0. -1.
</event>
<event>
 8    1  0.1111182E+005  0.1043930E+01  0.7957747E-01            NaN
         13   -1    0    0    0    0  0.00000000000E+00  0.00000000000E+00  0.74505805969E-08  0.10566000000E+00  0.10566000000E+00 0.  1.
     999900   -1    0    0    0    0 -0.00000000000E+00 -0.00000000000E+00 -0.74505805969E-08  0.93827000000E+00  0.93827000000E+00 0. -1.
     999902    2    1    2    0    0 -0.19867199254E-02  0.89871172194E-02 -0.21569424533E-01  0.10204788720E+01  0.10202093769E+01 0.  0.
     999903    2    3    3    0    0  0.64014219662E-01  0.13805151409E-01  0.10862891137E+00  0.12844134799E+00  0.20212297376E-01 0.  0.
         14    1    1    2    0    0  0.19867199254E-02 -0.89871172194E-02  0.21569424533E-01  0.23451128047E-01  0.00000000000E+00 0.  1.
     999901    1    3    3    0    0 -0.66000939588E-01 -0.48180341899E-02 -0.13019833590E+00  0.89203752396E+00  0.88000000000E+00 0. -1.
        -11    1    4    4    0    0  0.28295783900E-01  0.38520726578E-02  0.66155614446E-01  0.72057728898E-01  0.51100000000E-03 0.  1.
         11    1    4    4    0    0  0.35718435762E-01  0.99530787515E-02  0.42473296922E-01  0.56383619096E-01  0.51100000000E-03 0. -1.
</event>
<event>
 8    1  0.1111182E+005  0.1043930E+01  0.7957747E-01            NaN
         13   -1    0    0    0    0  0.00000000000E+00  0.00000000000E+00  0.74505805969E-08  0.10566000000E+00  0.10566000000E+00 0.  1.
     999900   -1    0    0    0    0 -0.00000000000E+00 -0.00000000000E+00 -0.74505805969E-08  0.93827000000E+00  0.93827000000E+00 0.  1.
     999902    2    1    2    0    0  0.16524689411E-01 -0.12969386555E-01 -0.12337432461E-01  0.10195685019E+01  0.10192774144E+01 0.  0.
     999903    2    3    3    0    0  0.94226191094E-01 -0.54534804943E-01  0.70672813329E-01  0.13128031207E+00  0.19678764048E-01 0.  0.
         14    1    1    2    0    0 -0.16524689411E-01  0.12969386555E-01  0.12337432461E-01  0.24361498055E-01  0.00000000000E+00 0. -1.
     999901    1    3    3    0    0 -0.77701501683E-01  0.41565418387E-01 -0.83010245790E-01  0.88828818988E+00  0.88000000000E+00 0.  1.
        -11    1    4    4    0    0  0.64910699433E-01 -0.34185674980E-01  0.36804392662E-01  0.82078521642E-01  0.51100000000E-03 0. -1.
         11    1    4    4    0    0  0.29315491661E-01 -0.20349129963E-01  0.33868420668E-01  0.49201790426E-01  0.51100000000E-03 0.  1.
</event>
<event>
 8    1  0.1111182E+005  0.1043930E+01  0.7957747E-01            NaN
         13   -1    0    0    0    0  0.00000000000E+00  0.00000000000E+00  0.74505805969E-08  0.10566000000E+00  0.10566000000E+00 0.  1.
     999900   -1    0    0    0    0 -0.00000000000E+00 -0.00000000000E+00 -0.74505805969E-08  0.93827000000E+00  0.93827000000E+00 0.  1.
     999902    2    1    2    0    0 -0.14468323722E-01 -0.16073824415E-01  0.78880755294E-02  0.10209099662E+01  0.10206503990E+01 0.  0.
     999903    2    3    3    0    0  0.10422744721E-01 -0.42843499470E-01 -0.12055084079E+00  0.13083539848E+00  0.25321872487E-01 0.  0.
         14    1    1    2    0    0  0.14468323722E-01  0.16073824415E-01 -0.78880755294E-02  0.23020033845E-01  0.00000000000E+00 0. -1.
     999901    1    3    3    0    0 -0.24891068442E-01  0.26769675055E-01  0.12843891632E+00  0.89007456767E+00  0.88000000000E+00 0. -1.
        -11    1    4    4    0    0  0.66505203221E-04 -0.29689118601E-01 -0.10004318879E+00  0.10435683461E+00  0.51100000000E-03 0. -1.
         11    1    4    4    0    0  0.10356239517E-01 -0.13154380869E-01 -0.20507652004E-01  0.26478563871E-01  0.51100000000E-03 0.  1.
</event>
<event>
 8    1  0.1111182E+005  0.1043930E+01  0.7957747E-01            NaN
         13   -1    0    0    0    0  0.00000000000E+00  0.00000000000E+00  0.74505805969E-08  0.10566000000E+00  0.10566000000E+00 0.  1.
     999900   -1    0    0    0    0 -0.00000000000E+00 -0.00000000000E+00 -0.74505805969E-08  0.93827000000E+00  0.93827000000E+00 0.  1.
     999902    2    1    2    0    0  0.34561396942E-02  0.26734481686E-02  0.23729619765E-01  0.10198014468E+01  0.10195159654E+01 0.  0.
     999903    2    3    3    0    0 -0.29080409209E-01 -0.64706941108E-01 -0.10393975695E+00  0.12744601667E+00  0.20158265392E-01 0.  0.
         14    1    1    2    0    0 -0.34561396942E-02 -0.26734481686E-02 -0.23729619765E-01  0.24128553228E-01  0.00000000000E+00 0. -1.
     999901    1    3    3    0    0  0.32536548904E-01  0.67380389277E-01  0.12766937672E+00  0.89235543010E+00  0.88000000000E+00 0. -1.
        -11    1    4    4    0    0 -0.26237624688E-01 -0.38992622959E-01 -0.76044065979E-01  0.89396860605E-01  0.51100000000E-03 0. -1.
         11    1    4    4    0    0 -0.28427845217E-02 -0.25714318149E-01 -0.27895690973E-01  0.38049156069E-01  0.51100000000E-03 0.  1.
</event>
<event>
 8    1  0.1111182E+005  0.1043930E+01  0.7957747E-01            NaN
         13   -1    0    0    0    0  0.00000000000E+00  0.00000000000E+00  0.74505805969E-08  0.10566000000E+00  0.10566000000E+00 0. -1.
     999900   -1    0    0    0    0 -0.00000000000E+00 -0.00000000000E+00 -0.74505805969E-08  0.93827000000E+00  0.93827000000E+00 0.  1.
     999902    2    1    2    0    0  0.27480917760E-03  0.21194195472E-01  0.10149177958E-01  0.10204294627E+01  0.10201588175E+01 0.  0.
     999903    2    3    3    0    0  0.64179647920E-02 -0.24459081034E-01  0.12761547733E+00  0.13142986114E+00  0.18672477824E-01 0.  0.
         14    1    1    2    0    0 -0.27480917760E-03 -0.21194195472E-01 -0.10149177958E-01  0.23500537334E-01  0.00000000000E+00 0.  1.
     999901    1    3    3    0    0 -0.61431556144E-02  0.45653276506E-01 -0.11746629938E+00  0.88899960152E+00  0.88000000000E+00 0.  1.
        -11    1    4    4    0    0  0.43527535472E-02 -0.26778921386E-01  0.99328522835E-01  0.10296831388E+00  0.51100000000E-03 0.  1.
         11    1    4    4    0    0  0.20652112448E-02  0.23198403523E-02  0.28286954499E-01  0.28461547262E-01  0.51100000000E-03 0. -1.
</event>
<event>
 8    1  0.1111182E+005  0.1043930E+01  0.7957747E-01            NaN
         13   -1    0    0    0    0  0.00000000000E+00  0.00000000000E+00  0.74505805969E-08  0.10566000000E+00  0.10566000000E+00 0.  1.
     999900   -1    0    0    0    0 -0.00000000000E+00 -0.00000000000E+00 -0.74505805969E-08  0.93827000000E+00  0.93827000000E+00 0. -1.
     999902    2    1    2    0    0  0.80375267582E-02  0.98699598035E-02 -0.20014560946E-01  0.10202107970E+01  0.10199350321E+01 0.  0.
     999903    2    3    3    0    0  0.60753450188E-01 -0.15437703946E-03  0.11167749464E+00  0.12879492689E+00  0.20621950504E-01 0.  0.
         14    1    1    2    0    0 -0.80375267582E-02 -0.98699598035E-02  0.20014560946E-01  0.23719203038E-01  0.00000000000E+00 0.  1.
     999901    1    3    3    0    0 -0.52715923430E-01  0.10024336843E-01 -0.13169205558E+00  0.89141587007E+00  0.88000000000E+00 0. -1.
        -11    1    4    4    0    0  0.85334879825E-02  0.50090272519E-02  0.85653643646E-02  0.13097227144E-01  0.51100000000E-03 0. -1.
         11    1    4    4    0    0  0.52219962205E-01 -0.51634042914E-02  0.10311213027E+00  0.11569769975E+00  0.51100000000E-03 0.  1.
</event>
<event>
 8    1  0.1111182E+005  0.1043930E+01  0.7957747E-01            NaN
         13   -1    0    0    0    0  0.00000000000E+00  0.00000000000E+00  0.74505805969E-08  0.10566000000E+00  0.10566000000E+00 0.  1.
     999900   -1    0    0    0    0 -0.00000000000E+00 -0.00000000000E+00 -0.74505805969E-08  0.93827000000E+00  0.93827000000E+00 0.  1.
     999902    2    1    2    0    0  0.30700681814E-02 -0.22396220267E-01 -0.65775976944E-02  0.10203868313E+01  0.10201151919E+01 0.  0.
     999903    2    3    3    0    0  0.10989564980E+00  0.61238918247E-01  0.23745479891E-01  0.12947379945E+00  0.19296579411E-01 0.  0.
         14    1    1    2    0    0 -0.30700681814E-02  0.22396220267E-01  0.65775976944E-02  0.23543168697E-01  0.00000000000E+00 0.  1.
     999901    1    3    3    0    0 -0.10682558162E+00 -0.83635138513E-01 -0.30323077586E-01  0.89091303185E+00  0.88000000000E+00 0.  1.
        -11    1    4    4    0    0  0.61496184135E-01  0.28611671850E-01  0.21129296754E-01  0.71043062515E-01  0.51100000000E-03 0.  1.
         11    1    4    4    0    0  0.48399465665E-01  0.32627246397E-01  0.26161831375E-02  0.58430736940E-01  0.51100000000E-03 0. -1.
</event>
<event>
 8    1  0.1111182E+005  0.1043930E+01  0.7957747E-01            NaN
         13   -1    0    0    0    0  0.00000000000E+00  0.00000000000E+00  0.74505805969E-08  0.10566000000E+00  0.10566000000E+00 0.  1.
     999900   -1    0    0    0    0 -0.00000000000E+00 -0.00000000000E+00 -0.74505805969E-08  0.93827000000E+00  0.93827000000E+00 0.  1.
     999902    2    1    2    0    0  0.20461889055E-01 -0.99976808386E-02 -0.20883088006E-01  0.10130310374E+01  0.10125596954E+01 0.  0.
     999903    2    3    3    0    0  0.37438175873E-01 -0.97658141104E-01  0.62829556319E-01  0.12456024022E+00  0.25079289437E-01 0.  0.
         14    1    1    2    0    0 -0.20461889055E-01  0.99976808386E-02  0.20883088006E-01  0.30898962613E-01  0.00000000000E+00 0.  1.
     999901    1    3    3    0    0 -0.16976286818E-01  0.87660460265E-01 -0.83712644325E-01  0.88847079717E+00  0.88000000000E+00 0.  1.
        -11    1    4    4    0    0  0.39835545583E-01 -0.85139719694E-01  0.50007778326E-01  0.10647385395E+00  0.51100000000E-03 0.  1.
         11    1    4    4    0    0 -0.23973697105E-02 -0.12518421410E-01  0.12821777993E-01  0.18086386262E-01  0.51100000000E-03 0. -1.
</event>
<event>
 8    1  0.1111182E+005  0.1043930E+01  0.7957747E-01            NaN
         13   -1    0    0    0    0  0.00000000000E+00  0.00000000000E+00  0.74505805969E-08  0.10566000000E+00  0.10566000000E+00 0. -1.
     999900   -1    0    0    0    0 -0.00000000000E+00 -0.00000000000E+00 -0.74505805969E-08  0.93827000000E+00  0.93827000000E+00 0.  1.
     999902    2    1    2    0    0  0.42833167141E-03  0.19022278399E-01 -0.15182088696E-01  0.10195881356E+01  0.10192975228E+01 0.  0.
     999903    2    3    3    0    0 -0.11845617752E+00 -0.45630017543E-01 -0.45095849753E-03  0.12912171174E+00  0.23627284768E-01 0.  0.
         14    1    1    2    0    0 -0.42833167141E-03 -0.19022278399E-01  0.15182088696E-01  0.24341864363E-01  0.00000000000E+00 0.  1.
     999901    1    3    3    0    0  0.11888450919E+00  0.64652295942E-01 -0.14731130199E-01  0.89046642390E+00  0.88000000000E+00 0. -1.
        -11    1    4    4    0    0 -0.10549628096E+00 -0.42381912868E-01 -0.76257025060E-02  0.11394781391E+00  0.51100000000E-03 0.  1.
         11    1    4    4    0    0 -0.12959896558E-01 -0.32481046752E-02  0.71747440085E-02  0.15173897830E-01  0.51100000000E-03 0. -1.
</event>
<event>
 8    1  0.1111182E+005  0.1043930E+01  0.7957747E-01            NaN
         13   -1    0    0    0    0  0.00000000000E+00  0.00000000000E+00  0.74505805969E-08  0.10566000000E+00  0.10566000000E+00 0.  1.
     999900   -1    0    0    0    0 -0.00000000000E+00 -0.00000000000E+00 -0.74505805969E-08  0.93827000000E+00  0.93827000000E+00 0. -1.
     999902    2    1    2    0    0  0.12709514684E-01 -0.17358434139E-01 -0.10214129076E-01  0.10201145548E+01  0.10198365209E+01 0.  0.
     999903    2    3    3    0    0  0.12567022915E+00 -0.18911448405E-01 -0.32398538762E-01  0.13261543763E+00  0.19660610629E-01 0.  0.
         14    1    1    2    0    0 -0.12709514684E-01  0.17358434139E-01  0.10214129076E-01  0.23815445242E-01  0.00000000000E+00 0.  1.
     999901    1    3    3    0    0 -0.11296071446E+00  0.15530142652E-02  0.22184409686E-01  0.88749911713E+00  0.88000000000E+00 0.  1.
        -11    1    4    4    0    0  0.21935317844E-01 -0.65787281395E-02  0.10333741553E-02  0.22929605666E-01  0.51100000000E-03 0. -1.
         11    1    4    4    0    0  0.10373491130E+00 -0.12332720265E-01 -0.33431912918E-01  0.10968583197E+00  0.51100000000E-03 0.  1.
</event>
<event>
 7    1  0.1111182E+005  0.1043930E+01  0.7957747E-01            NaN
         13   -1    0    0    0    0  0.00000000000E+00  0.00000000000E+00  0.74505805969E-08  0.10566000000E+00  0.10566000000E+00 0.  1.
     999900   -1    0    0    0    0 -0.00000000000E+00 -0.00000000000E+00 -0.74505805969E-08  0.93827000000E+00  0.93827000000E+00 0.  1.
     999903    2    1    2    0    0 -0.17843396686E-01 -0.37802828611E-01  0.51310532294E-01  0.69100578576E-01  0.19866519046E-01 0.  0.
         14    1    1    2    0    0 -0.61291948267E-01  0.45162837815E-02 -0.66461262249E-01  0.90521815720E-01  0.00000000000E+00 0. -1.
     999901    1    1    2    0    0  0.79135344953E-01  0.33286544830E-01  0.15150729955E-01  0.88430760570E+00  0.88000000000E+00 0. -1.
        -11    1    3    3    0    0 -0.36574517707E-02 -0.27679608185E-01  0.38041200884E-01  0.47190377710E-01  0.51100000000E-03 0. -1.
         11    1    3    3    0    0 -0.14185944915E-01 -0.10123220426E-01  0.13269331410E-01  0.21910200866E-01  0.51100000000E-03 0.  1.
</event>
<event>
 8    1  0.1111182E+005  0.1043930E+01  0.7957747E-01            NaN
         13   -1    0    0    0    0  0.00000000000E+00  0.00000000000E+00  0.74505805969E-08  0.10566000000E+00  0.10566000000E+00 0.  1.
     999900   -1    0    0    0    0 -0.00000000000E+00 -0.00000000000E+00 -0.74505805969E-08  0.93827000000E+00  0.93827000000E+00 0.  1.
     999902    2    1    2    0    0  0.15370194742E-01  0.21665652571E-02 -0.17727104575E-01  0.10203675908E+01  0.10200955020E+01 0.  0.
     999903    2    3    3    0    0 -0.93148479970E-01 -0.32717040588E-01 -0.83498832111E-01  0.13058161154E+00  0.18233437490E-01 0.  0.
         14    1    1    2    0    0 -0.15370194742E-01 -0.21665652571E-02  0.17727104575E-01  0.23562409216E-01  0.00000000000E+00 0.  1.
     999901    1    3    3    0    0  0.10851867471E+00  0.34883605845E-01  0.65771727536E-01  0.88978597925E+00  0.88000000000E+00 0. -1.
        -11    1    4    4    0    0 -0.12766350488E-01 -0.26159831055E-02 -0.19732509412E-01  0.23652824801E-01  0.51100000000E-03 0. -1.
         11    1    4    4    0    0 -0.80382129482E-01 -0.30101057482E-01 -0.63766322699E-01  0.10692878674E+00  0.51100000000E-03 0.  1.
</event>
<event>
 8    1  0.1111182E+005  0.1043930E+01  0.7957747E-01            NaN
         13   -1    0    0    0    0  0.00000000000E+00  0.00000000000E+00  0.74505805969E-08  0.10566000000E+00  0.10566000000E+00 0. -1.
     999900   -1    0    0    0    0 -0.00000000000E+00 -0.00000000000E+00 -0.74505805969E-08  0.93827000000E+00  0.93827000000E+00 0.  1.
     999902    2    1    2    0    0  0.14311518288E-01 -0.17098279751E-01  0.77341137186E-02  0.10203294229E+01  0.10200564415E+01 0.  0.
     999903    2    3    3    0    0 -0.11408185791E+00 -0.27459195976E-01 -0.49723114071E-01  0.12909794863E+00  0.20620730331E-01 0.  0.
         14    1    1    2    0    0 -0.14311518288E-01  0.17098279751E-01 -0.77341137186E-02  0.23600577136E-01  0.00000000000E+00 0.  1.
     999901    1    3    3    0    0  0.12839337620E+00  0.10360916225E-01  0.57457227790E-01  0.89123147423E+00  0.88000000000E+00 0. -1.
        -11    1    4    4    0    0 -0.55538317238E-01 -0.22842048098E-01 -0.30125148380E-01  0.67186676721E-01  0.51100000000E-03 0. -1.
         11    1    4    4    0    0 -0.58543540675E-01 -0.46171478781E-02 -0.19597965691E-01  0.61911271910E-01  0.51100000000E-03 0.  1.
</event>
<event>
 8    1  0.1111182E+005  0.1043930E+01  0.7957747E-01            NaN
         13   -1    0    0    0    0  0.00000000000E+00  0.00000000000E+00  0.74505805969E-08  0.10566000000E+00  0.10566000000E+00 0.  1.
     999900   -1    0    0    0    0 -0.00000000000E+00 -0.00000000000E+00 -0.74505805969E-08  0.93827000000E+00  0.93827000000E+00 0.  1.
     999902    2    1    2    0    0 -0.35928747407E-02 -0.19071204256E-01  0.81072055425E-02  0.10228979682E+01  0.10226817232E+01 0.  0.
     999903    2    3    3    0    0  0.11517428760E+00 -0.63819595043E-01 -0.94436381360E-02  0.13361955877E+00  0.20662694650E-01 0.  0.
         14    1    1    2    0    0  0.35928747407E-02  0.19071204256E-01 -0.81072055425E-02  0.21032031818E-01  0.00000000000E+00 0. -1.
     999901    1    3    3    0    0 -0.11876716234E+00  0.44748390787E-01  0.17550843679E-01  0.88927840941E+00  0.88000000000E+00 0.  1.
        -11    1    4    4    0    0  0.65594137157E-01 -0.32256734339E-01  0.44149618669E-02  0.73231419137E-01  0.51100000000E-03 0. -1.
         11    1    4    4    0    0  0.49580150441E-01 -0.31562860704E-01 -0.13858600003E-01  0.60388139636E-01  0.51100000000E-03 0.  1.
</event>
<event>
 8    1  0.1111182E+005  0.1043930E+01  0.7957747E-01            NaN
         13   -1    0    0    0    0  0.00000000000E+00  0.00000000000E+00  0.74505805969E-08  0.10566000000E+00  0.10566000000E+00 0.  1.
     999900   -1    0    0    0    0 -0.00000000000E+00 -0.00000000000E+00 -0.74505805969E-08  0.93827000000E+00  0.93827000000E+00 0. -1.
     999902    2    1    2    0    0 -0.10289497989E-01 -0.11956995020E-01 -0.17508647628E-01  0.10203631538E+01  0.10200909613E+01 0.  0.
     999903    2    3    3    0    0 -0.10348624753E+00  0.77438785910E-01  0.10549373560E-02  0.13074422050E+00  0.19666451361E-01 0.  0.
         14    1    1    2    0    0  0.10289497989E-01  0.11956995020E-01  0.17508647628E-01  0.23566846215E-01  0.00000000000E+00 0.  1.
     999901    1    3    3    0    0  0.93196749546E-01 -0.89395780930E-01 -0.18563584984E-01  0.88961893329E+00  0.88000000000E+00 0.  1.
        -11    1    4    4    0    0 -0.48471045183E-01  0.47949345092E-01  0.35189309400E-02  0.68273171245E-01  0.51100000000E-03 0. -1.
         11    1    4    4    0    0 -0.55015202352E-01  0.29489440818E-01 -0.24639935839E-02  0.62471049254E-01  0.51100000000E-03 0.  1.
</event>
<event>
 8    1  0.1111182E+005  0.1043930E+01  0.7957747E-01            NaN
         13   -1    0    0    0    0  0.00000000000E+00  0.00000000000E+00  0.74505805969E-08  0.10566000000E+00  0.10566000000E+00 0. -1.
     999900   -1    0    0    0    0 -0.00000000000E+00 -0.00000000000E+00 -0.74505805969E-08  0.93827000000E+00  0.93827000000E+00 0.  1.
     999902    2    1    2    0    0  0.11849963761E-01  0.18533692746E-01  0.12015019750E-01  0.10188644837E+01  0.10185561133E+01 0.  0.
     999903    2    3    3    0    0 -0.10991611066E+00 -0.53814197620E-01  0.31449130864E-01  0.12732711555E+00  0.15672500587E-01 0.  0.
         14    1    1    2    0    0 -0.11849963761E-01 -0.18533692746E-01 -0.12015019750E-01  0.25065516303E-01  0.00000000000E+00 0.  1.
     999901    1    3    3    0    0  0.12176607442E+00  0.72347890365E-01 -0.19434111114E-01  0.89153736814E+00  0.88000000000E+00 0. -1.
        -11    1    4    4    0    0 -0.32421154530E-01 -0.23596840395E-01  0.12643713417E-01  0.42048385792E-01  0.51100000000E-03 0.  1.
         11    1    4    4    0    0 -0.77494956132E-01 -0.30217357225E-01  0.18805417446E-01  0.85278729763E-01  0.51100000000E-03 0. -1.
</event>
<event>
 8    1  0.1111182E+005  0.1043930E+01  0.7957747E-01            NaN
         13   -1    0    0    0    0  0.00000000000E+00  0.00000000000E+00  0.74505805969E-08  0.10566000000E+00  0.10566000000E+00 0. -1.
     999900   -1    0    0    0    0 -0.00000000000E+00 -0.00000000000E+00 -0.74505805969E-08  0.93827000000E+00  0.93827000000E+00 0. -1.
     999902    2    1    2    0    0 -0.18801889890E-02 -0.17892645625E-01  0.16968381931E-01  0.10191992931E+01  0.10188992056E+01 0.  0.
     999903    2    3    3    0    0  0.21562705748E-01  0.74293166842E-01  0.10253967402E+00  0.12994666344E+00  0.19680591283E-01 0.  0.
         14    1    1    2    0    0  0.18801889890E-02  0.17892645625E-01 -0.16968381931E-01  0.24730706894E-01  0.00000000000E+00 0.  1.
     999901    1    3    3    0    0 -0.23442894737E-01 -0.92185812468E-01 -0.85571292088E-01  0.88925262966E+00  0.88000000000E+00 0.  1.
        -11    1    4    4    0    0  0.24509339972E-02  0.19259083016E-01  0.40053839764E-01  0.44513936659E-01  0.51100000000E-03 0. -1.
         11    1    4    4    0    0  0.19111771751E-01  0.55034083826E-01  0.62485834256E-01  0.85432726784E-01  0.51100000000E-03 0.  1.
</event>
<event>
 8    1  0.1111182E+005  0.1043930E+01  0.7957747E-01            NaN
         13   -1    0    0    0    0  0.00000000000E+00  0.00000000000E+00  0.74505805969E-08  0.10566000000E+00  0.10566000000E+00 0.  1.
     999900   -1    0    0    0    0 -0.00000000000E+00 -0.00000000000E+00 -0.74505805969E-08  0.93827000000E+00  0.93827000000E+00 0. -1.
     999902    2    1    2    0    0  0.22981814421E-01 -0.92625724406E-03  0.71233845282E-02  0.10198517037E+01  0.10195674245E+01 0.  0.
     999903    2    3    3    0    0 -0.12062271911E+00  0.22757912165E-01  0.29644848661E-01  0.12761271200E+00  0.18396311573E-01 0.  0.
         14    1    1    2    0    0 -0.22981814421E-01  0.92625724406E-03 -0.71233845282E-02  0.24078296320E-01  0.00000000000E+00 0.  1.
     999901    1    3    3    0    0  0.14360453353E+00 -0.23684169409E-01 -0.22521464133E-01  0.89223899168E+00  0.88000000000E+00 0.  1.
        -11    1    4    4    0    0 -0.26460343599E-01  0.12724944585E-01  0.53465952047E-02  0.29848303123E-01  0.51100000000E-03 0. -1.
         11    1    4    4    0    0 -0.94162375511E-01  0.10032967580E-01  0.24298253456E-01  0.97764408874E-01  0.51100000000E-03 0.  1.
</event>
<event>
 8    1  0.1111182E+005  0.1043930E+01  0.7957747E-01            NaN
         13   -1    0    0    0    0  0.00000000000E+00  0.00000000000E+00  0.74505805969E-08  0.10566000000E+00  0.10566000000E+00 0. -1.
     999900   -1    0    0    0    0 -0.00000000000E+00 -0.00000000000E+00 -0.74505805969E-08  0.93827000000E+00  0.93827000000E+00 0.  1.
     999902    2    1    2    0    0 -0.33938429809E-02  0.20343564474E-01 -0.10597892820E-01  0.10207417677E+01  0.10204783497E+01 0.  0.
     999903    2    3    3    0    0 -0.23292183382E-01  0.41057018333E-01  0.12018843977E+00  0.13061253217E+00  0.19651156291E-01 0.  0.
         14    1    1    2    0    0  0.33938429809E-02 -0.20343564474E-01  0.10597892820E-01  0.23188232316E-01  0.00000000000E+00 0. -1.
     999901    1    3    3    0    0  0.19898340401E-01 -0.20713453859E-01 -0.13078633259E+00  0.89012923551E+00  0.88000000000E+00 0.  1.
        -11    1    4    4    0    0 -0.91096249144E-03  0.11907307849E-01  0.49700503654E-01  0.51117658567E-01  0.51100000000E-03 0.  1.
         11    1    4    4    0    0 -0.22381220891E-01  0.29149710484E-01  0.70487936121E-01  0.79494873604E-01  0.51100000000E-03 0. -1.
</event>
<event>
 8    1  0.1111182E+005  0.1043930E+01  0.7957747E-01            NaN
         13   -1    0    0    0    0  0.00000000000E+00  0.00000000000E+00  0.74505805969E-08  0.10566000000E+00  0.10566000000E+00 0.  1.
     999900   -1    0    0    0    0 -0.00000000000E+00 -0.00000000000E+00 -0.74505805969E-08  0.93827000000E+00  0.93827000000E+00 0. -1.
     999902    2    1    2    0    0 -0.81435607705E-02  0.14575415847E-01 -0.15996334340E-01  0.10208076506E+01  0.10205457444E+01 0.  0.
     999903    2    3    3    0    0  0.20458275903E-01  0.12972031065E+00 -0.78070910795E-02  0.13280794590E+00  0.18196147230E-01 0.  0.
         14    1    1    2    0    0  0.81435607705E-02 -0.14575415847E-01  0.15996334340E-01  0.23122349393E-01  0.00000000000E+00 0. -1.
     999901    1    3    3    0    0 -0.28601836674E-01 -0.11514489480E+00 -0.81892432600E-02  0.88799970471E+00  0.88000000000E+00 0. -1.
        -11    1    4    4    0    0  0.13759586090E-01  0.40529091180E-01  0.18509832592E-02  0.42844144305E-01  0.51100000000E-03 0. -1.
         11    1    4    4    0    0  0.66986898137E-02  0.89191219471E-01 -0.96580743387E-02  0.89963801592E-01  0.51100000000E-03 0.  1.
</event>
<event>
 8    1  0.1111182E+005  0.1043930E+01  0.7957747E-01            NaN
         13   -1    0    0    0    0  0.00000000000E+00  0.00000000000E+00  0.74505805969E-08  0.10566000000E+00  0.10566000000E+00 0. -1.
     999900   -1    0    0    0    0 -0.00000000000E+00 -0.00000000000E+00 -0.74505805969E-08  0.93827000000E+00  0.93827000000E+00 0.  1.
     999902    2    1    2    0    0  0.20813572572E-01  0.11762352217E-01  0.36725735723E-02  0.10197422856E+01  0.10194553857E+01 0.  0.
     999903    2    3    3    0    0  0.15845100512E-01 -0.40801939257E-01  0.12113046913E+00  0.13036944604E+00  0.20192485025E-01 0.  0.
         14    1    1    2    0    0 -0.20813572572E-01 -0.11762352217E-01 -0.36725735723E-02  0.24187714434E-01  0.00000000000E+00 0.  1.
     999901    1    3    3    0    0  0.49684720601E-02  0.52564291474E-01 -0.11745789556E+00  0.88937283952E+00  0.88000000000E+00 0.  1.
        -11    1    4    4    0    0 -0.28704596027E-02 -0.76840306225E-02  0.38987592309E-01  0.39844414163E-01  0.51100000000E-03 0.  1.
         11    1    4    4    0    0  0.18715560114E-01 -0.33117908635E-01  0.82142876825E-01  0.90525031880E-01  0.51100000000E-03 0. -1.
</event>
<event>
 8    1  0.1111182E+005  0.1043930E+01  0.7957747E-01            NaN
         13   -1    0    0    0    0  0.00000000000E+00  0.00000000000E+00  0.74505805969E-08  0.10566000000E+00  0.10566000000E+00 0.  1.
     999900   -1    0    0    0    0 -0.00000000000E+00 -0.00000000000E+00 -0.74505805969E-08  0.93827000000E+00  0.93827000000E+00 0. -1.
     999902    2    1    2    0    0 -0.72148534505E-02 -0.20367925941E-01  0.91216013947E-02  0.10204755734E+01  0.10202060016E+01 0.  0.
     999903    2    3    3    0    0 -0.12888254320E+00 -0.47511806738E-02  0.20806673484E-01  0.13189048999E+00  0.18135601143E-01 0.  0.
         14    1    1    2    0    0  0.72148534505E-02  0.20367925941E-01 -0.91216013947E-02  0.23454426649E-01  0.00000000000E+00 0. -1.
     999901    1    3    3    0    0  0.12166768975E+00 -0.15616745267E-01 -0.11685072089E-01  0.88858508336E+00  0.88000000000E+00 0.  1.
        -11    1    4    4    0    0 -0.60823392229E-01 -0.37591715855E-02  0.81466478722E-03  0.60947036130E-01  0.51100000000E-03 0.  1.
         11    1    4    4    0    0 -0.68059150971E-01 -0.99200908830E-03  0.19992008697E-01  0.70943453861E-01  0.51100000000E-03 0. -1.
</event>
<event>
 8    1  0.1111182E+005  0.1043930E+01  0.7957747E-01            NaN
         13   -1    0    0    0    0  0.00000000000E+00  0.00000000000E+00  0.74505805969E-08  0.10566000000E+00  0.10566000000E+00 0. -1.
     999900   -1    0    0    0    0 -0.00000000000E+00 -0.00000000000E+00 -0.74505805969E-08  0.93827000000E+00  0.93827000000E+00 0. -1.
     999902    2    1    2    0    0 -0.23604757344E-01  0.17819515412E-02  0.46785753887E-02  0.10198001639E+01  0.10195146519E+01 0.  0.
     999903    2    3    3    0    0  0.34036424522E-01 -0.37992257819E-01  0.11768106933E+00  0.12981473866E+00  0.20028540771E-01 0.  0.
         14    1    1    2    0    0  0.23604757344E-01 -0.17819515412E-02 -0.46785753887E-02  0.24129836059E-01  0.00000000000E+00 0.  1.
     999901    1    3    3    0    0 -0.57641181866E-01  0.39774209360E-01 -0.11300249394E+00  0.88998542528E+00  0.88000000000E+00 0. -1.
        -11    1    4    4    0    0  0.55918646587E-02 -0.12700685801E-01  0.52758705409E-01  0.54555645791E-01  0.51100000000E-03 0. -1.
         11    1    4    4    0    0  0.28444559864E-01 -0.25291572017E-01  0.64922363924E-01  0.75259092868E-01  0.51100000000E-03 0.  1.
</event>
<event>
 8    1  0.1111182E+005  0.1043930E+01  0.7957747E-01            NaN
         13   -1    0    0    0    0  0.00000000000E+00  0.00000000000E+00  0.74505805969E-08  0.10566000000E+00  0.10566000000E+00 0.  1.
     999900   -1    0    0    0    0 -0.00000000000E+00 -0.00000000000E+00 -0.74505805969E-08  0.93827000000E+00  0.93827000000E+00 0.  1.
     999902    2    1    2    0    0  0.22534520478E-01 -0.68093023272E-02 -0.24439718831E-02  0.10202626341E+01  0.10199880873E+01 0.  0.
     999903    2    3    3    0    0 -0.81291048212E-01 -0.66881739967E-01 -0.72460571936E-01  0.12936939088E+00  0.20112263718E-01 0.  0.
         14    1    1    2    0    0 -0.22534520478E-01  0.68093023272E-02  0.24439718831E-02  0.23667365927E-01  0.00000000000E+00 0. -1.
     999901    1    3    3    0    0  0.10382556869E+00  0.60072437640E-01  0.70016600053E-01  0.89089324319E+00  0.88000000000E+00 0.  1.
        -11    1    4    4    0    0 -0.60314899189E-01 -0.46221722766E-01 -0.62152082666E-01  0.98170653560E-01  0.51100000000E-03 0.  1.
         11    1    4    4    0    0 -0.20976149023E-01 -0.20660017201E-01 -0.10308489271E-01  0.31198737324E-01  0.51100000000E-03 0. -1.
</event>
<event>
 8    1  0.1111182E+005  0.1043930E+01  0.7957747E-01            NaN
         13   -1    0    0    0    0  0.00000000000E+00  0.00000000000E+00  0.74505805969E-08  0.10566000000E+00  0.10566000000E+00 0.  1.
     999900   -1    0    0    0    0 -0.00000000000E+00 -0.00000000000E+00 -0.74505805969E-08  0.93827000000E+00  0.93827000000E+00 0. -1.
     999902    2    1    2    0    0 -0.23079333655E-01  0.23701544992E-02 -0.26586294742E-02  0.10205774501E+01  0.10203102421E+01 0.  0.
     999903    2    3    3    0    0 -0.10908372268E-01 -0.12523022704E+00 -0.30062286302E-01  0.13086909901E+00  0.20527485662E-01 0.  0.
         14    1    1    2    0    0  0.23079333655E-01 -0.23701544992E-02  0.26586294742E-02  0.23352549860E-01  0.00000000000E+00 0. -1.
     999901    1    3    3    0    0 -0.12170961387E-01  0.12760038154E+00  0.27403656828E-01  0.88970835113E+00  0.88000000000E+00 0.  1.
        -11    1    4    4    0    0 -0.58590088416E-02 -0.13515303587E-01  0.10936953122E-02  0.14780010355E-01  0.51100000000E-03 0.  1.
         11    1    4    4    0    0 -0.50493634264E-02 -0.11171492345E+00 -0.31155981615E-01  0.11608908865E+00  0.51100000000E-03 0. -1.
</event>
<event>
 8    1  0.1111182E+005  0.1043930E+01  0.7957747E-01            NaN
         13   -1    0    0    0    0  0.00000000000E+00  0.00000000000E+00  0.74505805969E-08  0.10566000000E+00  0.10566000000E+00 0. -1.
     999900   -1    0    0    0    0 -0.00000000000E+00 -0.00000000000E+00 -0.74505805969E-08  0.93827000000E+00  0.93827000000E+00 0.  1.
     999902    2    1    2    0    0 -0.21695918714E-01  0.57157608242E-02  0.92605567935E-02  0.10196577788E+01  0.10193688464E+01 0.  0.
     999903    2    3    3    0    0  0.39092792088E-01  0.13604599074E-03  0.12263770225E+00  0.13028677763E+00  0.20158708088E-01 0.  0.
         14    1    1    2    0    0  0.21695918714E-01 -0.57157608242E-02 -0.92605567935E-02  0.24272221216E-01  0.00000000000E+00 0.  1.
     999901    1    3    3    0    0 -0.60788710802E-01  0.55797148335E-02 -0.11337714545E+00  0.88937100115E+00  0.88000000000E+00 0.  1.
        -11    1    4    4    0    0  0.22783391078E-01 -0.61114262807E-02  0.46183535199E-01  0.51861473993E-01  0.51100000000E-03 0.  1.
         11    1    4    4    0    0  0.16309401010E-01  0.62474722715E-02  0.76454167047E-01  0.78425303639E-01  0.51100000000E-03 0. -1.
</event>
<event>
 8    1  0.1111182E+005  0.1043930E+01  0.7957747E-01            NaN
         13   -1    0    0    0    0  0.00000000000E+00  0.00000000000E+00  0.74505805969E-08  0.10566000000E+00  0.10566000000E+00 0. -1.
     999900   -1    0    0    0    0 -0.00000000000E+00 -0.00000000000E+00 -0.74505805969E-08  0.93827000000E+00  0.93827000000E+00 0. -1.
     999902    2    1    2    0    0  0.12728854213E-01  0.64328795394E-02 -0.18783727949E-01  0.10203453842E+01  0.10200727763E+01 0.  0.
     999903    2    3    3    0    0  0.42518837725E-01 -0.51576480379E-01 -0.11415244574E+00  0.13279385253E+00  0.11637934218E-01 0.  0.
         14    1    1    2    0    0 -0.12728854213E-01 -0.64328795394E-02  0.18783727949E-01  0.23584615842E-01  0.00000000000E+00 0. -1.
     999901    1    3    3    0    0 -0.29789983512E-01  0.58009359919E-01  0.95368717789E-01  0.88755153162E+00  0.88000000000E+00 0.  1.
        -11    1    4    4    0    0  0.37120479664E-01 -0.43326356667E-01 -0.88398451804E-01  0.10521240704E+00  0.51100000000E-03 0. -1.
         11    1    4    4    0    0  0.53983580606E-02 -0.82501237128E-02 -0.25753993934E-01  0.27581445495E-01  0.51100000000E-03 0.  1.
</event>
<event>
 8    1  0.1111182E+005  0.1043930E+01  0.7957747E-01            NaN
         13   -1    0    0    0    0  0.00000000000E+00  0.00000000000E+00  0.74505805969E-08  0.10566000000E+00  0.10566000000E+00 0. -1.
     999900   -1    0    0    0    0 -0.00000000000E+00 -0.00000000000E+00 -0.74505805969E-08  0.93827000000E+00  0.93827000000E+00 0. -1.
     999902    2    1    2    0    0 -0.96559457299E-02 -0.14107774286E-01  0.16561598348E-01  0.10201276236E+01  0.10198498984E+01 0.  0.
     999903    2    3    3    0    0  0.12373254545E+00 -0.33190074960E-01 -0.47906678114E-02  0.12961510652E+00  0.19125936836E-01 0.  0.
         14    1    1    2    0    0  0.96559457299E-02  0.14107774286E-01 -0.16561598348E-01  0.23802376417E-01  0.00000000000E+00 0.  1.
     999901    1    3    3    0    0 -0.13338849118E+00  0.19082300674E-01  0.21352266160E-01  0.89051251706E+00  0.88000000000E+00 0.  1.
        -11    1    4    4    0    0  0.10220963429E+00 -0.19992102823E-01 -0.15828163977E-02  0.10415978085E+00  0.51100000000E-03 0. -1.
         11    1    4    4    0    0  0.21522911158E-01 -0.13197972137E-01 -0.32078514137E-02  0.25455325670E-01  0.51100000000E-03 0.  1.
</event>
<event>
 8    1  0.1111182E+005  0.1043930E+01  0.7957747E-01            NaN
         13   -1    0    0    0    0  0.00000000000E+00  0.00000000000E+00  0.74505805969E-08  0.10566000000E+00  0.10566000000E+00 0. -1.
     999900   -1    0    0    0    0 -0.00000000000E+00 -0.00000000000E+00 -0.74505805969E-08  0.93827000000E+00  0.93827000000E+00 0.  1.
     999902    2    1    2    0    0  0.12681043531E-01 -0.19881729515E-01  0.34500314735E-02  0.10200973596E+01  0.10198189193E+01 0.  0.
     999903    2    3    3    0    0  0.88555604738E-01 -0.45258151759E-01 -0.83568262202E-01  0.13219359490E+00  0.24517272583E-01 0.  0.
         14    1    1    2    0    0 -0.12681043531E-01  0.19881729515E-01 -0.34500314735E-02  0.23832640448E-01  0.00000000000E+00 0. -1.
     999901    1    3    3    0    0 -0.75874561206E-01  0.25376422244E-01  0.87018293675E-01  0.88790376465E+00  0.88000000000E+00 0. -1.
        -11    1    4    4    0    0  0.11993880362E-01 -0.14639915335E-01 -0.23490159176E-01  0.30170001430E-01  0.51100000000E-03 0.  1.
         11    1    4    4    0    0  0.76561724375E-01 -0.30618236424E-01 -0.60078103026E-01  0.10202359347E+00  0.51100000000E-03 0. -1.
</event>
<event>
 8    1  0.1111182E+005  0.1043930E+01  0.7957747E-01            NaN
         13   -1    0    0    0    0  0.00000000000E+00  0.00000000000E+00  0.74505805969E-08  0.10566000000E+00  0.10566000000E+00 0.  1.
     999900   -1    0    0    0    0 -0.00000000000E+00 -0.00000000000E+00 -0.74505805969E-08  0.93827000000E+00  0.93827000000E+00 0.  1.
     999902    2    1    2    0    0  0.13008096869E-01 -0.89423243592E-04 -0.19094935558E-01  0.10208251273E+01  0.10205636214E+01 0.  0.
     999903    2    3    3    0    0  0.11218264071E+00 -0.17541418358E-01  0.62749572668E-01  0.13130914324E+00  0.20296206401E-01 0.  0.
         14    1    1    2    0    0 -0.13008096869E-01  0.89423243592E-04  0.19094935558E-01  0.23104872747E-01  0.00000000000E+00 0.  1.
     999901    1    3    3    0    0 -0.99174543844E-01  0.17451995114E-01 -0.81844508226E-01  0.88951598401E+00  0.88000000000E+00 0. -1.
        -11    1    4    4    0    0  0.44460268915E-01 -0.13184129772E-01  0.16680745525E-01  0.49285344496E-01  0.51100000000E-03 0.  1.
         11    1    4    4    0    0  0.67722371798E-01 -0.43572885854E-02  0.46068827143E-01  0.82023798748E-01  0.51100000000E-03 0. -1.
</event>
<event>
 8    1  0.1111182E+005  0.1043930E+01  0.7957747E-01            NaN
         13   -1    0    0    0    0  0.00000000000E+00  0.00000000000E+00  0.74505805969E-08  0.10566000000E+00  0.10566000000E+00 0. -1.
     999900   -1    0    0    0    0 -0.00000000000E+00 -0.00000000000E+00 -0.74505805969E-08  0.93827000000E+00  0.93827000000E+00 0.  1.
     999902    2    1    2    0    0 -0.97480223942E-02 -0.21713605553E-01  0.14424505948E-01  0.10160988847E+01  0.10157176638E+01 0.  0.
     999903    2    3    3    0    0 -0.11280952559E-01 -0.40043102063E-01 -0.11740333063E+00  0.12608939104E+00  0.19603126698E-01 0.  0.
         14    1    1    2    0    0  0.97480223942E-02  0.21713605553E-01 -0.14424505948E-01  0.27831115295E-01  0.00000000000E+00 0.  1.
     999901    1    3    3    0    0  0.15329301648E-02  0.18329496510E-01  0.13182783658E+00  0.89000949367E+00  0.88000000000E+00 0. -1.
        -11    1    4    4    0    0 -0.27741279644E-02 -0.21090854450E-01 -0.33783738743E-01  0.39926458043E-01  0.51100000000E-03 0.  1.
         11    1    4    4    0    0 -0.85068245945E-02 -0.18952247612E-01 -0.83619591887E-01  0.86162932997E-01  0.51100000000E-03 0. -1.
</event>
<event>
 8    1  0.1111182E+005  0.1043930E+01  0.7957747E-01            NaN
         13   -1    0    0    0    0  0.00000000000E+00  0.00000000000E+00  0.74505805969E-08  0.10566000000E+00  0.10566000000E+00 0. -1.
     999900   -1    0    0    0    0 -0.00000000000E+00 -0.00000000000E+00 -0.74505805969E-08  0.93827000000E+00  0.93827000000E+00 0. -1.
     999902    2    1    2    0    0 -0.34096800616E-02  0.74798444705E-02  0.23557771011E-01  0.10189791971E+01  0.10186736776E+01 0.  0.
     999903    2    3    3    0    0  0.78435272592E-01  0.70525690226E-01  0.75650838861E-01  0.13140550286E+00  0.20454627699E-01 0.  0.
         14    1    1    2    0    0  0.34096800616E-02 -0.74798444705E-02 -0.23557771011E-01  0.24950802922E-01  0.00000000000E+00 0.  1.
     999901    1    3    3    0    0 -0.81844952653E-01 -0.63045845756E-01 -0.52093067850E-01  0.88757369421E+00  0.88000000000E+00 0.  1.
        -11    1    4    4    0    0  0.16362814943E-01  0.21384312949E-01  0.28709917819E-01  0.39364337354E-01  0.51100000000E-03 0.  1.
         11    1    4    4    0    0  0.62072457648E-01  0.49141377278E-01  0.46940921042E-01  0.92041165510E-01  0.51100000000E-03 0. -1.
</event>
<event>
 8    1  0.1111182E+005  0.1043930E+01  0.7957747E-01            NaN
         13   -1    0    0    0    0  0.00000000000E+00  0.00000000000E+00  0.74505805969E-08  0.10566000000E+00  0.10566000000E+00 0. -1.
     999900   -1    0    0    0    0 -0.00000000000E+00 -0.00000000000E+00 -0.74505805969E-08  0.93827000000E+00  0.93827000000E+00 0.  1.
     999902    2    1    2    0    0 -0.13625806571E-01  0.36666991807E-02 -0.17509212278E-01  0.10214426746E+01  0.10211951125E+01 0.  0.
     999903    2    3    3    0    0 -0.12693170188E+00  0.51655067042E-02  0.30163274954E-01  0.13289715617E+00  0.24768761784E-01 0.  0.
         14    1    1    2    0    0  0.13625806571E-01 -0.36666991807E-02  0.17509212278E-01  0.22487325368E-01  0.00000000000E+00 0. -1.
     999901    1    3    3    0    0  0.11330589531E+00 -0.14988075235E-02 -0.47672487233E-01  0.88854551846E+00  0.88000000000E+00 0. -1.
        -11    1    4    4    0    0 -0.67592100203E-01 -0.63749638699E-02  0.24498669811E-01  0.72178792714E-01  0.51100000000E-03 0. -1.
         11    1    4    4    0    0 -0.59339601680E-01  0.11540470574E-01  0.56646051439E-02  0.60718363458E-01  0.51100000000E-03 0.  1.
</event>
<event>
 8    1  0.1111182E+005  0.1043930E+01  0.7957747E-01            NaN
         13   -1    0    0    0    0  0.00000000000E+00  0.00000000000E+00  0.74505805969E-08  0.10566000000E+00  0.10566000000E+00 0. -1.
     999900   -1    0    0    0    0 -0.00000000000E+00 -0.00000000000E+00 -0.74505805969E-08  0.93827000000E+00  0.93827000000E+00 0.  1.
     999902    2    1    2    0    0 -0.20070738482E-01  0.11633038077E-01 -0.79933863675E-02  0.10193931635E+01  0.10190978194E+01 0.  0.
     999903    2    3    3    0    0  0.23372937332E-01  0.11348417726E+00 -0.58018362068E-01  0.13104441123E+00  0.19533424939E-01 0.  0.
         14    1    1    2    0    0  0.20070738482E-01 -0.11633038077E-01  0.79933863675E-02  0.24536836466E-01  0.00000000000E+00 0.  1.
     999901    1    3    3    0    0 -0.43443675815E-01 -0.10185113919E+00  0.50024975701E-01  0.88834875230E+00  0.88000000000E+00 0.  1.
        -11    1    4    4    0    0 -0.88272852904E-03  0.28748652209E-01 -0.87463377832E-02  0.30066987862E-01  0.51100000000E-03 0. -1.
         11    1    4    4    0    0  0.24255665861E-01  0.84735525053E-01 -0.49272024285E-01  0.10097742337E+00  0.51100000000E-03 0.  1.
</event>
<event>
 8    1  0.1111182E+005  0.1043930E+01  0.7957747E-01            NaN
         13   -1    0    0    0    0  0.00000000000E+00  0.00000000000E+00  0.74505805969E-08  0.10566000000E+00  0.10566000000E+00 0.  1.
     999900   -1    0    0    0    0 -0.00000000000E+00 -0.00000000000E+00 -0.74505805969E-08  0.93827000000E+00  0.93827000000E+00 0. -1.
     999902    2    1    2    0    0  0.20637410115E-01  0.98243834868E-02  0.49795070917E-02  0.10205373367E+01  0.10202691992E+01 0.  0.
     999903    2    3    3    0    0 -0.10566246198E+00  0.44151323425E-01 -0.55348967763E-01  0.12881455386E+00  0.20390826860E-01 0.  0.
         14    1    1    2    0    0 -0.20637410115E-01 -0.98243834868E-02 -0.49795070917E-02  0.23392663338E-01  0.00000000000E+00 0. -1.
     999901    1    3    3    0    0  0.12629987210E+00 -0.34326939939E-01  0.60328474854E-01  0.89172278281E+00  0.88000000000E+00 0.  1.
        -11    1    4    4    0    0 -0.32995511859E-01  0.22253858746E-01 -0.25440144288E-01  0.47237697809E-01  0.51100000000E-03 0.  1.
         11    1    4    4    0    0 -0.72666950124E-01  0.21897464679E-01 -0.29908823475E-01  0.81576856046E-01  0.51100000000E-03 0. -1.
</event>
<event>
 8    1  0.1111182E+005  0.1043930E+01  0.7957747E-01            NaN
         13   -1    0    0    0    0  0.00000000000E+00  0.00000000000E+00  0.74505805969E-08  0.10566000000E+00  0.10566000000E+00 0.  1.
     999900   -1    0    0    0    0 -0.00000000000E+00 -0.00000000000E+00 -0.74505805969E-08  0.93827000000E+00  0.93827000000E+00 0.  1.
     999902    2    1    2    0    0 -0.17060727558E-01 -0.18838530727E-02 -0.16299851388E-01  0.10202592906E+01  0.10199846654E+01 0.  0.
     999903    2    3    3    0    0 -0.44523653382E-01 -0.12197208133E+00 -0.88334120755E-02  0.13164737163E+00  0.19835749380E-01 0.  0.
         14    1    1    2    0    0  0.17060727558E-01  0.18838530727E-02  0.16299851388E-01  0.23670709378E-01  0.00000000000E+00 0.  1.
     999901    1    3    3    0    0  0.27462925824E-01  0.12008822826E+00 -0.74664393121E-02  0.88861191899E+00  0.88000000000E+00 0.  1.
        -11    1    4    4    0    0 -0.25767336653E-01 -0.77875046760E-01 -0.14803578878E-01  0.83353977798E-01  0.51100000000E-03 0. -1.
         11    1    4    4    0    0 -0.18756316729E-01 -0.44097034569E-01  0.59701668025E-02  0.48293393831E-01  0.51100000000E-03 0.  1.
</event>
<event>
 8    1  0.1111182E+005  0.1043930E+01  0.7957747E-01            NaN
         13   -1    0    0    0    0  0.00000000000E+00  0.00000000000E+00  0.74505805969E-08  0.10566000000E+00  0.10566000000E+00 0.  1.
     999900   -1    0    0    0    0 -0.00000000000E+00 -0.00000000000E+00 -0.74505805969E-08  0.93827000000E+00  0.93827000000E+00 0. -1.
     999902    2    1    2    0    0  0.15654039158E-01  0.75616566431E-02  0.15626012817E-01  0.10205548023E+01  0.10202870697E+01 0.  0.
     999903    2    3    3    0    0 -0.85126788383E-01 -0.15865575199E-01 -0.92056218860E-01  0.12797367238E+00  0.20115337782E-01 0.  0.
         14    1    1    2    0    0 -0.15654039158E-01 -0.75616566431E-02 -0.15626012817E-01  0.23375197747E-01  0.00000000000E+00 0. -1.
     999901    1    3    3    0    0  0.10078082754E+00  0.23427231842E-01  0.10768223168E+00  0.89258112988E+00  0.88000000000E+00 0.  1.
        -11    1    4    4    0    0 -0.40169046170E-01 -0.25095468719E-02 -0.30070345254E-01  0.50242779386E-01  0.51100000000E-03 0.  1.
         11    1    4    4    0    0 -0.44957742213E-01 -0.13356028327E-01 -0.61985873605E-01  0.77730892991E-01  0.51100000000E-03 0. -1.
</event>
<event>
 8    1  0.1111182E+005  0.1043930E+01  0.7957747E-01            NaN
         13   -1    0    0    0    0  0.00000000000E+00  0.00000000000E+00  0.74505805969E-08  0.10566000000E+00  0.10566000000E+00 0. -1.
     999900   -1    0    0    0    0 -0.00000000000E+00 -0.00000000000E+00 -0.74505805969E-08  0.93827000000E+00  0.93827000000E+00 0.  1.
     999902    2    1    2    0    0 -0.55974404970E-02  0.71921278791E-02  0.21248252766E-01  0.10208097429E+01  0.10205478847E+01 0.  0.
     999903    2    3    3    0    0 -0.17981645727E-01  0.58520326840E-01 -0.11209523751E+00  0.12919971661E+00  0.19474502885E-01 0.  0.
         14    1    1    2    0    0  0.55974404970E-02 -0.71921278791E-02 -0.21248252766E-01  0.23120257117E-01  0.00000000000E+00 0.  1.
     999901    1    3    3    0    0  0.12384205230E-01 -0.51328198960E-01  0.13334349028E+00  0.89161002627E+00  0.88000000000E+00 0. -1.
        -11    1    4    4    0    0 -0.25035056849E-02  0.37921600650E-01 -0.74261862486E-01  0.83423022466E-01  0.51100000000E-03 0. -1.
         11    1    4    4    0    0 -0.15478140042E-01  0.20598726190E-01 -0.37833375028E-01  0.45776694145E-01  0.51100000000E-03 0.  1.
</event>
<event>
 8    1  0.1111182E+005  0.1043930E+01  0.7957747E-01            NaN
         13   -1    0    0    0    0  0.00000000000E+00  0.00000000000E+00  0.74505805969E-08  0.10566000000E+00  0.10566000000E+00 0.  1.
     999900   -1    0    0    0    0 -0.00000000000E+00 -0.00000000000E+00 -0.74505805969E-08  0.93827000000E+00  0.93827000000E+00 0. -1.
     999902    2    1    2    0    0  0.49291427458E-02 -0.25328195134E-01 -0.51839897027E-02  0.10176110398E+01  0.10172706329E+01 0.  0.
     999903    2    3    3    0    0 -0.32683588633E-01 -0.27005983654E-01 -0.12045348367E+00  0.12929544904E+00  0.20266506767E-01 0.  0.
         14    1    1    2    0    0 -0.49291427458E-02  0.25328195134E-01  0.51839897027E-02  0.26318960203E-01  0.00000000000E+00 0. -1.
     999901    1    3    3    0    0  0.37612731379E-01  0.16777885204E-02  0.11526949397E+00  0.88831559075E+00  0.88000000000E+00 0.  1.
        -11    1    4    4    0    0 -0.24348622599E-01 -0.84134243940E-02 -0.54885345855E-01  0.60632527930E-01  0.51100000000E-03 0. -1.
         11    1    4    4    0    0 -0.83349660335E-02 -0.18592559260E-01 -0.65568137813E-01  0.68662921114E-01  0.51100000000E-03 0.  1.
</event>
<event>
 8    1  0.1111182E+005  0.1043930E+01  0.7957747E-01            NaN
         13   -1    0    0    0    0  0.00000000000E+00  0.00000000000E+00  0.74505805969E-08  0.10566000000E+00  0.10566000000E+00 0. -1.
     999900   -1    0    0    0    0 -0.00000000000E+00 -0.00000000000E+00 -0.74505805969E-08  0.93827000000E+00  0.93827000000E+00 0. -1.
     999902    2    1    2    0    0 -0.23417311643E-01  0.27760355097E-02  0.41033954901E-02  0.10199943631E+01  0.10197134824E+01 0.  0.
     999903    2    3    3    0    0  0.80519949527E-01 -0.65177005631E-01  0.73665089091E-01  0.12855765799E+00  0.19209938621E-01 0.  0.
         14    1    1    2    0    0  0.23417311643E-01 -0.27760355097E-02 -0.41033954901E-02  0.23935636869E-01  0.00000000000E+00 0.  1.
     999901    1    3    3    0    0 -0.10393726117E+00  0.67953041141E-01 -0.69561693601E-01  0.89143670514E+00  0.88000000000E+00 0. -1.
        -11    1    4    4    0    0  0.76144124362E-01 -0.54090370517E-01  0.64384334931E-01  0.11344293527E+00  0.51100000000E-03 0.  1.
         11    1    4    4    0    0  0.43758251652E-02 -0.11086635115E-01  0.92807541595E-02  0.15114722717E-01  0.51100000000E-03 0. -1.
</event>
<event>
 8    1  0.1111182E+005  0.1043930E+01  0.7957747E-01            NaN
         13   -1    0    0    0    0  0.00000000000E+00  0.00000000000E+00  0.74505805969E-08  0.10566000000E+00  0.10566000000E+00 0.  1.
     999900   -1    0    0    0    0 -0.00000000000E+00 -0.00000000000E+00 -0.74505805969E-08  0.93827000000E+00  0.93827000000E+00 0. -1.
     999902    2    1    2    0    0  0.22946787273E-01 -0.46056394258E-03  0.13472090050E-01  0.10173167632E+01  0.10169685994E+01 0.  0.
     999903    2    3    3    0    0 -0.10342396343E+00 -0.56681633133E-02 -0.66355983414E-01  0.12469746746E+00  0.20437650798E-01 0.  0.
         14    1    1    2    0    0 -0.22946787273E-01  0.46056394258E-03 -0.13472090050E-01  0.26613236849E-01  0.00000000000E+00 0. -1.
     999901    1    3    3    0    0  0.12637075070E+00  0.52075993708E-02  0.79828073463E-01  0.89261929569E+00  0.88000000000E+00 0. -1.
        -11    1    4    4    0    0 -0.41965649173E-01  0.76425859187E-02 -0.25317511814E-01  0.49606071760E-01  0.51100000000E-03 0. -1.
         11    1    4    4    0    0 -0.61458314255E-01 -0.13310749232E-01 -0.41038471599E-01  0.75091395701E-01  0.51100000000E-03 0.  1.
</event>
<event>
 8    1  0.1111182E+005  0.1043930E+01  0.7957747E-01            NaN
         13   -1    0    0    0    0  0.00000000000E+00  0.00000000000E+00  0.74505805969E-08  0.10566000000E+00  0.10566000000E+00 0. -1.
     999900   -1    0    0    0    0 -0.00000000000E+00 -0.00000000000E+00 -0.74505805969E-08  0.93827000000E+00  0.93827000000E+00 0. -1.
     999902    2    1    2    0    0 -0.13334850149E-01  0.14578690267E-01 -0.13615411417E-01  0.10199355034E+01  0.10196532230E+01 0.  0.
     999903    2    3    3    0    0  0.27976358302E-03 -0.12291281261E+00  0.30117606871E-01  0.12808246173E+00  0.19758769922E-01 0.  0.
         14    1    1    2    0    0  0.13334850149E-01 -0.14578690267E-01  0.13615411417E-01  0.23994496586E-01  0.00000000000E+00 0. -1.
     999901    1    3    3    0    0 -0.13614613732E-01  0.13749150287E+00 -0.43733018288E-01  0.89185304168E+00  0.88000000000E+00 0. -1.
        -11    1    4    4    0    0  0.73539265557E-02 -0.31796309862E-01  0.31322886186E-02  0.32789600632E-01  0.51100000000E-03 0. -1.
         11    1    4    4    0    0 -0.70741629727E-02 -0.91116502745E-01  0.26985318253E-01  0.95292861099E-01  0.51100000000E-03 0.  1.
</event>
<event>
 8    1  0.1111182E+005  0.1043930E+01  0.7957747E-01            NaN
         13   -1    0    0    0    0  0.00000000000E+00  0.00000000000E+00  0.74505805969E-08  0.10566000000E+00  0.10566000000E+00 0. -1.
     999900   -1    0    0    0    0 -0.00000000000E+00 -0.00000000000E+00 -0.74505805969E-08  0.93827000000E+00  0.93827000000E+00 0. -1.
     999902    2    1    2    0    0 -0.18242911804E-01  0.71229105603E-02  0.13009425709E-01  0.10204186231E+01  0.10201477254E+01 0.  0.
     999903    2    3    3    0    0 -0.45581076007E-01  0.10638872138E+00  0.62108447436E-01  0.13305635754E+00  0.21221227864E-01 0.  0.
         14    1    1    2    0    0  0.18242911804E-01 -0.71229105603E-02 -0.13009425709E-01  0.23511376889E-01  0.00000000000E+00 0.  1.
     999901    1    3    3    0    0  0.27338164203E-01 -0.99265810822E-01 -0.49099021726E-01  0.88736226557E+00  0.88000000000E+00 0.  1.
        -11    1    4    4    0    0 -0.32682620508E-01  0.88418946184E-01  0.57612272578E-01  0.11047849927E+00  0.51100000000E-03 0. -1.
         11    1    4    4    0    0 -0.12898455500E-01  0.17969775198E-01  0.44961748575E-02  0.22577858275E-01  0.51100000000E-03 0.  1.
</event>
<event>
 8    1  0.1111182E+005  0.1043930E+01  0.7957747E-01            NaN
         13   -1    0    0    0    0  0.00000000000E+00  0.00000000000E+00  0.74505805969E-08  0.10566000000E+00  0.10566000000E+00 0. -1.
     999900   -1    0    0    0    0 -0.00000000000E+00 -0.00000000000E+00 -0.74505805969E-08  0.93827000000E+00  0.93827000000E+00 0.  1.
     999902    2    1    2    0    0 -0.10104996812E-01 -0.21469903615E-01 -0.47740426324E-03  0.10201961500E+01  0.10199200404E+01 0.  0.
     999903    2    3    3    0    0 -0.48887151446E-01 -0.11981947949E+00 -0.26789779521E-01  0.13347802358E+00  0.18762442564E-01 0.  0.
         14    1    1    2    0    0  0.10104996812E-01  0.21469903615E-01  0.47740426324E-03  0.23733850017E-01  0.00000000000E+00 0.  1.
     999901    1    3    3    0    0  0.38782154634E-01  0.98349575877E-01  0.26312375258E-01  0.88671812640E+00  0.88000000000E+00 0. -1.
        -11    1    4    4    0    0 -0.24393885964E-01 -0.59276888324E-01 -0.37128578443E-02  0.64209482136E-01  0.51100000000E-03 0. -1.
         11    1    4    4    0    0 -0.24493265482E-01 -0.60542591167E-01 -0.23076921677E-01  0.69268541448E-01  0.51100000000E-03 0.  1.
</event>
<event>
 8    1  0.1111182E+005  0.1043930E+01  0.7957747E-01            NaN
         13   -1    0    0    0    0  0.00000000000E+00  0.00000000000E+00  0.74505805969E-08  0.10566000000E+00  0.10566000000E+00 0.  1.
     999900   -1    0    0    0    0 -0.00000000000E+00 -0.00000000000E+00 -0.74505805969E-08  0.93827000000E+00  0.93827000000E+00 0.  1.
     999902    2    1    2    0    0 -0.81449039771E-02  0.21535255040E-01 -0.16446415333E-02  0.10208472897E+01  0.10205862910E+01 0.  0.
     999903    2    3    3    0    0 -0.84038808964E-01 -0.51884932964E-01  0.83398227131E-01  0.13046383389E+00  0.17634624551E-01 0.  0.
         14    1    1    2    0    0  0.81449039771E-02 -0.21535255040E-01  0.16446415333E-02  0.23082710331E-01  0.00000000000E+00 0. -1.
     999901    1    3    3    0    0  0.75893904987E-01  0.73420188004E-01 -0.85042868664E-01  0.89038345578E+00  0.88000000000E+00 0.  1.
        -11    1    4    4    0    0 -0.25830457272E-01 -0.25715939397E-01  0.32357286597E-01  0.48741944759E-01  0.51100000000E-03 0. -1.
         11    1    4    4    0    0 -0.58208351693E-01 -0.26168993566E-01  0.51040940534E-01  0.81721889128E-01  0.51100000000E-03 0.  1.
</event>
<event>
 7    1  0.1111182E+005  0.1043930E+01  0.7957747E-01            NaN
         13   -1    0    0    0    0  0.00000000000E+00  0.00000000000E+00  0.74505805969E-08  0.10566000000E+00  0.10566000000E+00 0. -1.
     999900   -1    0    0    0    0 -0.00000000000E+00 -0.00000000000E+00 -0.74505805969E-08  0.93827000000E+00  0.93827000000E+00 0. -1.
     999903    2    1    2    0    0  0.92865516725E-01  0.36624245683E-01 -0.57617783844E-01  0.11696226556E+00  0.19875185060E-01 0.  0.
         14    1    1    2    0    0  0.12568022445E-01 -0.14774901973E-01  0.35118646275E-01  0.40119474481E-01  0.00000000000E+00 0. -1.
     999901    1    1    2    0    0 -0.10543353917E+00 -0.21849343710E-01  0.22499137569E-01  0.88684825996E+00  0.88000000000E+00 0.  1.
        -11    1    3    3    0    0  0.58648889635E-01  0.13055547632E-01 -0.37145256511E-01  0.70641140858E-01  0.51100000000E-03 0. -1.
         11    1    3    3    0    0  0.34216627089E-01  0.23568698050E-01 -0.20472527333E-01  0.46321124701E-01  0.51100000000E-03 0.  1.
</event>
<event>
 8    1  0.1111182E+005  0.1043930E+01  0.7957747E-01            NaN
         13   -1    0    0    0    0  0.00000000000E+00  0.00000000000E+00  0.74505805969E-08  0.10566000000E+00  0.10566000000E+00 0.  1.
     999900   -1    0    0    0    0 -0.00000000000E+00 -0.00000000000E+00 -0.74505805969E-08  0.93827000000E+00  0.93827000000E+00 0.  1.
     999902    2    1    2    0    0  0.40586227028E-02 -0.23579617523E-01 -0.56214280750E-03  0.10199970356E+01  0.10197162183E+01 0.  0.
     999903    2    3    3    0    0 -0.15103200957E-01 -0.12915899017E+00 -0.18270527943E-01  0.13330218035E+00  0.22923954118E-01 0.  0.
         14    1    1    2    0    0 -0.40586227028E-02  0.23579617523E-01  0.56214280750E-03  0.23932964407E-01  0.00000000000E+00 0. -1.
     999901    1    3    3    0    0  0.19161823660E-01  0.10557937265E+00  0.17708385135E-01  0.88669485525E+00  0.88000000000E+00 0. -1.
        -11    1    4    4    0    0 -0.92244168214E-02 -0.90980302556E-01 -0.23231571311E-01  0.94352913816E-01  0.51100000000E-03 0.  1.
         11    1    4    4    0    0 -0.58787841357E-02 -0.38178687617E-01  0.49610433684E-02  0.38949266532E-01  0.51100000000E-03 0. -1.
</event>
<event>
 8    1  0.1111182E+005  0.1043930E+01  0.7957747E-01            NaN
         13   -1    0    0    0    0  0.00000000000E+00  0.00000000000E+00  0.74505805969E-08  0.10566000000E+00  0.10566000000E+00 0.  1.
     999900   -1    0    0    0    0 -0.00000000000E+00 -0.00000000000E+00 -0.74505805969E-08  0.93827000000E+00  0.93827000000E+00 0. -1.
     999902    2    1    2    0    0  0.15935446062E-01  0.96087792958E-02 -0.31427045631E-01  0.10074070445E+01  0.10067447676E+01 0.  0.
     999903    2    3    3    0    0 -0.21130566733E-01 -0.75468740496E-01  0.81836102899E-01  0.11530805085E+00  0.21372112904E-01 0.  0.
         14    1    1    2    0    0 -0.15935446062E-01 -0.96087792958E-02  0.31427045631E-01  0.36522955491E-01  0.00000000000E+00 0.  1.
     999901    1    3    3    0    0  0.37066012794E-01  0.85077519791E-01 -0.11326314853E+00  0.89209899366E+00  0.88000000000E+00 0. -1.
        -11    1    4    4    0    0  0.18075382134E-02 -0.30564114357E-01  0.34732165660E-01  0.46303528302E-01  0.51100000000E-03 0. -1.
         11    1    4    4    0    0 -0.22938104946E-01 -0.44904626139E-01  0.47103937239E-01  0.69004522544E-01  0.51100000000E-03 0.  1.
</event>
<event>
 8    1  0.1111182E+005  0.1043930E+01  0.7957747E-01            NaN
         13   -1    0    0    0    0  0.00000000000E+00  0.00000000000E+00  0.74505805969E-08  0.10566000000E+00  0.10566000000E+00 0.  1.
     999900   -1    0    0    0    0 -0.00000000000E+00 -0.00000000000E+00 -0.74505805969E-08  0.93827000000E+00  0.93827000000E+00 0. -1.
     999902    2    1    2    0    0 -0.10624139848E-01 -0.15452510297E-01  0.95277629737E-02  0.10228959636E+01  0.10226796769E+01 0.  0.
     999903    2    3    3    0    0 -0.67104967297E-01  0.12713960127E-01 -0.11187921609E+00  0.13232138021E+00  0.18090529340E-01 0.  0.
         14    1    1    2    0    0  0.10624139848E-01  0.15452510297E-01 -0.95277629737E-02  0.21034036447E-01  0.00000000000E+00 0. -1.
     999901    1    3    3    0    0  0.56480827450E-01 -0.28166470423E-01  0.12140697906E+00  0.89057458334E+00  0.88000000000E+00 0. -1.
        -11    1    4    4    0    0 -0.18114298707E-01  0.80610401151E-02 -0.45965673864E-01  0.50062086254E-01  0.51100000000E-03 0.  1.
         11    1    4    4    0    0 -0.48990668590E-01  0.46529200114E-02 -0.65913542221E-01  0.82259293959E-01  0.51100000000E-03 0. -1.
</event>
<event>
 8    1  0.1111182E+005  0.1043930E+01  0.7957747E-01            NaN
         13   -1    0    0    0    0  0.00000000000E+00  0.00000000000E+00  0.74505805969E-08  0.10566000000E+00  0.10566000000E+00 0. -1.
     999900   -1    0    0    0    0 -0.00000000000E+00 -0.00000000000E+00 -0.74505805969E-08  0.93827000000E+00  0.93827000000E+00 0. -1.
     999902    2    1    2    0    0 -0.53722819826E-02  0.23812722369E-01 -0.70139283273E-02  0.10185311349E+01  0.10182144029E+01 0.  0.
     999903    2    3    3    0    0 -0.22131256241E-01 -0.84631751525E-01 -0.90966328829E-01  0.12775109877E+00  0.19827868931E-01 0.  0.
         14    1    1    2    0    0  0.53722819826E-02 -0.23812722369E-01  0.70139283273E-02  0.25398865150E-01  0.00000000000E+00 0. -1.
     999901    1    3    3    0    0  0.16758974259E-01  0.10844447389E+00  0.83952400501E-01  0.89078003608E+00  0.88000000000E+00 0.  1.
        -11    1    4    4    0    0 -0.53371250220E-02 -0.22984267726E-01 -0.12992435613E-01  0.26941157558E-01  0.51100000000E-03 0.  1.
         11    1    4    4    0    0 -0.16794131219E-01 -0.61647483799E-01 -0.77973893216E-01  0.10080994121E+00  0.51100000000E-03 0. -1.
</event>
<event>
 8    1  0.1111182E+005  0.1043930E+01  0.7957747E-01            NaN
         13   -1    0    0    0    0  0.00000000000E+00  0.00000000000E+00  0.74505805969E-08  0.10566000000E+00  0.10566000000E+00 0. -1.
     999900   -1    0    0    0    0 -0.00000000000E+00 -0.00000000000E+00 -0.74505805969E-08  0.93827000000E+00  0.93827000000E+00 0. -1.
     999902    2    1    2    0    0 -0.15473242325E-01  0.15585854772E-01  0.43592840977E-02  0.10215392998E+01  0.10212938841E+01 0.  0.
     999903    2    3    3    0    0  0.39231767844E-01 -0.82037422247E-01  0.91110471122E-01  0.13022077605E+00  0.19673899209E-01 0.  0.
         14    1    1    2    0    0  0.15473242325E-01 -0.15585854772E-01 -0.43592840977E-02  0.22390700187E-01  0.00000000000E+00 0. -1.
     999901    1    3    3    0    0 -0.54705010168E-01  0.97623277018E-01 -0.86751187024E-01  0.89131852376E+00  0.88000000000E+00 0. -1.
        -11    1    4    4    0    0  0.18228915585E-02 -0.10831832884E-01  0.20163412448E-01  0.22966842617E-01  0.51100000000E-03 0.  1.
         11    1    4    4    0    0  0.37408876285E-01 -0.71205589362E-01  0.70947058674E-01  0.10725393343E+00  0.51100000000E-03 0. -1.
</event>
<event>
 8    1  0.1111182E+005  0.1043930E+01  0.7957747E-01            NaN
         13   -1    0    0    0    0  0.00000000000E+00  0.00000000000E+00  0.74505805969E-08  0.10566000000E+00  0.10566000000E+00 0.  1.
     999900   -1    0    0    0    0 -0.00000000000E+00 -0.00000000000E+00 -0.74505805969E-08  0.93827000000E+00  0.93827000000E+00 0. -1.
     999902    2    1    2    0    0 -0.21990536036E-01 -0.24442303393E-02 -0.21772372326E-02  0.10216971797E+01  0.10214552505E+01 0.  0.
     999903    2    3    3    0    0  0.45279356668E-01 -0.11206197488E+00  0.46331941087E-01  0.13102640507E+00  0.20326428743E-01 0.  0.
         14    1    1    2    0    0  0.21990536036E-01  0.24442303393E-02  0.21772372326E-02  0.22232820313E-01  0.00000000000E+00 0.  1.
     999901    1    3    3    0    0 -0.67269892705E-01  0.10961774454E+00 -0.48509178320E-01  0.89067077462E+00  0.88000000000E+00 0. -1.
        -11    1    4    4    0    0  0.87502529241E-02 -0.10397787420E-01  0.10596691105E-01  0.17240414521E-01  0.51100000000E-03 0.  1.
         11    1    4    4    0    0  0.36529103744E-01 -0.10166418746E+00  0.35735249982E-01  0.11378599055E+00  0.51100000000E-03 0. -1.
</event>
<event>
 8    1  0.1111182E+005  0.1043930E+01  0.7957747E-01            NaN
         13   -1    0    0    0    0  0.00000000000E+00  0.00000000000E+00  0.74505805969E-08  0.10566000000E+00  0.10566000000E+00 0.  1.
     999900   -1    0    0    0    0 -0.00000000000E+00 -0.00000000000E+00 -0.74505805969E-08  0.93827000000E+00  0.93827000000E+00 0. -1.
     999902    2    1    2    0    0 -0.21435404262E-02 -0.16002838855E-01 -0.19861268366E-01  0.10183339925E+01  0.10180122616E+01 0.  0.
     999903    2    3    3    0    0  0.10203982859E+00  0.19364692249E-01 -0.72958023794E-01  0.12989474190E+00  0.27616169418E-01 0.  0.
         14    1    1    2    0    0  0.21435404262E-02  0.16002838855E-01  0.19861268366E-01  0.25596007464E-01  0.00000000000E+00 0.  1.
     999901    1    3    3    0    0 -0.10418336901E+00 -0.35367531105E-01  0.53096755427E-01  0.88843925064E+00  0.88000000000E+00 0.  1.
        -11    1    4    4    0    0  0.38761038301E-01 -0.18418689901E-03 -0.13976729644E-01  0.41207549157E-01  0.51100000000E-03 0.  1.
         11    1    4    4    0    0  0.63278790286E-01  0.19548879148E-01 -0.58981294150E-01  0.88687192742E-01  0.51100000000E-03 0. -1.
</event>
<event>
 8    1  0.1111182E+005  0.1043930E+01  0.7957747E-01            NaN
         13   -1    0    0    0    0  0.00000000000E+00  0.00000000000E+00  0.74505805969E-08  0.10566000000E+00  0.10566000000E+00 0.  1.
     999900   -1    0    0    0    0 -0.00000000000E+00 -0.00000000000E+00 -0.74505805969E-08  0.93827000000E+00  0.93827000000E+00 0.  1.
     999902    2    1    2    0    0 -0.76586124136E-02 -0.15947908834E-01  0.16131790088E-01  0.10199878866E+01  0.10197068521E+01 0.  0.
     999903    2    3    3    0    0  0.41488332699E-01 -0.11777202057E+00  0.36601153324E-01  0.13251813123E+00  0.25097412269E-01 0.  0.
         14    1    1    2    0    0  0.76586124136E-02  0.15947908834E-01 -0.16131790088E-01  0.23942113351E-01  0.00000000000E+00 0. -1.
     999901    1    3    3    0    0 -0.49146945112E-01  0.10182411173E+00 -0.20469363236E-01  0.88746975541E+00  0.88000000000E+00 0. -1.
        -11    1    4    4    0    0  0.43742413859E-01 -0.96853080552E-01  0.29263456651E-01  0.11022943799E+00  0.51100000000E-03 0.  1.
         11    1    4    4    0    0 -0.22540811602E-02 -0.20918940015E-01  0.73376966733E-02  0.22288693248E-01  0.51100000000E-03 0. -1.
</event>
<event>
 8    1  0.1111182E+005  0.1043930E+01  0.7957747E-01            NaN
         13   -1    0    0    0    0  0.00000000000E+00  0.00000000000E+00  0.74505805969E-08  0.10566000000E+00  0.10566000000E+00 0. -1.
     999900   -1    0    0    0    0 -0.00000000000E+00 -0.00000000000E+00 -0.74505805969E-08  0.93827000000E+00  0.93827000000E+00 0.  1.
     999902    2    1    2    0    0 -0.17789354241E-01  0.11140510852E-01  0.11123449020E-01  0.10201749327E+01  0.10198983234E+01 0.  0.
     999903    2    3    3    0    0  0.21264058889E-01  0.90386509342E-01 -0.88969620056E-01  0.13010542985E+00  0.19747108942E-01 0.  0.
         14    1    1    2    0    0  0.17789354241E-01 -0.11140510852E-01 -0.11123449020E-01  0.23755067342E-01  0.00000000000E+00 0.  1.
     999901    1    3    3    0    0 -0.39053413130E-01 -0.79245998490E-01  0.10009306908E+00  0.89006950281E+00  0.88000000000E+00 0. -1.
        -11    1    4    4    0    0  0.61143529214E-02  0.99392826611E-02 -0.46164746641E-02  0.12559761574E-01  0.51100000000E-03 0.  1.
         11    1    4    4    0    0  0.15149705968E-01  0.80447226681E-01 -0.84353145392E-01  0.11754566827E+00  0.51100000000E-03 0. -1.
</event>
<event>
 8    1  0.1111182E+005  0.1043930E+01  0.7957747E-01            NaN
         13   -1    0    0    0    0  0.00000000000E+00  0.00000000000E+00  0.74505805969E-08  0.10566000000E+00  0.10566000000E+00 0.  1.
     999900   -1    0    0    0    0 -0.00000000000E+00 -0.00000000000E+00 -0.74505805969E-08  0.93827000000E+00  0.93827000000E+00 0.  1.
     999902    2    1    2    0    0 -0.20984421904E-03  0.86567528893E-03 -0.23300585248E-01  0.10206123950E+01  0.10203459953E+01 0.  0.
     999903    2    3    3    0    0 -0.49312313377E-01 -0.95211647000E-01 -0.75297171203E-01  0.13249891733E+00  0.19731627581E-01 0.  0.
         14    1    1    2    0    0  0.20984421904E-03 -0.86567528893E-03  0.23300585248E-01  0.23317604963E-01  0.00000000000E+00 0.  1.
     999901    1    3    3    0    0  0.49102469158E-01  0.96077322289E-01  0.51996585955E-01  0.88811347771E+00  0.88000000000E+00 0.  1.
        -11    1    4    4    0    0 -0.44598330534E-01 -0.76743649098E-01 -0.53932296955E-01  0.10386314331E+00  0.51100000000E-03 0.  1.
         11    1    4    4    0    0 -0.47139828432E-02 -0.18467997902E-01 -0.21364874248E-01  0.28635774014E-01  0.51100000000E-03 0. -1.
</event>
<event>
 8    1  0.1111182E+005  0.1043930E+01  0.7957747E-01            NaN
         13   -1    0    0    0    0  0.00000000000E+00  0.00000000000E+00  0.74505805969E-08  0.10566000000E+00  0.10566000000E+00 0.  1.
     999900   -1    0    0    0    0 -0.00000000000E+00 -0.00000000000E+00 -0.74505805969E-08  0.93827000000E+00  0.93827000000E+00 0. -1.
     999902    2    1    2    0    0 -0.47727286115E-02  0.43282099039E-02  0.22581868294E-01  0.10204469611E+01  0.10201767236E+01 0.  0.
     999903    2    3    3    0    0 -0.70950037461E-01 -0.10651558857E+00 -0.14287844485E-01  0.13026430594E+00  0.19625709631E-01 0.  0.
         14    1    1    2    0    0  0.47727286115E-02 -0.43282099039E-02 -0.22581868294E-01  0.23483038879E-01  0.00000000000E+00 0. -1.
     999901    1    3    3    0    0  0.66177308849E-01  0.11084379847E+00  0.36869712778E-01  0.89018265518E+00  0.88000000000E+00 0.  1.
        -11    1    4    4    0    0 -0.43675856992E-01 -0.47949027835E-01 -0.79438184825E-02  0.65345658826E-01  0.51100000000E-03 0.  1.
         11    1    4    4    0    0 -0.27274180469E-01 -0.58566560731E-01 -0.63440260022E-02  0.64918647114E-01  0.51100000000E-03 0. -1.
</event>
<event>
 8    1  0.1111182E+005  0.1043930E+01  0.7957747E-01            NaN
         13   -1    0    0    0    0  0.00000000000E+00  0.00000000000E+00  0.74505805969E-08  0.10566000000E+00  0.10566000000E+00 0.  1.
     999900   -1    0    0    0    0 -0.00000000000E+00 -0.00000000000E+00 -0.74505805969E-08  0.93827000000E+00  0.93827000000E+00 0. -1.
     999902    2    1    2    0    0  0.65249183427E-02  0.23449393773E-01 -0.38200504796E-02  0.10192917896E+01  0.10189939700E+01 0.  0.
     999903    2    3    3    0    0 -0.11704898387E+00 -0.40223204268E-01  0.24898948020E-01  0.12791673387E+00  0.20600058320E-01 0.  0.
         14    1    1    2    0    0 -0.65249183427E-02 -0.23449393773E-01  0.38200504796E-02  0.24638210434E-01  0.00000000000E+00 0.  1.
     999901    1    3    3    0    0  0.12357390222E+00  0.63672598042E-01 -0.28718998500E-01  0.89137505570E+00  0.88000000000E+00 0. -1.
        -11    1    4    4    0    0 -0.22101478050E-01 -0.79111650922E-03 -0.49654091496E-04  0.22121590898E-01  0.51100000000E-03 0. -1.
         11    1    4    4    0    0 -0.94947505824E-01 -0.39432087759E-01  0.24948602112E-01  0.10579514297E+00  0.51100000000E-03 0.  1.
</event>
<event>
 8    1  0.1111182E+005  0.1043930E+01  0.7957747E-01            NaN
         13   -1    0    0    0    0  0.00000000000E+00  0.00000000000E+00  0.74505805969E-08  0.10566000000E+00  0.10566000000E+00 0.  1.
     999900   -1    0    0    0    0 -0.00000000000E+00 -0.00000000000E+00 -0.74505805969E-08  0.93827000000E+00  0.93827000000E+00 0. -1.
     999902    2    1    2    0    0  0.29354445789E-02 -0.68166031802E-02 -0.22434938290E-01  0.10202993130E+01  0.10200256265E+01 0.  0.
     999903    2    3    3    0    0 -0.33881353732E-01  0.51997570552E-03 -0.12705128206E+00  0.13330783532E+00  0.21925651163E-01 0.  0.
         14    1    1    2    0    0 -0.29354445789E-02  0.68166031802E-02  0.22434938290E-01  0.23630687037E-01  0.00000000000E+00 0.  1.
     999901    1    3    3    0    0  0.36816798311E-01 -0.73365788857E-02  0.10461634377E+00  0.88699147764E+00  0.88000000000E+00 0.  1.
        -11    1    4    4    0    0 -0.30879700348E-01  0.24756582641E-02 -0.75229317709E-01  0.81359671468E-01  0.51100000000E-03 0. -1.
         11    1    4    4    0    0 -0.30016533846E-02 -0.19556825586E-02 -0.51821964351E-01  0.51948163852E-01  0.51100000000E-03 0.  1.
</event>
<event>
 8    1  0.1111182E+005  0.1043930E+01  0.7957747E-01            NaN
         13   -1    0    0    0    0  0.00000000000E+00  0.00000000000E+00  0.74505805969E-08  0.10566000000E+00  0.10566000000E+00 0. -1.
     999900   -1    0    0    0    0 -0.00000000000E+00 -0.00000000000E+00 -0.74505805969E-08  0.93827000000E+00  0.93827000000E+00 0. -1.
     999902    2    1    2    0    0  0.83962353988E-02 -0.20255000502E-01 -0.52245373206E-02  0.10213898668E+01  0.10211411276E+01 0.  0.
     999903    2    3    3    0    0  0.22413361552E-01  0.95992926248E-01  0.81445071649E-01  0.12941358830E+00  0.19939319821E-01 0.  0.
         14    1    1    2    0    0 -0.83962353988E-02  0.20255000502E-01  0.52245373206E-02  0.22540133194E-01  0.00000000000E+00 0. -1.
     999901    1    3    3    0    0 -0.14017126153E-01 -0.11624792675E+00 -0.86669608969E-01  0.89197627851E+00  0.88000000000E+00 0.  1.
        -11    1    4    4    0    0  0.11651661260E-01  0.15728923941E-01  0.16432537225E-01  0.25562661425E-01  0.51100000000E-03 0. -1.
         11    1    4    4    0    0  0.10761700292E-01  0.80264002307E-01  0.65012534423E-01  0.10385092687E+00  0.51100000000E-03 0.  1.
</event>
<event>
 8    1  0.1111182E+005  0.1043930E+01  0.7957747E-01            NaN
         13   -1    0    0    0    0  0.00000000000E+00  0.00000000000E+00  0.74505805969E-08  0.10566000000E+00  0.10566000000E+00 0. -1.
     999900   -1    0    0    0    0 -0.00000000000E+00 -0.00000000000E+00 -0.74505805969E-08  0.93827000000E+00  0.93827000000E+00 0.  1.
     999902    2    1    2    0    0  0.13626908822E-01 -0.15337275977E-01 -0.10251338680E-01  0.10209949913E+01  0.10207373598E+01 0.  0.
     999903    2    3    3    0    0  0.10503217255E+00 -0.54342854934E-01  0.57081033290E-01  0.13284522594E+00  0.20117319455E-01 0.  0.
         14    1    1    2    0    0 -0.13626908822E-01  0.15337275977E-01  0.10251338680E-01  0.22935008681E-01  0.00000000000E+00 0. -1.
     999901    1    3    3    0    0 -0.91405263723E-01  0.39005578957E-01 -0.67332371970E-01  0.88814976538E+00  0.88000000000E+00 0.  1.
        -11    1    4    4    0    0  0.14220551905E-01 -0.11796731403E-01  0.24516606750E-02  0.18645608849E-01  0.51100000000E-03 0. -1.
         11    1    4    4    0    0  0.90811620640E-01 -0.42546123531E-01  0.54629372615E-01  0.11419961709E+00  0.51100000000E-03 0.  1.
</event>
<event>
 8    1  0.1111182E+005  0.1043930E+01  0.7957747E-01            NaN
         13   -1    0    0    0    0  0.00000000000E+00  0.00000000000E+00  0.74505805969E-08  0.10566000000E+00  0.10566000000E+00 0.  1.
     999900   -1    0    0    0    0 -0.00000000000E+00 -0.00000000000E+00 -0.74505805969E-08  0.93827000000E+00  0.93827000000E+00 0. -1.
     999902    2    1    2    0    0 -0.13570146586E-01 -0.18529891729E-01  0.35512312334E-02  0.10206895824E+01  0.10204249638E+01 0.  0.
     999903    2    3    3    0    0  0.32557745280E-01  0.11518656701E+00 -0.41774856793E-01  0.12824220134E+00  0.19312471319E-01 0.  0.
         14    1    1    2    0    0  0.13570146586E-01  0.18529891729E-01 -0.35512312334E-02  0.23240417576E-01  0.00000000000E+00 0. -1.
     999901    1    3    3    0    0 -0.46127891865E-01 -0.13371645874E+00  0.45326088026E-01  0.89244738108E+00  0.88000000000E+00 0.  1.
        -11    1    4    4    0    0  0.15459389380E-02  0.65266850497E-02 -0.76830050853E-02  0.10211622451E-01  0.51100000000E-03 0.  1.
         11    1    4    4    0    0  0.31011806342E-01  0.10865988196E+00 -0.34091851707E-01  0.11803057889E+00  0.51100000000E-03 0. -1.
</event>
<event>
 8    1  0.1124229E+005  0.1043930E+01  0.7957747E-01            NaN
         13   -1    0    0    0    0  0.00000000000E+00  0.00000000000E+00  0.74505805969E-08  0.10566000000E+00  0.10566000000E+00 0.  1.
     999900   -1    0    0    0    0 -0.00000000000E+00 -0.00000000000E+00 -0.74505805969E-08  0.93827000000E+00  0.93827000000E+00 0. -1.
     999902    2    1    2    0    0 -0.19310250520E-01  0.18109608937E-01 -0.13544868434E-01  0.10141926973E+01  0.10137566375E+01 0.  0.
     999903    2    3    3    0    0 -0.35318200571E-01  0.45343981568E-01  0.10929367160E+00  0.12509918566E+00  0.20031166852E-01 0.  0.
         14    1    1    2    0    0  0.19310250520E-01 -0.18109608937E-01  0.13544868434E-01  0.29737302701E-01  0.00000000000E+00 0.  1.
     999901    1    3    3    0    0  0.16007950051E-01 -0.27234372630E-01 -0.12283854003E+00  0.88909351164E+00  0.88000000000E+00 0. -1.
        -11    1    4    4    0    0 -0.77805697048E-02  0.25805206967E-01  0.44336087450E-01  0.51888300636E-01  0.51100000000E-03 0. -1.
         11    1    4    4    0    0 -0.27537630867E-01  0.19538774600E-01  0.64957584151E-01  0.73210885026E-01  0.51100000000E-03 0.  1.
</event>
<event>
 8    1  0.1111182E+005  0.1043930E+01  0.7957747E-01            NaN
         13   -1    0    0    0    0  0.00000000000E+00  0.00000000000E+00  0.74505805969E-08  0.10566000000E+00  0.10566000000E+00 0.  1.
     999900   -1    0    0    0    0 -0.00000000000E+00 -0.00000000000E+00 -0.74505805969E-08  0.93827000000E+00  0.93827000000E+00 0. -1.
     999902    2    1    2    0    0  0.79950351980E-02 -0.50300789919E-02 -0.22712371632E-01  0.10193317458E+01  0.10190349032E+01 0.  0.
     999903    2    3    3    0    0 -0.38802374377E-01 -0.81825920833E-01 -0.93765632857E-01  0.13189940206E+00  0.20108525060E-01 0.  0.
         14    1    1    2    0    0 -0.79950351980E-02  0.50300789919E-02  0.22712371632E-01  0.24598254158E-01  0.00000000000E+00 0.  1.
     999901    1    3    3    0    0  0.46797409575E-01  0.76795841841E-01  0.71053261226E-01  0.88743234379E+00  0.88000000000E+00 0.  1.
        -11    1    4    4    0    0 -0.27215830772E-01 -0.67803104693E-01 -0.64621444138E-01  0.97540528059E-01  0.51100000000E-03 0. -1.
         11    1    4    4    0    0 -0.11586543606E-01 -0.14022816140E-01 -0.29144188719E-01  0.34358873996E-01  0.51100000000E-03 0.  1.
</event>
<event>
 8    1  0.1111182E+005  0.1043930E+01  0.7957747E-01            NaN
         13   -1    0    0    0    0  0.00000000000E+00  0.00000000000E+00  0.74505805969E-08  0.10566000000E+00  0.10566000000E+00 0. -1.
     999900   -1    0    0    0    0 -0.00000000000E+00 -0.00000000000E+00 -0.74505805969E-08  0.93827000000E+00  0.93827000000E+00 0.  1.
     999902    2    1    2    0    0 -0.65028289349E-02 -0.57476983625E-02  0.26381935598E-01  0.10161571833E+01  0.10157775799E+01 0.  0.
     999903    2    3    3    0    0 -0.47727193031E-01  0.10647173293E+00  0.48025142695E-01  0.12780979779E+00  0.20367012839E-01 0.  0.
         14    1    1    2    0    0  0.65028289349E-02  0.57476983625E-02 -0.26381935598E-01  0.27772816683E-01  0.00000000000E+00 0.  1.
     999901    1    3    3    0    0  0.41224364096E-01 -0.11221943130E+00 -0.21643207097E-01  0.88834738553E+00  0.88000000000E+00 0.  1.
        -11    1    4    4    0    0 -0.33446096776E-01  0.84534303919E-01  0.45045134737E-01  0.10145942644E+00  0.51100000000E-03 0. -1.
         11    1    4    4    0    0 -0.14281096254E-01  0.21937429016E-01  0.29800079576E-02  0.26350371354E-01  0.51100000000E-03 0.  1.
</event>
<event>
 8    1  0.1111182E+005  0.1043930E+01  0.7957747E-01            NaN
         13   -1    0    0    0    0  0.00000000000E+00  0.00000000000E+00  0.74505805969E-08  0.10566000000E+00  0.10566000000E+00 0.  1.
     999900   -1    0    0    0    0 -0.00000000000E+00 -0.00000000000E+00 -0.74505805969E-08  0.93827000000E+00  0.93827000000E+00 0. -1.
     999902    2    1    2    0    0  0.42621785360E-02 -0.12486451817E-02  0.21396705258E-01  0.10220772135E+01  0.10218435722E+01 0.  0.
     999903    2    3    3    0    0 -0.29250459237E-01  0.10445303260E+00  0.75819622445E-01  0.13345029772E+00  0.17156381629E-01 0.  0.
         14    1    1    2    0    0 -0.42621785360E-02  0.12486451817E-02 -0.21396705258E-01  0.21852786471E-01  0.00000000000E+00 0. -1.
     999901    1    3    3    0    0  0.33512637773E-01 -0.10570167778E+00 -0.54422917187E-01  0.88862691580E+00  0.88000000000E+00 0.  1.
        -11    1    4    4    0    0 -0.46665482115E-02  0.44190051260E-01  0.35597232922E-01  0.56938224553E-01  0.51100000000E-03 0. -1.
         11    1    4    4    0    0 -0.24583911025E-01  0.60262981339E-01  0.40222389523E-01  0.76512073172E-01  0.51100000000E-03 0.  1.
</event>
<event>
 8    1  0.1605571E+005  0.1043930E+01  0.7957747E-01            NaN
         13   -1    0    0    0    0  0.00000000000E+00  0.00000000000E+00  0.74505805969E-08  0.10566000000E+00  0.10566000000E+00 0. -1.
     999900   -1    0    0    0    0 -0.00000000000E+00 -0.00000000000E+00 -0.74505805969E-08  0.93827000000E+00  0.93827000000E+00 0. -1.
     999902    2    1    2    0    0 -0.13105479240E-01  0.58107240133E-02  0.29394938493E-01  0.10112255583E+01  0.10106965663E+01 0.  0.
     999903    2    3    3    0    0 -0.66996805994E-01  0.10064223632E+00  0.21045005853E-01  0.12445218689E+00  0.20688712030E-01 0.  0.
         14    1    1    2    0    0  0.13105479240E-01 -0.58107240133E-02 -0.29394938493E-01  0.32704441727E-01  0.00000000000E+00 0.  1.
     999901    1    3    3    0    0  0.53891326753E-01 -0.94831512302E-01  0.83499326405E-02  0.88677337139E+00  0.88000000000E+00 0.  1.
        -11    1    4    4    0    0 -0.33028591209E-01  0.31640813994E-01  0.85093352339E-02  0.46526324319E-01  0.51100000000E-03 0.  1.
         11    1    4    4    0    0 -0.33968214784E-01  0.69001422322E-01  0.12535670619E-01  0.77925862568E-01  0.51100000000E-03 0. -1.
</event>
