<event>
 8    1  0.1132255E+005  0.1043930E+01  0.7957747E-01            NaN
         13   -1    0    0    0    0  0.00000000000E+00  0.00000000000E+00  0.74505805969E-08  0.10566000000E+00  0.10566000000E+00 0.  1.
     999900   -1    0    0    0    0 -0.00000000000E+00 -0.00000000000E+00 -0.74505805969E-08  0.93827000000E+00  0.93827000000E+00 0. -1.
     999902    2    1    2    0    0 -0.16291936234E-01 -0.13386725837E-01 -0.95060046662E-02  0.10208000251E+01  0.10205379442E+01 0.  0.
     999903    2    3    3    0    0  0.17428870014E-01  0.10323636047E+00  0.72311753799E-01  0.12870575729E+00  0.19356409479E-01 0.  0.
         14    1    1    2    0    0  0.16291936234E-01  0.13386725837E-01  0.95060046662E-02  0.23129974916E-01  0.00000000000E+00 0.  1.
     999901    1    3    3    0    0 -0.33720806248E-01 -0.11662308631E+00 -0.81817758466E-01  0.89209426780E+00  0.88000000000E+00 0. -1.
        -11    1    4    4    0    0  0.21655713358E-01  0.83746883533E-01  0.57793879102E-01  0.10403318704E+00  0.51100000000E-03 0.  1.
         11    1    4    4    0    0 -0.42268433440E-02  0.19489476940E-01  0.14517874697E-01  0.24672570250E-01  0.51100000000E-03 0. -1.
</event>
<event>
 8    1  0.1132255E+005  0.1043930E+01  0.7957747E-01            NaN
         13   -1    0    0    0    0  0.00000000000E+00  0.00000000000E+00  0.74505805969E-08  0.10566000000E+00  0.10566000000E+00 0.  1.
     999900   -1    0    0    0    0 -0.00000000000E+00 -0.00000000000E+00 -0.74505805969E-08  0.93827000000E+00  0.93827000000E+00 0.  1.
     999902    2    1    2    0    0  0.26872375466E-01  0.50068583536E-02  0.52421207595E-03  0.10165901391E+01  0.10162224378E+01 0.  0.
     999903    2    3    3    0    0  0.94105240839E-01 -0.69417437189E-02  0.86918672860E-01  0.12972654752E+00  0.19238952171E-01 0.  0.
         14    1    1    2    0    0 -0.26872375466E-01 -0.50068583536E-02 -0.52421207595E-03  0.27339860864E-01  0.00000000000E+00 0. -1.
     999901    1    3    3    0    0 -0.67232865373E-01  0.11948602073E-01 -0.86394460784E-01  0.88686359161E+00  0.88000000000E+00 0.  1.
        -11    1    4    4    0    0  0.19194213680E-01 -0.15411101182E-02  0.82308280320E-02  0.20947565737E-01  0.51100000000E-03 0.  1.
         11    1    4    4    0    0  0.74911027159E-01 -0.54006336008E-02  0.78687844828E-01  0.10877898178E+00  0.51100000000E-03 0. -1.
</event>
<event>
 8    1  0.1132255E+005  0.1043930E+01  0.7957747E-01            NaN
         13   -1    0    0    0    0  0.00000000000E+00  0.00000000000E+00  0.74505805969E-08  0.10566000000E+00  0.10566000000E+00 0.  1.
     999900   -1    0    0    0    0 -0.00000000000E+00 -0.00000000000E+00 -0.74505805969E-08  0.93827000000E+00  0.93827000000E+00 0.  1.
     999902    2    1    2    0    0  0.23143067396E-01 -0.30362453178E-03 -0.27945407883E-02  0.10206168446E+01  0.10203505477E+01 0.  0.
     999903    2    3    3    0    0 -0.11802070914E+00  0.36686591304E-01  0.27039559126E-01  0.12810042381E+00  0.20094453292E-01 0.  0.
         14    1    1    2    0    0 -0.23143067396E-01  0.30362453178E-03  0.27945407883E-02  0.23313155397E-01  0.00000000000E+00 0.  1.
     999901    1    3    3    0    0  0.14116377654E+00 -0.36990215836E-01 -0.29834099914E-01  0.89251642080E+00  0.88000000000E+00 0. -1.
        -11    1    4    4    0    0 -0.46267573022E-01  0.17373452772E-01  0.12387901466E-02  0.49440073793E-01  0.51100000000E-03 0. -1.
         11    1    4    4    0    0 -0.71753136122E-01  0.19313138533E-01  0.25800768979E-01  0.78660350014E-01  0.51100000000E-03 0.  1.
</event>
<event>
 8    1  0.1132255E+005  0.1043930E+01  0.7957747E-01            NaN
         13   -1    0    0    0    0  0.00000000000E+00  0.00000000000E+00  0.74505805969E-08  0.10566000000E+00  0.10566000000E+00 0.  1.
     999900   -1    0    0    0    0 -0.00000000000E+00 -0.00000000000E+00 -0.74505805969E-08  0.93827000000E+00  0.93827000000E+00 0.  1.
     999902    2    1    2    0    0  0.20319163413E-01  0.69478120994E-02  0.99376160485E-02  0.10202678634E+01  0.10199934394E+01 0.  0.
     999903    2    3    3    0    0  0.11432281149E+00 -0.33451493501E-01  0.55899375900E-01  0.13314821359E+00  0.20371522103E-01 0.  0.
         14    1    1    2    0    0 -0.20319163413E-01 -0.69478120994E-02 -0.99376160485E-02  0.23662136580E-01  0.00000000000E+00 0.  1.
     999901    1    3    3    0    0 -0.94003648074E-01  0.40399305600E-01 -0.45961759851E-01  0.88711964983E+00  0.88000000000E+00 0. -1.
        -11    1    4    4    0    0  0.22012819394E-01 -0.14979441709E-01  0.10421278456E-01  0.28597413471E-01  0.51100000000E-03 0. -1.
         11    1    4    4    0    0  0.92309992093E-01 -0.18472051792E-01  0.45478097444E-01  0.10455080012E+00  0.51100000000E-03 0.  1.
</event>
<event>
 8    1  0.1132255E+005  0.1043930E+01  0.7957747E-01            NaN
         13   -1    0    0    0    0  0.00000000000E+00  0.00000000000E+00  0.74505805969E-08  0.10566000000E+00  0.10566000000E+00 0. -1.
     999900   -1    0    0    0    0 -0.00000000000E+00 -0.00000000000E+00 -0.74505805969E-08  0.93827000000E+00  0.93827000000E+00 0.  1.
     999902    2    1    2    0    0  0.14282348098E-01 -0.13201827287E-01  0.10578240089E-01  0.10217901519E+01  0.10215502639E+01 0.  0.
     999903    2    3    3    0    0  0.11322752645E+00  0.31830816290E-01 -0.57598536202E-01  0.13248359050E+00  0.20015912852E-01 0.  0.
         14    1    1    2    0    0 -0.14282348098E-01  0.13201827287E-01 -0.10578240089E-01  0.22139848109E-01  0.00000000000E+00 0.  1.
     999901    1    3    3    0    0 -0.98945178354E-01 -0.45032643577E-01  0.68176776291E-01  0.88930656139E+00  0.88000000000E+00 0.  1.
        -11    1    4    4    0    0  0.30217056811E-01  0.17756284208E-01 -0.18844230099E-01  0.39796008345E-01  0.51100000000E-03 0.  1.
         11    1    4    4    0    0  0.83010469641E-01  0.14074532082E-01 -0.38754306103E-01  0.92687582156E-01  0.51100000000E-03 0. -1.
</event>
<event>
 8    1  0.1132255E+005  0.1043930E+01  0.7957747E-01            NaN
         13   -1    0    0    0    0  0.00000000000E+00  0.00000000000E+00  0.74505805969E-08  0.10566000000E+00  0.10566000000E+00 0.  1.
     999900   -1    0    0    0    0 -0.00000000000E+00 -0.00000000000E+00 -0.74505805969E-08  0.93827000000E+00  0.93827000000E+00 0.  1.
     999902    2    1    2    0    0  0.23214031735E-02 -0.23663760430E-01  0.17521227100E-02  0.10200881795E+01  0.10198095222E+01 0.  0.
     999903    2    3    3    0    0 -0.77963343586E-01 -0.23816061613E-02 -0.10158830147E+00  0.13015682602E+00  0.23165952907E-01 0.  0.
         14    1    1    2    0    0 -0.23214031735E-02  0.23663760430E-01 -0.17521227100E-02  0.23841820492E-01  0.00000000000E+00 0.  1.
     999901    1    3    3    0    0  0.80284746759E-01 -0.21282154268E-01  0.10334042418E+00  0.88993135349E+00  0.88000000000E+00 0. -1.
        -11    1    4    4    0    0 -0.49382103068E-01  0.55320081343E-02 -0.76932284486E-01  0.91586203844E-01  0.51100000000E-03 0.  1.
         11    1    4    4    0    0 -0.28581240518E-01 -0.79136142956E-02 -0.24656016979E-01  0.38570622176E-01  0.51100000000E-03 0. -1.
</event>
<event>
 7    1  0.1132255E+005  0.1043930E+01  0.7957747E-01            NaN
         13   -1    0    0    0    0  0.00000000000E+00  0.00000000000E+00  0.74505805969E-08  0.10566000000E+00  0.10566000000E+00 0.  1.
     999900   -1    0    0    0    0 -0.00000000000E+00 -0.00000000000E+00 -0.74505805969E-08  0.93827000000E+00  0.93827000000E+00 0.  1.
     999902    2    1    2    0    0  0.20778125669E-01 -0.13547891355E-03  0.10142688600E-01  0.10208080841E+01  0.10205461879E+01 0.  0.
         14    1    1    2    0    0 -0.20778125669E-01  0.13547891355E-03 -0.10142688600E-01  0.23121915857E-01  0.00000000000E+00 0.  1.
     999901    1    3    3    0    0 -0.94703157564E-01  0.42529428947E-01  0.38121426744E-01  0.88692202789E+00  0.88000000000E+00 0. -1.
        -11    1    3    3    0    0  0.27043993371E-01 -0.21284660994E-01  0.91516865122E-02  0.35615008888E-01  0.51100000000E-03 0.  1.
         11    1    3    3    0    0  0.88437289862E-01 -0.21380246866E-01 -0.37130424657E-01  0.98271047366E-01  0.51100000000E-03 0. -1.
</event>
<event>
 8    1  0.1132255E+005  0.1043930E+01  0.7957747E-01            NaN
         13   -1    0    0    0    0  0.00000000000E+00  0.00000000000E+00  0.74505805969E-08  0.10566000000E+00  0.10566000000E+00 0. -1.
     999900   -1    0    0    0    0 -0.00000000000E+00 -0.00000000000E+00 -0.74505805969E-08  0.93827000000E+00  0.93827000000E+00 0.  1.
     999902    2    1    2    0    0  0.48672453619E-02  0.68797278832E-02 -0.21933465259E-01  0.10204332421E+01  0.10201626850E+01 0.  0.
     999903    2    3    3    0    0  0.37158671502E-01  0.77298281017E-01  0.94781423399E-01  0.12935306947E+00  0.19821888023E-01 0.  0.
         14    1    1    2    0    0 -0.48672453619E-02 -0.68797278832E-02  0.21933465259E-01  0.23496757892E-01  0.00000000000E+00 0. -1.
     999901    1    3    3    0    0 -0.32291426140E-01 -0.70418553134E-01 -0.11671488866E+00  0.89108017263E+00  0.88000000000E+00 0.  1.
        -11    1    4    4    0    0  0.27502632050E-02  0.25078651140E-01  0.31810449056E-01  0.40603798847E-01  0.51100000000E-03 0.  1.
         11    1    4    4    0    0  0.34408408297E-01  0.52219629877E-01  0.62970974343E-01  0.88749270627E-01  0.51100000000E-03 0. -1.
</event>
<event>
 8    1  0.1132255E+005  0.1043930E+01  0.7957747E-01            NaN
         13   -1    0    0    0    0  0.00000000000E+00  0.00000000000E+00  0.74505805969E-08  0.10566000000E+00  0.10566000000E+00 0.  1.
     999900   -1    0    0    0    0 -0.00000000000E+00 -0.00000000000E+00 -0.74505805969E-08  0.93827000000E+00  0.93827000000E+00 0. -1.
     999902    2    1    2    0    0  0.10931853107E-01 -0.10102775565E-01 -0.17890004551E-01  0.10206571886E+01  0.10203918232E+01 0.  0.
     999903    2    3    3    0    0 -0.64229240732E-01 -0.54621403888E-01 -0.10011040475E+00  0.13251795826E+00  0.20736995833E-01 0.  0.
         14    1    1    2    0    0 -0.10931853107E-01  0.10102775565E-01  0.17890004551E-01  0.23272811376E-01  0.00000000000E+00 0.  1.
     999901    1    3    3    0    0  0.75161093839E-01  0.44518628323E-01  0.82220400197E-01  0.88813923036E+00  0.88000000000E+00 0.  1.
        -11    1    4    4    0    0 -0.58032627096E-01 -0.55378021025E-01 -0.95616925395E-01  0.12480932883E+00  0.51100000000E-03 0. -1.
         11    1    4    4    0    0 -0.61966136361E-02  0.75661713741E-03 -0.44934793533E-02  0.77086294337E-02  0.51100000000E-03 0.  1.
</event>
<event>
 8    1  0.1132255E+005  0.1043930E+01  0.7957747E-01            NaN
         13   -1    0    0    0    0  0.00000000000E+00  0.00000000000E+00  0.74505805969E-08  0.10566000000E+00  0.10566000000E+00 0.  1.
     999900   -1    0    0    0    0 -0.00000000000E+00 -0.00000000000E+00 -0.74505805969E-08  0.93827000000E+00  0.93827000000E+00 0. -1.
     999902    2    1    2    0    0  0.19203755990E-01 -0.28215246482E-02 -0.12846297004E-01  0.10206539911E+01  0.10203885519E+01 0.  0.
     999903    2    3    3    0    0  0.12960763063E+00 -0.73523436336E-02  0.24781174639E-01  0.13294606022E+00  0.14434453154E-01 0.  0.
         14    1    1    2    0    0 -0.19203755990E-01  0.28215246482E-02  0.12846297004E-01  0.23276008940E-01  0.00000000000E+00 0.  1.
     999901    1    3    3    0    0 -0.11040387464E+00  0.45308189854E-02 -0.37627471643E-01  0.88770793084E+00  0.88000000000E+00 0. -1.
        -11    1    4    4    0    0  0.72229353267E-01 -0.10863938508E-01  0.16239529687E-01  0.74827054457E-01  0.51100000000E-03 0.  1.
         11    1    4    4    0    0  0.57378277359E-01  0.35115948747E-02  0.85416449524E-02  0.58119005762E-01  0.51100000000E-03 0. -1.
</event>
<event>
 8    1  0.1132255E+005  0.1043930E+01  0.7957747E-01            NaN
         13   -1    0    0    0    0  0.00000000000E+00  0.00000000000E+00  0.74505805969E-08  0.10566000000E+00  0.10566000000E+00 0.  1.
     999900   -1    0    0    0    0 -0.00000000000E+00 -0.00000000000E+00 -0.74505805969E-08  0.93827000000E+00  0.93827000000E+00 0.  1.
     999902    2    1    2    0    0 -0.65848601546E-02 -0.20478587796E-01  0.76111829916E-02  0.10211119578E+01  0.10208569770E+01 0.  0.
     999903    2    3    3    0    0 -0.17717690447E-01 -0.10073153425E+00 -0.82503311416E-01  0.13280733812E+00  0.19241468634E-01 0.  0.
         14    1    1    2    0    0  0.65848601546E-02  0.20478587796E-01 -0.76111829916E-02  0.22818042158E-01  0.00000000000E+00 0.  1.
     999901    1    3    3    0    0  0.11132830293E-01  0.80252946457E-01  0.90114494407E-01  0.88830461973E+00  0.88000000000E+00 0. -1.
        -11    1    4    4    0    0 -0.12726558129E-01 -0.71161212344E-01 -0.46535039369E-01  0.85974731370E-01  0.51100000000E-03 0. -1.
         11    1    4    4    0    0 -0.49911323180E-02 -0.29570321909E-01 -0.35968272046E-01  0.46832606746E-01  0.51100000000E-03 0.  1.
</event>
<event>
 8    1  0.1132255E+005  0.1043930E+01  0.7957747E-01            NaN
         13   -1    0    0    0    0  0.00000000000E+00  0.00000000000E+00  0.74505805969E-08  0.10566000000E+00  0.10566000000E+00 0.  1.
     999900   -1    0    0    0    0 -0.00000000000E+00 -0.00000000000E+00 -0.74505805969E-08  0.93827000000E+00  0.93827000000E+00 0. -1.
     999902    2    1    2    0    0  0.56154024128E-02 -0.13791873132E-01  0.18793065733E-01  0.10199523473E+01  0.10196704678E+01 0.  0.
     999903    2    3    3    0    0  0.62818042747E-01 -0.11265695318E+00  0.21820979493E-01  0.13256538867E+00  0.21441350959E-01 0.  0.
         14    1    1    2    0    0 -0.56154024128E-02  0.13791873132E-01 -0.18793065733E-01  0.23977652687E-01  0.00000000000E+00 0. -1.
     999901    1    3    3    0    0 -0.57202640334E-01  0.98865080052E-01 -0.30279137605E-02  0.88738695865E+00  0.88000000000E+00 0.  1.
        -11    1    4    4    0    0  0.48777591890E-01 -0.10219121540E+00  0.18715550288E-01  0.11477295378E+00  0.51100000000E-03 0.  1.
         11    1    4    4    0    0  0.14040450857E-01 -0.10465737780E-01  0.31054292055E-02  0.17792434884E-01  0.51100000000E-03 0. -1.
</event>
<event>
 8    1  0.1132255E+005  0.1043930E+01  0.7957747E-01            NaN
         13   -1    0    0    0    0  0.00000000000E+00  0.00000000000E+00  0.74505805969E-08  0.10566000000E+00  0.10566000000E+00 0.  1.
     999900   -1    0    0    0    0 -0.00000000000E+00 -0.00000000000E+00 -0.74505805969E-08  0.93827000000E+00  0.93827000000E+00 0.  1.
     999902    2    1    2    0    0 -0.85126220212E-03 -0.14365463910E-01 -0.19245318517E-01  0.10198993220E+01  0.10196161795E+01 0.  0.
     999903    2    3    3    0    0 -0.96394438648E-01  0.82880320563E-01 -0.13897101858E-01  0.12938607415E+00  0.19661927798E-01 0.  0.
         14    1    1    2    0    0  0.85126220212E-03  0.14365463910E-01  0.19245318517E-01  0.24030678007E-01  0.00000000000E+00 0.  1.
     999901    1    3    3    0    0  0.95543176446E-01 -0.97245784473E-01 -0.53482166594E-02  0.89051324784E+00  0.88000000000E+00 0.  1.
        -11    1    4    4    0    0 -0.25145784252E-01  0.25371309764E-01 -0.12381668769E-01  0.37809795917E-01  0.51100000000E-03 0.  1.
         11    1    4    4    0    0 -0.71248654396E-01  0.57509010799E-01 -0.15154330884E-02  0.91576278232E-01  0.51100000000E-03 0. -1.
</event>
<event>
 7    1  0.1132255E+005  0.1043930E+01  0.7957747E-01            NaN
         13   -1    0    0    0    0  0.00000000000E+00  0.00000000000E+00  0.74505805969E-08  0.10566000000E+00  0.10566000000E+00 0.  1.
     999900   -1    0    0    0    0 -0.00000000000E+00 -0.00000000000E+00 -0.74505805969E-08  0.93827000000E+00  0.93827000000E+00 0.  1.
     999903    2    1    2    0    0  0.37646105991E-01  0.99829346088E-01  0.23769880819E-01  0.11130419952E+00  0.20987852693E-01 0.  0.
         14    1    1    2    0    0 -0.24883877273E-01  0.18399610202E-01 -0.32099478516E-01  0.44588446090E-01  0.00000000000E+00 0. -1.
     999901    1    1    2    0    0 -0.12762228719E-01 -0.11822895629E+00  0.83295976969E-02  0.88803735439E+00  0.88000000000E+00 0. -1.
        -11    1    3    3    0    0  0.19714364233E-01  0.46256281856E-01  0.21706425997E-01  0.54769789290E-01  0.51100000000E-03 0.  1.
         11    1    3    3    0    0  0.17931741759E-01  0.53573064232E-01  0.20634548229E-02  0.56534410234E-01  0.51100000000E-03 0. -1.
</event>
<event>
 8    1  0.1132255E+005  0.1043930E+01  0.7957747E-01            NaN
         13   -1    0    0    0    0  0.00000000000E+00  0.00000000000E+00  0.74505805969E-08  0.10566000000E+00  0.10566000000E+00 0.  1.
     999900   -1    0    0    0    0 -0.00000000000E+00 -0.00000000000E+00 -0.74505805969E-08  0.93827000000E+00  0.93827000000E+00 0.  1.
     999902    2    1    2    0    0  0.14452997583E-01 -0.87364591989E-02  0.16141148950E-01  0.10205686741E+01  0.10203012629E+01 0.  0.
     999903    2    3    3    0    0  0.54368345199E-01 -0.10998178069E+00 -0.44976665064E-01  0.13176091238E+00  0.16915335866E-01 0.  0.
         14    1    1    2    0    0 -0.14452997583E-01  0.87364591989E-02 -0.16141148950E-01  0.23361325902E-01  0.00000000000E+00 0. -1.
     999901    1    3    3    0    0 -0.39915347617E-01  0.10124532149E+00  0.61117814014E-01  0.88880776172E+00  0.88000000000E+00 0. -1.
        -11    1    4    4    0    0  0.21378469375E-01 -0.57386025285E-01 -0.16316286511E-01  0.63377260728E-01  0.51100000000E-03 0.  1.
         11    1    4    4    0    0  0.32989875824E-01 -0.52595755406E-01 -0.28660378553E-01  0.68383651653E-01  0.51100000000E-03 0. -1.
</event>
<event>
 8    1  0.1132255E+005  0.1043930E+01  0.7957747E-01            NaN
         13   -1    0    0    0    0  0.00000000000E+00  0.00000000000E+00  0.74505805969E-08  0.10566000000E+00  0.10566000000E+00 0. -1.
     999900   -1    0    0    0    0 -0.00000000000E+00 -0.00000000000E+00 -0.74505805969E-08  0.93827000000E+00  0.93827000000E+00 0.  1.
     999902    2    1    2    0    0  0.10479813298E-01  0.97820867746E-02  0.18776365423E-01  0.10203065454E+01  0.10200330284E+01 0.  0.
     999903    2    3    3    0    0 -0.44626069802E-01  0.11792627506E+00  0.32783599200E-01  0.13186519877E+00  0.20385627630E-01 0.  0.
         14    1    1    2    0    0 -0.10479813298E-01 -0.97820867746E-02 -0.18776365423E-01  0.23623454593E-01  0.00000000000E+00 0.  1.
     999901    1    3    3    0    0  0.55105883100E-01 -0.10814418829E+00 -0.14007233777E-01  0.88844134664E+00  0.88000000000E+00 0.  1.
        -11    1    4    4    0    0 -0.66445493524E-02  0.37336647125E-01  0.16201598395E-01  0.41242310389E-01  0.51100000000E-03 0.  1.
         11    1    4    4    0    0 -0.37981520450E-01  0.80589627940E-01  0.16582000805E-01  0.90622888383E-01  0.51100000000E-03 0. -1.
</event>
<event>
 8    1  0.1132255E+005  0.1043930E+01  0.7957747E-01            NaN
         13   -1    0    0    0    0  0.00000000000E+00  0.00000000000E+00  0.74505805969E-08  0.10566000000E+00  0.10566000000E+00 0.  1.
     999900   -1    0    0    0    0 -0.00000000000E+00 -0.00000000000E+00 -0.74505805969E-08  0.93827000000E+00  0.93827000000E+00 0. -1.
     999902    2    1    2    0    0  0.22167964382E-01 -0.14649558593E-01 -0.75018438114E-02  0.10163201128E+01  0.10159450112E+01 0.  0.
     999903    2    3    3    0    0 -0.62242149884E-01 -0.88151579859E-03  0.10659206555E+00  0.12484266127E+00  0.18680453503E-01 0.  0.
         14    1    1    2    0    0 -0.22167964382E-01  0.14649558593E-01  0.75018438114E-02  0.27609887222E-01  0.00000000000E+00 0. -1.
     999901    1    3    3    0    0  0.84410114266E-01 -0.13768042795E-01 -0.11409390936E+00  0.89147745151E+00  0.88000000000E+00 0. -1.
        -11    1    4    4    0    0 -0.13391471435E-01  0.75966196724E-02  0.24776119595E-01  0.29174601297E-01  0.51100000000E-03 0. -1.
         11    1    4    4    0    0 -0.48850678448E-01 -0.84781354710E-02  0.81815945953E-01  0.95668059974E-01  0.51100000000E-03 0.  1.
</event>
<event>
 8    1  0.1132255E+005  0.1043930E+01  0.7957747E-01            NaN
         13   -1    0    0    0    0  0.00000000000E+00  0.00000000000E+00  0.74505805969E-08  0.10566000000E+00  0.10566000000E+00 0.  1.
     999900   -1    0    0    0    0 -0.00000000000E+00 -0.00000000000E+00 -0.74505805969E-08  0.93827000000E+00  0.93827000000E+00 0. -1.
     999902    2    1    2    0    0  0.21596459496E-01 -0.90331368807E-02  0.40966664968E-03  0.10205169171E+01  0.10202483059E+01 0.  0.
     999903    2    3    3    0    0  0.86412373753E-01 -0.64219267980E-01  0.75817815501E-01  0.13319904805E+00  0.20060721216E-01 0.  0.
         14    1    1    2    0    0 -0.21596459496E-01  0.90331368807E-02 -0.40966664968E-03  0.23413082912E-01  0.00000000000E+00 0. -1.
     999901    1    3    3    0    0 -0.64815914257E-01  0.55186131099E-01 -0.75408148852E-01  0.88731786904E+00  0.88000000000E+00 0. -1.
        -11    1    4    4    0    0  0.63452435138E-01 -0.56332523202E-01  0.63430124821E-01  0.10593963635E+00  0.51100000000E-03 0. -1.
         11    1    4    4    0    0  0.22959938615E-01 -0.78867447783E-02  0.12387690681E-01  0.27259411692E-01  0.51100000000E-03 0.  1.
</event>
<event>
 8    1  0.1132255E+005  0.1043930E+01  0.7957747E-01            NaN
         13   -1    0    0    0    0  0.00000000000E+00  0.00000000000E+00  0.74505805969E-08  0.10566000000E+00  0.10566000000E+00 0.  1.
     999900   -1    0    0    0    0 -0.00000000000E+00 -0.00000000000E+00 -0.74505805969E-08  0.93827000000E+00  0.93827000000E+00 0. -1.
     999902    2    1    2    0    0  0.13413180156E-01  0.14260994877E-01  0.13540007362E-01  0.10201261941E+01  0.10198484352E+01 0.  0.
     999903    2    3    3    0    0  0.81741389668E-02  0.11377565730E+00  0.65331464613E-01  0.13298867902E+00  0.20151221711E-01 0.  0.
         14    1    1    2    0    0 -0.13413180156E-01 -0.14260994877E-01 -0.13540007362E-01  0.23803805917E-01  0.00000000000E+00 0. -1.
     999901    1    3    3    0    0  0.52390411891E-02 -0.99514662425E-01 -0.51791457251E-01  0.88713751506E+00  0.88000000000E+00 0. -1.
        -11    1    4    4    0    0  0.11327403823E-01  0.31870383580E-01  0.20688910463E-01  0.39652535405E-01  0.51100000000E-03 0.  1.
         11    1    4    4    0    0 -0.31532648564E-02  0.81905273721E-01  0.44642554150E-01  0.93336143614E-01  0.51100000000E-03 0. -1.
</event>
<event>
 8    1  0.1132255E+005  0.1043930E+01  0.7957747E-01            NaN
         13   -1    0    0    0    0  0.00000000000E+00  0.00000000000E+00  0.74505805969E-08  0.10566000000E+00  0.10566000000E+00 0. -1.
     999900   -1    0    0    0    0 -0.00000000000E+00 -0.00000000000E+00 -0.74505805969E-08  0.93827000000E+00  0.93827000000E+00 0.  1.
     999902    2    1    2    0    0 -0.13658571669E-01 -0.18921257390E-01  0.60477885495E-02  0.10198230237E+01  0.10195380588E+01 0.  0.
     999903    2    3    3    0    0  0.66375871324E-01  0.85620342263E-01  0.65105243360E-01  0.12807068076E+00  0.20659313974E-01 0.  0.
         14    1    1    2    0    0  0.13658571669E-01  0.18921257390E-01 -0.60477885495E-02  0.24106976327E-01  0.00000000000E+00 0. -1.
     999901    1    3    3    0    0 -0.80034442994E-01 -0.10454159965E+00 -0.59057454811E-01  0.89175234291E+00  0.88000000000E+00 0.  1.
        -11    1    4    4    0    0  0.38287729428E-01  0.36676775820E-01  0.23705308075E-01  0.58080451628E-01  0.51100000000E-03 0.  1.
         11    1    4    4    0    0  0.28088141896E-01  0.48943566443E-01  0.41399935285E-01  0.69990229132E-01  0.51100000000E-03 0. -1.
</event>
<event>
 8    1  0.1132255E+005  0.1043930E+01  0.7957747E-01            NaN
         13   -1    0    0    0    0  0.00000000000E+00  0.00000000000E+00  0.74505805969E-08  0.10566000000E+00  0.10566000000E+00 0.  1.
     999900   -1    0    0    0    0 -0.00000000000E+00 -0.00000000000E+00 -0.74505805969E-08  0.93827000000E+00  0.93827000000E+00 0. -1.
     999902    2    1    2    0    0 -0.35109303724E-01 -0.13531454873E-01 -0.36276985638E-02  0.10061288932E+01  0.10054185328E+01 0.  0.
     999903    2    3    3    0    0 -0.41130762247E-01  0.83729560376E-01  0.68436280264E-01  0.11782197546E+00  0.22273629268E-01 0.  0.
         14    1    1    2    0    0  0.35109303724E-01  0.13531454873E-01  0.36276985638E-02  0.37801106807E-01  0.00000000000E+00 0. -1.
     999901    1    3    3    0    0  0.60214585229E-02 -0.97261015249E-01 -0.72063978828E-01  0.88830691773E+00  0.88000000000E+00 0. -1.
        -11    1    4    4    0    0 -0.71953585939E-02  0.48125927525E-02  0.12451067457E-02  0.87604592405E-02  0.51100000000E-03 0.  1.
         11    1    4    4    0    0 -0.33935403653E-01  0.78916967623E-01  0.67191173519E-01  0.10906151622E+00  0.51100000000E-03 0. -1.
</event>
<event>
 8    1  0.1132255E+005  0.1043930E+01  0.7957747E-01            NaN
         13   -1    0    0    0    0  0.00000000000E+00  0.00000000000E+00  0.74505805969E-08  0.10566000000E+00  0.10566000000E+00 0.  1.
     999900   -1    0    0    0    0 -0.00000000000E+00 -0.00000000000E+00 -0.74505805969E-08  0.93827000000E+00  0.93827000000E+00 0.  1.
     999902    2    1    2    0    0 -0.13341368192E-01 -0.15098894558E-01 -0.12746248943E-01  0.10200881128E+01  0.10198094539E+01 0.  0.
     999903    2    3    3    0    0 -0.14104292552E-01  0.99215198877E-01  0.77336942268E-01  0.12813336321E+00  0.19863770338E-01 0.  0.
         14    1    1    2    0    0  0.13341368192E-01  0.15098894558E-01  0.12746248943E-01  0.23841887179E-01  0.00000000000E+00 0.  1.
     999901    1    3    3    0    0  0.76292436052E-03 -0.11431409344E+00 -0.90083191211E-01  0.89195474961E+00  0.88000000000E+00 0.  1.
        -11    1    4    4    0    0 -0.18720348307E-01  0.68196325852E-01  0.55846205271E-01  0.90112430134E-01  0.51100000000E-03 0. -1.
         11    1    4    4    0    0  0.46160557544E-02  0.31018873025E-01  0.21490736997E-01  0.38020933078E-01  0.51100000000E-03 0.  1.
</event>
<event>
 8    1  0.1132255E+005  0.1043930E+01  0.7957747E-01            NaN
         13   -1    0    0    0    0  0.00000000000E+00  0.00000000000E+00  0.74505805969E-08  0.10566000000E+00  0.10566000000E+00 0.  1.
     999900   -1    0    0    0    0 -0.00000000000E+00 -0.00000000000E+00 -0.74505805969E-08  0.93827000000E+00  0.93827000000E+00 0. -1.
     999902    2    1    2    0    0 -0.83400087444E-02  0.56726579185E-02 -0.18998456726E-01  0.10224200918E+01  0.10221938015E+01 0.  0.
     999903    2    3    3    0    0 -0.89474143847E-01  0.34041148981E-01 -0.92982254533E-01  0.13514272731E+00  0.21294009610E-01 0.  0.
         14    1    1    2    0    0  0.83400087444E-02 -0.56726579185E-02  0.18998456726E-01  0.21509908221E-01  0.00000000000E+00 0.  1.
     999901    1    3    3    0    0  0.81134135102E-01 -0.28368491062E-01  0.73983797808E-01  0.88727736447E+00  0.88000000000E+00 0.  1.
        -11    1    4    4    0    0 -0.42637077233E-01  0.19815458562E-01 -0.59496017941E-01  0.75832776719E-01  0.51100000000E-03 0.  1.
         11    1    4    4    0    0 -0.46837066614E-01  0.14225690419E-01 -0.33486236592E-01  0.59309950590E-01  0.51100000000E-03 0. -1.
</event>
<event>
 8    1  0.1132255E+005  0.1043930E+01  0.7957747E-01            NaN
         13   -1    0    0    0    0  0.00000000000E+00  0.00000000000E+00  0.74505805969E-08  0.10566000000E+00  0.10566000000E+00 0. -1.
     999900   -1    0    0    0    0 -0.00000000000E+00 -0.00000000000E+00 -0.74505805969E-08  0.93827000000E+00  0.93827000000E+00 0.  1.
     999902    2    1    2    0    0  0.18933276774E-01  0.26054109033E-02 -0.13496996555E-01  0.10205328623E+01  0.10202646211E+01 0.  0.
     999903    2    3    3    0    0  0.96333129658E-01 -0.88557991746E-01  0.51874576978E-03  0.13233359175E+00  0.19731209734E-01 0.  0.
         14    1    1    2    0    0 -0.18933276774E-01 -0.26054109033E-02  0.13496996555E-01  0.23397137675E-01  0.00000000000E+00 0. -1.
     999901    1    3    3    0    0 -0.77399852885E-01  0.91163402650E-01 -0.14015742325E-01  0.88819927057E+00  0.88000000000E+00 0. -1.
        -11    1    4    4    0    0  0.38989665904E-01 -0.23512197375E-01  0.24230604163E-02  0.45597695287E-01  0.51100000000E-03 0.  1.
         11    1    4    4    0    0  0.57343463754E-01 -0.65045794371E-01 -0.19043146465E-02  0.86735896467E-01  0.51100000000E-03 0. -1.
</event>
<event>
 7    1  0.1481616E+005  0.1043930E+01  0.7957747E-01            NaN
         13   -1    0    0    0    0  0.00000000000E+00  0.00000000000E+00  0.74505805969E-08  0.10566000000E+00  0.10566000000E+00 0. -1.
     999900   -1    0    0    0    0 -0.00000000000E+00 -0.00000000000E+00 -0.74505805969E-08  0.93827000000E+00  0.93827000000E+00 0. -1.
     999903    2    1    2    0    0 -0.48945585856E-01  0.68866400073E-01  0.63674047329E-01  0.10760594316E+00  0.19657142886E-01 0.  0.
         14    1    1    2    0    0  0.32987907074E-01 -0.34397761270E-01  0.19694311754E-01  0.51568148202E-01  0.00000000000E+00 0. -1.
     999901    1    1    2    0    0  0.15957678782E-01 -0.34468638803E-01 -0.83368359082E-01  0.88475590864E+00  0.88000000000E+00 0. -1.
        -11    1    3    3    0    0 -0.18841821440E-01  0.18031088642E-01  0.29394155694E-01  0.39299006384E-01  0.51100000000E-03 0. -1.
         11    1    3    3    0    0 -0.30103764416E-01  0.50835311431E-01  0.34279891634E-01  0.68306936776E-01  0.51100000000E-03 0.  1.
</event>
<event>
 8    1  0.1132255E+005  0.1043930E+01  0.7957747E-01            NaN
         13   -1    0    0    0    0  0.00000000000E+00  0.00000000000E+00  0.74505805969E-08  0.10566000000E+00  0.10566000000E+00 0.  1.
     999900   -1    0    0    0    0 -0.00000000000E+00 -0.00000000000E+00 -0.74505805969E-08  0.93827000000E+00  0.93827000000E+00 0. -1.
     999902    2    1    2    0    0 -0.18353145336E-01  0.25798977978E-02  0.14729743193E-01  0.10202559815E+01  0.10199812786E+01 0.  0.
     999903    2    3    3    0    0  0.89888453358E-01 -0.71025180990E-01 -0.53241138474E-01  0.12798136457E+00  0.20496352562E-01 0.  0.
         14    1    1    2    0    0  0.18353145336E-01 -0.25798977978E-02 -0.14729743193E-01  0.23674018478E-01  0.00000000000E+00 0. -1.
     999901    1    3    3    0    0 -0.10824159869E+00  0.73605078788E-01  0.67970881666E-01  0.89227461696E+00  0.88000000000E+00 0.  1.
        -11    1    4    4    0    0  0.36925249689E-01 -0.41646158213E-01 -0.22229373774E-01  0.59935654980E-01  0.51100000000E-03 0.  1.
         11    1    4    4    0    0  0.52963203669E-01 -0.29379022777E-01 -0.31011764700E-01  0.68045709586E-01  0.51100000000E-03 0. -1.
</event>
<event>
 8    1  0.1132255E+005  0.1043930E+01  0.7957747E-01            NaN
         13   -1    0    0    0    0  0.00000000000E+00  0.00000000000E+00  0.74505805969E-08  0.10566000000E+00  0.10566000000E+00 0. -1.
     999900   -1    0    0    0    0 -0.00000000000E+00 -0.00000000000E+00 -0.74505805969E-08  0.93827000000E+00  0.93827000000E+00 0.  1.
     999902    2    1    2    0    0 -0.20102510279E-01  0.28466727462E-02 -0.10104336670E-01  0.10212515502E+01  0.10209997144E+01 0.  0.
     999903    2    3    3    0    0  0.21288735877E-01 -0.46132034089E-01  0.11774949608E+00  0.12970303693E+00  0.19405131231E-01 0.  0.
         14    1    1    2    0    0  0.20102510279E-01 -0.28466727462E-02  0.10104336670E-01  0.22678449788E-01  0.00000000000E+00 0. -1.
     999901    1    3    3    0    0 -0.41391246156E-01  0.48978706835E-01 -0.12785383275E+00  0.89154851328E+00  0.88000000000E+00 0.  1.
        -11    1    4    4    0    0  0.95002192560E-02 -0.39051206105E-01  0.94392967592E-01  0.10259407544E+00  0.51100000000E-03 0.  1.
         11    1    4    4    0    0  0.11788516621E-01 -0.70808279838E-02  0.23356528488E-01  0.27108961490E-01  0.51100000000E-03 0. -1.
</event>
<event>
 8    1  0.1132255E+005  0.1043930E+01  0.7957747E-01            NaN
         13   -1    0    0    0    0  0.00000000000E+00  0.00000000000E+00  0.74505805969E-08  0.10566000000E+00  0.10566000000E+00 0. -1.
     999900   -1    0    0    0    0 -0.00000000000E+00 -0.00000000000E+00 -0.74505805969E-08  0.93827000000E+00  0.93827000000E+00 0.  1.
     999902    2    1    2    0    0 -0.29091863791E-02  0.77982452461E-02  0.22517118352E-01  0.10199238214E+01  0.10196412628E+01 0.  0.
     999903    2    3    3    0    0  0.11413648926E+00  0.58465420314E-01  0.15488934929E-01  0.13070154983E+00  0.19941024782E-01 0.  0.
         14    1    1    2    0    0  0.29091863791E-02 -0.77982452461E-02 -0.22517118352E-01  0.24006178646E-01  0.00000000000E+00 0.  1.
     999901    1    3    3    0    0 -0.11704567564E+00 -0.50667175068E-01  0.70281834234E-02  0.88922227153E+00  0.88000000000E+00 0.  1.
        -11    1    4    4    0    0  0.78503316664E-01  0.50195692111E-01  0.10195578215E-01  0.93736807978E-01  0.51100000000E-03 0.  1.
         11    1    4    4    0    0  0.35633172595E-01  0.82697282027E-02  0.52933567141E-02  0.36964741850E-01  0.51100000000E-03 0. -1.
</event>
<event>
 8    1  0.1132255E+005  0.1043930E+01  0.7957747E-01            NaN
         13   -1    0    0    0    0  0.00000000000E+00  0.00000000000E+00  0.74505805969E-08  0.10566000000E+00  0.10566000000E+00 0. -1.
     999900   -1    0    0    0    0 -0.00000000000E+00 -0.00000000000E+00 -0.74505805969E-08  0.93827000000E+00  0.93827000000E+00 0.  1.
     999902    2    1    2    0    0  0.11830017564E-02  0.19059320573E-01  0.13674387764E-01  0.10204428530E+01  0.10201725198E+01 0.  0.
     999903    2    3    3    0    0  0.50531745664E-01  0.69381645739E-01  0.10018583828E+00  0.13339614283E+00  0.19749902383E-01 0.  0.
         14    1    1    2    0    0 -0.11830017564E-02 -0.19059320573E-01 -0.13674387764E-01  0.23487147008E-01  0.00000000000E+00 0.  1.
     999901    1    3    3    0    0 -0.49348743908E-01 -0.50322325166E-01 -0.86511450520E-01  0.88704671016E+00  0.88000000000E+00 0.  1.
        -11    1    4    4    0    0  0.20402601011E-01  0.15384191880E-01  0.22073520755E-01  0.33770414971E-01  0.51100000000E-03 0.  1.
         11    1    4    4    0    0  0.30129144653E-01  0.53997453859E-01  0.78112317530E-01  0.99625727860E-01  0.51100000000E-03 0. -1.
</event>
<event>
 8    1  0.1132255E+005  0.1043930E+01  0.7957747E-01            NaN
         13   -1    0    0    0    0  0.00000000000E+00  0.00000000000E+00  0.74505805969E-08  0.10566000000E+00  0.10566000000E+00 0. -1.
     999900   -1    0    0    0    0 -0.00000000000E+00 -0.00000000000E+00 -0.74505805969E-08  0.93827000000E+00  0.93827000000E+00 0. -1.
     999902    2    1    2    0    0  0.97922105703E-02  0.22998250213E-01  0.71225838511E-02  0.10179388842E+01  0.10176070135E+01 0.  0.
     999903    2    3    3    0    0 -0.10077848537E+00  0.60006328860E-01 -0.48537073946E-01  0.12850452787E+00  0.20012584009E-01 0.  0.
         14    1    1    2    0    0 -0.97922105703E-02 -0.22998250213E-01 -0.71225838511E-02  0.25991115817E-01  0.00000000000E+00 0.  1.
     999901    1    3    3    0    0  0.11057069594E+00 -0.37008078647E-01  0.55659657797E-01  0.88943435631E+00  0.88000000000E+00 0.  1.
        -11    1    4    4    0    0 -0.76484276423E-01  0.54913525234E-01 -0.38227583376E-01  0.10162159734E+00  0.51100000000E-03 0.  1.
         11    1    4    4    0    0 -0.24294208947E-01  0.50928036257E-02 -0.10309490570E-01  0.26882930531E-01  0.51100000000E-03 0. -1.
</event>
<event>
 8    1  0.1132255E+005  0.1043930E+01  0.7957747E-01            NaN
         13   -1    0    0    0    0  0.00000000000E+00  0.00000000000E+00  0.74505805969E-08  0.10566000000E+00  0.10566000000E+00 0. -1.
     999900   -1    0    0    0    0 -0.00000000000E+00 -0.00000000000E+00 -0.74505805969E-08  0.93827000000E+00  0.93827000000E+00 0. -1.
     999902    2    1    2    0    0 -0.32553913095E-02  0.15162138396E-01 -0.18930308069E-01  0.10194586989E+01  0.10191649495E+01 0.  0.
     999903    2    3    3    0    0  0.37093363419E-01  0.81856606629E-01 -0.95554466150E-01  0.13269636564E+00  0.20031170599E-01 0.  0.
         14    1    1    2    0    0  0.32553913095E-02 -0.15162138396E-01  0.18930308069E-01  0.24471301088E-01  0.00000000000E+00 0. -1.
     999901    1    3    3    0    0 -0.40348754729E-01 -0.66694468232E-01  0.76624158081E-01  0.88676233327E+00  0.88000000000E+00 0.  1.
        -11    1    4    4    0    0  0.12992091710E-01  0.42841121192E-01 -0.35526814156E-01  0.57153930373E-01  0.51100000000E-03 0.  1.
         11    1    4    4    0    0  0.24101271709E-01  0.39015485437E-01 -0.60027651994E-01  0.75542435272E-01  0.51100000000E-03 0. -1.
</event>
<event>
 8    1  0.1132255E+005  0.1043930E+01  0.7957747E-01            NaN
         13   -1    0    0    0    0  0.00000000000E+00  0.00000000000E+00  0.74505805969E-08  0.10566000000E+00  0.10566000000E+00 0.  1.
     999900   -1    0    0    0    0 -0.00000000000E+00 -0.00000000000E+00 -0.74505805969E-08  0.93827000000E+00  0.93827000000E+00 0. -1.
     999902    2    1    2    0    0 -0.20768557990E-01 -0.12235428012E-01 -0.42644308884E-02  0.10194509463E+01  0.10191570084E+01 0.  0.
     999903    2    3    3    0    0 -0.11665867965E+00 -0.47564479941E-01 -0.37215502670E-01  0.13292467456E+00  0.20306358038E-01 0.  0.
         14    1    1    2    0    0  0.20768557990E-01  0.12235428012E-01  0.42644308884E-02  0.24479053708E-01  0.00000000000E+00 0.  1.
     999901    1    3    3    0    0  0.95890121663E-01  0.35329051930E-01  0.32951071782E-01  0.88652627173E+00  0.88000000000E+00 0.  1.
        -11    1    4    4    0    0 -0.32992375133E-01 -0.10678634352E-01 -0.13594755996E-02  0.34707914709E-01  0.51100000000E-03 0. -1.
         11    1    4    4    0    0 -0.83666304521E-01 -0.36885845589E-01 -0.35856027071E-01  0.98216759850E-01  0.51100000000E-03 0.  1.
</event>
<event>
 8    1  0.1132255E+005  0.1043930E+01  0.7957747E-01            NaN
         13   -1    0    0    0    0  0.00000000000E+00  0.00000000000E+00  0.74505805969E-08  0.10566000000E+00  0.10566000000E+00 0.  1.
     999900   -1    0    0    0    0 -0.00000000000E+00 -0.00000000000E+00 -0.74505805969E-08  0.93827000000E+00  0.93827000000E+00 0. -1.
     999902    2    1    2    0    0  0.13660027461E-01 -0.94521941438E-02 -0.17240352136E-01  0.10199890295E+01  0.10197080221E+01 0.  0.
     999903    2    3    3    0    0 -0.52229368147E-01  0.11540499420E+00  0.86112377756E-02  0.12836184589E+00  0.18878307145E-01 0.  0.
         14    1    1    2    0    0 -0.13660027461E-01  0.94521941438E-02  0.17240352136E-01  0.23940970451E-01  0.00000000000E+00 0.  1.
     999901    1    3    3    0    0  0.65889395608E-01 -0.12485718835E+00 -0.25851589912E-01  0.89162718366E+00  0.88000000000E+00 0. -1.
        -11    1    4    4    0    0 -0.18546989943E-01  0.22154068610E-01  0.30357466773E-02  0.29056332714E-01  0.51100000000E-03 0.  1.
         11    1    4    4    0    0 -0.33682378205E-01  0.93250925593E-01  0.55754910983E-02  0.99305513178E-01  0.51100000000E-03 0. -1.
</event>
<event>
 8    1  0.1132255E+005  0.1043930E+01  0.7957747E-01            NaN
         13   -1    0    0    0    0  0.00000000000E+00  0.00000000000E+00  0.74505805969E-08  0.10566000000E+00  0.10566000000E+00 0. -1.
     999900   -1    0    0    0    0 -0.00000000000E+00 -0.00000000000E+00 -0.74505805969E-08  0.93827000000E+00  0.93827000000E+00 0. -1.
     999902    2    1    2    0    0 -0.14266695330E-01 -0.15393549283E-01  0.10311918428E-01  0.10205454834E+01  0.10202775348E+01 0.  0.
     999903    2    3    3    0    0 -0.21422844383E-01 -0.12952783576E+00 -0.68757839794E-02  0.13297956306E+00  0.19997232044E-01 0.  0.
         14    1    1    2    0    0  0.14266695330E-01  0.15393549283E-01 -0.10311918428E-01  0.23384516605E-01  0.00000000000E+00 0.  1.
     999901    1    3    3    0    0  0.71561490521E-02  0.11413428648E+00  0.17187702408E-01  0.88756592033E+00  0.88000000000E+00 0.  1.
        -11    1    4    4    0    0 -0.22635544448E-01 -0.10525144124E+00  0.19800307869E-03  0.10765934275E+00  0.51100000000E-03 0. -1.
         11    1    4    4    0    0  0.12127000658E-02 -0.24276394522E-01 -0.70737870581E-02  0.25320220315E-01  0.51100000000E-03 0.  1.
</event>
<event>
 8    1  0.1132255E+005  0.1043930E+01  0.7957747E-01            NaN
         13   -1    0    0    0    0  0.00000000000E+00  0.00000000000E+00  0.74505805969E-08  0.10566000000E+00  0.10566000000E+00 0.  1.
     999900   -1    0    0    0    0 -0.00000000000E+00 -0.00000000000E+00 -0.74505805969E-08  0.93827000000E+00  0.93827000000E+00 0.  1.
     999902    2    1    2    0    0  0.11136987455E-01 -0.19115135471E-01 -0.73705703696E-02  0.10206116338E+01  0.10203452165E+01 0.  0.
     999903    2    3    3    0    0  0.12738178535E+00 -0.31022290829E-01  0.55046919463E-02  0.13279385648E+00  0.20381484677E-01 0.  0.
         14    1    1    2    0    0 -0.11136987455E-01  0.19115135471E-01  0.73705703696E-02  0.23318366178E-01  0.00000000000E+00 0.  1.
     999901    1    3    3    0    0 -0.11624479790E+00  0.11907155358E-01 -0.12875262316E-01  0.88781777734E+00  0.88000000000E+00 0.  1.
        -11    1    4    4    0    0  0.81385419676E-01 -0.98279871599E-02  0.52490179756E-02  0.82146145242E-01  0.51100000000E-03 0.  1.
         11    1    4    4    0    0  0.45996365675E-01 -0.21194303669E-01  0.25567397069E-03  0.50647711237E-01  0.51100000000E-03 0. -1.
</event>
<event>
 8    1  0.1132255E+005  0.1043930E+01  0.7957747E-01            NaN
         13   -1    0    0    0    0  0.00000000000E+00  0.00000000000E+00  0.74505805969E-08  0.10566000000E+00  0.10566000000E+00 0.  1.
     999900   -1    0    0    0    0 -0.00000000000E+00 -0.00000000000E+00 -0.74505805969E-08  0.93827000000E+00  0.93827000000E+00 0. -1.
     999902    2    1    2    0    0 -0.13926066384E-01 -0.15415540068E-01  0.15278922894E-01  0.10181420244E+01  0.10178153871E+01 0.  0.
     999903    2    3    3    0    0  0.56396538178E-01  0.11076381796E+00 -0.79902767320E-02  0.12606133593E+00  0.19453097582E-01 0.  0.
         14    1    1    2    0    0  0.13926066384E-01  0.15415540068E-01 -0.15278922894E-01  0.25787975596E-01  0.00000000000E+00 0. -1.
     999901    1    3    3    0    0 -0.70322604561E-01 -0.12617935803E+00  0.23269199626E-01  0.89208068848E+00  0.88000000000E+00 0. -1.
        -11    1    4    4    0    0  0.35175235970E-01  0.49045963435E-01 -0.43731932753E-03  0.60359391349E-01  0.51100000000E-03 0.  1.
         11    1    4    4    0    0  0.21221302207E-01  0.61717854526E-01 -0.75529574044E-02  0.65701944577E-01  0.51100000000E-03 0. -1.
</event>
<event>
 8    1  0.1132255E+005  0.1043930E+01  0.7957747E-01            NaN
         13   -1    0    0    0    0  0.00000000000E+00  0.00000000000E+00  0.74505805969E-08  0.10566000000E+00  0.10566000000E+00 0. -1.
     999900   -1    0    0    0    0 -0.00000000000E+00 -0.00000000000E+00 -0.74505805969E-08  0.93827000000E+00  0.93827000000E+00 0. -1.
     999902    2    1    2    0    0 -0.49018826581E-02 -0.15545399442E-01  0.16937527677E-01  0.10204232405E+01  0.10201524504E+01 0.  0.
     999903    2    3    3    0    0 -0.53192947449E-01 -0.66225869335E-01 -0.96814124955E-01  0.13034460610E+00  0.20034623085E-01 0.  0.
         14    1    1    2    0    0  0.49018826581E-02  0.15545399442E-01 -0.16937527677E-01  0.23506759480E-01  0.00000000000E+00 0. -1.
     999901    1    3    3    0    0  0.48291064791E-01  0.50680469893E-01  0.11375165263E+00  0.89007863442E+00  0.88000000000E+00 0.  1.
        -11    1    4    4    0    0 -0.29674058436E-01 -0.21210171522E-01 -0.41050310957E-01  0.54916393460E-01  0.51100000000E-03 0.  1.
         11    1    4    4    0    0 -0.23518889013E-01 -0.45015697813E-01 -0.55763813999E-01  0.75428212644E-01  0.51100000000E-03 0. -1.
</event>
<event>
 8    1  0.1132255E+005  0.1043930E+01  0.7957747E-01            NaN
         13   -1    0    0    0    0  0.00000000000E+00  0.00000000000E+00  0.74505805969E-08  0.10566000000E+00  0.10566000000E+00 0.  1.
     999900   -1    0    0    0    0 -0.00000000000E+00 -0.00000000000E+00 -0.74505805969E-08  0.93827000000E+00  0.93827000000E+00 0.  1.
     999902    2    1    2    0    0 -0.43602626653E-02 -0.58957287359E-02  0.21072531882E-01  0.10216180501E+01  0.10213743766E+01 0.  0.
     999903    2    3    3    0    0  0.56334757888E-01 -0.12782544731E-01 -0.11376532594E+00  0.12925458064E+00  0.20668788876E-01 0.  0.
         14    1    1    2    0    0  0.43602626653E-02  0.58957287359E-02 -0.21072531882E-01  0.22311949887E-01  0.00000000000E+00 0. -1.
     999901    1    3    3    0    0 -0.60695020553E-01  0.68868159949E-02  0.13483785782E+00  0.89236346948E+00  0.88000000000E+00 0. -1.
        -11    1    4    4    0    0  0.67306386558E-02 -0.90869171429E-02 -0.26311704260E-01  0.28643331893E-01  0.51100000000E-03 0.  1.
         11    1    4    4    0    0  0.49604119232E-01 -0.36956275878E-02 -0.87453621679E-01  0.10061124874E+00  0.51100000000E-03 0. -1.
</event>
<event>
 8    1  0.1132255E+005  0.1043930E+01  0.7957747E-01            NaN
         13   -1    0    0    0    0  0.00000000000E+00  0.00000000000E+00  0.74505805969E-08  0.10566000000E+00  0.10566000000E+00 0.  1.
     999900   -1    0    0    0    0 -0.00000000000E+00 -0.00000000000E+00 -0.74505805969E-08  0.93827000000E+00  0.93827000000E+00 0.  1.
     999902    2    1    2    0    0  0.68910141932E-02  0.22086036950E-01  0.28471295160E-02  0.10206193747E+01  0.10203531363E+01 0.  0.
     999903    2    3    3    0    0 -0.78498348309E-01  0.56536650091E-01 -0.86538717351E-01  0.13131176899E+00  0.19885863931E-01 0.  0.
         14    1    1    2    0    0 -0.68910141932E-02 -0.22086036950E-01 -0.28471295160E-02  0.23310625287E-01  0.00000000000E+00 0.  1.
     999901    1    3    3    0    0  0.85389362502E-01 -0.34450613141E-01  0.89385846867E-01  0.88930760572E+00  0.88000000000E+00 0.  1.
        -11    1    4    4    0    0 -0.18077926937E-01  0.10096636867E-01 -0.29848188445E-01  0.36330827032E-01  0.51100000000E-03 0. -1.
         11    1    4    4    0    0 -0.60420421372E-01  0.46440013224E-01 -0.56690528905E-01  0.94980941960E-01  0.51100000000E-03 0.  1.
</event>
<event>
 8    1  0.1132255E+005  0.1043930E+01  0.7957747E-01            NaN
         13   -1    0    0    0    0  0.00000000000E+00  0.00000000000E+00  0.74505805969E-08  0.10566000000E+00  0.10566000000E+00 0. -1.
     999900   -1    0    0    0    0 -0.00000000000E+00 -0.00000000000E+00 -0.74505805969E-08  0.93827000000E+00  0.93827000000E+00 0. -1.
     999902    2    1    2    0    0  0.12689367105E-01  0.74013903609E-02  0.18054368603E-01  0.10206542435E+01  0.10203888101E+01 0.  0.
     999903    2    3    3    0    0 -0.36001672352E-01  0.13337966064E-01  0.12551926045E+00  0.13276080209E+00  0.19907889790E-01 0.  0.
         14    1    1    2    0    0 -0.12689367105E-01 -0.74013903609E-02 -0.18054368603E-01  0.23275756538E-01  0.00000000000E+00 0.  1.
     999901    1    3    3    0    0  0.48691039457E-01 -0.59365757035E-02 -0.10746489185E+00  0.88789344137E+00  0.88000000000E+00 0. -1.
        -11    1    4    4    0    0 -0.18885933571E-01 -0.35068847819E-02  0.57341492943E-01  0.60475488106E-01  0.51100000000E-03 0.  1.
         11    1    4    4    0    0 -0.17115738782E-01  0.16844850846E-01  0.68177767508E-01  0.72285313982E-01  0.51100000000E-03 0. -1.
</event>
<event>
 8    1  0.1132255E+005  0.1043930E+01  0.7957747E-01            NaN
         13   -1    0    0    0    0  0.00000000000E+00  0.00000000000E+00  0.74505805969E-08  0.10566000000E+00  0.10566000000E+00 0. -1.
     999900   -1    0    0    0    0 -0.00000000000E+00 -0.00000000000E+00 -0.74505805969E-08  0.93827000000E+00  0.93827000000E+00 0. -1.
     999902    2    1    2    0    0  0.22430166869E-02 -0.15297927762E-01 -0.18449631351E-01  0.10198583026E+01  0.10195741811E+01 0.  0.
     999903    2    3    3    0    0  0.53188632928E-01  0.20170680896E-02  0.11481303310E+00  0.12820018281E+00  0.20497684381E-01 0.  0.
         14    1    1    2    0    0 -0.22430166869E-02  0.15297927762E-01  0.18449631351E-01  0.24071697378E-01  0.00000000000E+00 0. -1.
     999901    1    3    3    0    0 -0.50945616241E-01 -0.17314995852E-01 -0.13326266445E+00  0.89165811982E+00  0.88000000000E+00 0.  1.
        -11    1    4    4    0    0  0.36302476146E-01  0.10293426026E-01  0.84183753150E-01  0.92255025929E-01  0.51100000000E-03 0.  1.
         11    1    4    4    0    0  0.16886156781E-01 -0.82763579365E-02  0.30629279953E-01  0.35945156878E-01  0.51100000000E-03 0. -1.
</event>
<event>
 8    1  0.1132255E+005  0.1043930E+01  0.7957747E-01            NaN
         13   -1    0    0    0    0  0.00000000000E+00  0.00000000000E+00  0.74505805969E-08  0.10566000000E+00  0.10566000000E+00 0.  1.
     999900   -1    0    0    0    0 -0.00000000000E+00 -0.00000000000E+00 -0.74505805969E-08  0.93827000000E+00  0.93827000000E+00 0. -1.
     999902    2    1    2    0    0  0.80919434520E-02  0.22771943807E-01  0.70515378177E-02  0.10187553072E+01  0.10184442109E+01 0.  0.
     999903    2    3    3    0    0  0.52476838737E-01  0.50257284020E-01 -0.10643728203E+00  0.12993295423E+00  0.16554890158E-01 0.  0.
         14    1    1    2    0    0 -0.80919434520E-02 -0.22771943807E-01 -0.70515378177E-02  0.25174692831E-01  0.00000000000E+00 0. -1.
     999901    1    3    3    0    0 -0.44384895285E-01 -0.27485340213E-01  0.11348881985E+00  0.88882235294E+00  0.88000000000E+00 0.  1.
        -11    1    4    4    0    0  0.40842425649E-01  0.30495171085E-01 -0.80767896229E-01  0.95507975451E-01  0.51100000000E-03 0.  1.
         11    1    4    4    0    0  0.11634413087E-01  0.19762112935E-01 -0.25669385799E-01  0.34424978778E-01  0.51100000000E-03 0. -1.
</event>
<event>
 8    1  0.1132255E+005  0.1043930E+01  0.7957747E-01            NaN
         13   -1    0    0    0    0  0.00000000000E+00  0.00000000000E+00  0.74505805969E-08  0.10566000000E+00  0.10566000000E+00 0. -1.
     999900   -1    0    0    0    0 -0.00000000000E+00 -0.00000000000E+00 -0.74505805969E-08  0.93827000000E+00  0.93827000000E+00 0.  1.
     999902    2    1    2    0    0  0.16912881328E-01  0.16886865791E-01 -0.69824482295E-02  0.10190308760E+01  0.10187266365E+01 0.  0.
     999903    2    3    3    0    0 -0.58924077300E-02  0.99348539703E-01 -0.83783194470E-01  0.13155222080E+00  0.19532288943E-01 0.  0.
         14    1    1    2    0    0 -0.16912881328E-01 -0.16886865791E-01  0.69824482295E-02  0.24899123967E-01  0.00000000000E+00 0. -1.
     999901    1    3    3    0    0  0.22805289058E-01 -0.82461673912E-01  0.76800746240E-01  0.88747865523E+00  0.88000000000E+00 0. -1.
        -11    1    4    4    0    0 -0.86098699421E-02  0.57360562071E-01 -0.37868658018E-01  0.69272363339E-01  0.51100000000E-03 0.  1.
         11    1    4    4    0    0  0.27174622121E-02  0.41987977632E-01 -0.45914536452E-01  0.62279857459E-01  0.51100000000E-03 0. -1.
</event>
<event>
 8    1  0.1132255E+005  0.1043930E+01  0.7957747E-01            NaN
         13   -1    0    0    0    0  0.00000000000E+00  0.00000000000E+00  0.74505805969E-08  0.10566000000E+00  0.10566000000E+00 0. -1.
     999900   -1    0    0    0    0 -0.00000000000E+00 -0.00000000000E+00 -0.74505805969E-08  0.93827000000E+00  0.93827000000E+00 0.  1.
     999902    2    1    2    0    0  0.47119355153E-02 -0.11316483708E-01  0.18677838890E-01  0.10215888540E+01  0.10213445353E+01 0.  0.
     999903    2    3    3    0    0 -0.80618050420E-01 -0.84543847616E-01 -0.56433993943E-01  0.13126012775E+00  0.19937232530E-01 0.  0.
         14    1    1    2    0    0 -0.47119355153E-02  0.11316483708E-01 -0.18677838890E-01  0.22341146018E-01  0.00000000000E+00 0.  1.
     999901    1    3    3    0    0  0.85329985936E-01  0.73227363907E-01  0.75111832833E-01  0.89032872623E+00  0.88000000000E+00 0. -1.
        -11    1    4    4    0    0 -0.58039687814E-01 -0.47707970437E-01 -0.39177503459E-01  0.84733663340E-01  0.51100000000E-03 0.  1.
         11    1    4    4    0    0 -0.22578362606E-01 -0.36835877179E-01 -0.17256490484E-01  0.46526464408E-01  0.51100000000E-03 0. -1.
</event>
<event>
 8    1  0.1132255E+005  0.1043930E+01  0.7957747E-01            NaN
         13   -1    0    0    0    0  0.00000000000E+00  0.00000000000E+00  0.74505805969E-08  0.10566000000E+00  0.10566000000E+00 0. -1.
     999900   -1    0    0    0    0 -0.00000000000E+00 -0.00000000000E+00 -0.74505805969E-08  0.93827000000E+00  0.93827000000E+00 0.  1.
     999902    2    1    2    0    0 -0.93465991573E-02  0.17496656438E-01  0.12950191893E-01  0.10202403531E+01  0.10199652831E+01 0.  0.
     999903    2    3    3    0    0  0.68477416877E-01  0.58927521336E-01  0.94356761462E-01  0.13209615102E+00  0.19610846182E-01 0.  0.
         14    1    1    2    0    0  0.93465991573E-02 -0.17496656438E-01 -0.12950191893E-01  0.23689646945E-01  0.00000000000E+00 0.  1.
     999901    1    3    3    0    0 -0.77824016034E-01 -0.41430864898E-01 -0.81406569569E-01  0.88814420203E+00  0.88000000000E+00 0.  1.
        -11    1    4    4    0    0  0.26008052103E-01  0.11356270994E-01  0.33997794585E-01  0.44288766327E-01  0.51100000000E-03 0. -1.
         11    1    4    4    0    0  0.42469364773E-01  0.47571250342E-01  0.60358966877E-01  0.87807384694E-01  0.51100000000E-03 0.  1.
</event>
<event>
 8    1  0.1132255E+005  0.1043930E+01  0.7957747E-01            NaN
         13   -1    0    0    0    0  0.00000000000E+00  0.00000000000E+00  0.74505805969E-08  0.10566000000E+00  0.10566000000E+00 0. -1.
     999900   -1    0    0    0    0 -0.00000000000E+00 -0.00000000000E+00 -0.74505805969E-08  0.93827000000E+00  0.93827000000E+00 0.  1.
     999902    2    1    2    0    0 -0.28297540514E-02 -0.13200444927E-01  0.19879329971E-01  0.10198998728E+01  0.10196167434E+01 0.  0.
     999903    2    3    3    0    0  0.87467322244E-01 -0.41100094176E-01  0.87982547075E-01  0.13222312948E+00  0.20056848626E-01 0.  0.
         14    1    1    2    0    0  0.28297540514E-02  0.13200444927E-01 -0.19879329971E-01  0.24030127223E-01  0.00000000000E+00 0.  1.
     999901    1    3    3    0    0 -0.90297076296E-01  0.27899649249E-01 -0.68103217104E-01  0.88767674330E+00  0.88000000000E+00 0.  1.
        -11    1    4    4    0    0  0.43463040974E-01 -0.31444491128E-01  0.47938994752E-01  0.71945814971E-01  0.51100000000E-03 0. -1.
         11    1    4    4    0    0  0.44004281270E-01 -0.96556030486E-02  0.40043552323E-01  0.60277314506E-01  0.51100000000E-03 0.  1.
</event>
<event>
 8    1  0.1132255E+005  0.1043930E+01  0.7957747E-01            NaN
         13   -1    0    0    0    0  0.00000000000E+00  0.00000000000E+00  0.74505805969E-08  0.10566000000E+00  0.10566000000E+00 0.  1.
     999900   -1    0    0    0    0 -0.00000000000E+00 -0.00000000000E+00 -0.74505805969E-08  0.93827000000E+00  0.93827000000E+00 0. -1.
     999902    2    1    2    0    0 -0.13205654024E-01  0.16050063060E-01 -0.13881136335E-01  0.10189364055E+01  0.10186298241E+01 0.  0.
     999903    2    3    3    0    0 -0.17700827109E-01  0.93218680162E-01  0.86183581449E-01  0.12989863922E+00  0.21047687472E-01 0.  0.
         14    1    1    2    0    0  0.13205654024E-01 -0.16050063060E-01  0.13881136335E-01  0.24993594547E-01  0.00000000000E+00 0.  1.
     999901    1    3    3    0    0  0.44951730848E-02 -0.77168617102E-01 -0.10006471778E+00  0.88903776623E+00  0.88000000000E+00 0. -1.
        -11    1    4    4    0    0  0.11445416235E-02  0.29812276143E-01  0.36639233919E-01  0.47252263094E-01  0.51100000000E-03 0. -1.
         11    1    4    4    0    0 -0.18845368733E-01  0.63406404019E-01  0.49544347530E-01  0.82646376124E-01  0.51100000000E-03 0.  1.
</event>
<event>
 8    1  0.1132255E+005  0.1043930E+01  0.7957747E-01            NaN
         13   -1    0    0    0    0  0.00000000000E+00  0.00000000000E+00  0.74505805969E-08  0.10566000000E+00  0.10566000000E+00 0. -1.
     999900   -1    0    0    0    0 -0.00000000000E+00 -0.00000000000E+00 -0.74505805969E-08  0.93827000000E+00  0.93827000000E+00 0.  1.
     999902    2    1    2    0    0  0.12535577030E-01  0.14490928931E-01  0.11055282750E-01  0.10218088113E+01  0.10215693319E+01 0.  0.
     999903    2    3    3    0    0  0.10607299187E+00  0.14067317086E-01 -0.75864886777E-01  0.13259312133E+00  0.19392930748E-01 0.  0.
         14    1    1    2    0    0 -0.12535577030E-01 -0.14490928931E-01 -0.11055282750E-01  0.22121188699E-01  0.00000000000E+00 0.  1.
     999901    1    3    3    0    0 -0.93537414843E-01  0.42361184537E-03  0.86920169528E-01  0.88921568997E+00  0.88000000000E+00 0. -1.
        -11    1    4    4    0    0  0.26096136208E-01 -0.44124255840E-02 -0.15220274218E-01  0.30535155032E-01  0.51100000000E-03 0. -1.
         11    1    4    4    0    0  0.79976855665E-01  0.18479742670E-01 -0.60644612559E-01  0.10205796630E+00  0.51100000000E-03 0.  1.
</event>
<event>
 8    1  0.1132255E+005  0.1043930E+01  0.7957747E-01            NaN
         13   -1    0    0    0    0  0.00000000000E+00  0.00000000000E+00  0.74505805969E-08  0.10566000000E+00  0.10566000000E+00 0. -1.
     999900   -1    0    0    0    0 -0.00000000000E+00 -0.00000000000E+00 -0.74505805969E-08  0.93827000000E+00  0.93827000000E+00 0.  1.
     999902    2    1    2    0    0 -0.23230715341E-01 -0.64656468970E-03 -0.33273903289E-02  0.10204532944E+01  0.10201832043E+01 0.  0.
     999903    2    3    3    0    0 -0.77358228355E-01 -0.76000830596E-01 -0.73866288040E-01  0.13276878445E+00  0.20270665234E-01 0.  0.
         14    1    1    2    0    0  0.23230715341E-01  0.64656468970E-03  0.33273903289E-02  0.23476705637E-01  0.00000000000E+00 0.  1.
     999901    1    3    3    0    0  0.54127513014E-01  0.75354265906E-01  0.70538897711E-01  0.88768450992E+00  0.88000000000E+00 0. -1.
        -11    1    4    4    0    0 -0.46659040005E-01 -0.47258262577E-01 -0.33131798495E-01  0.74218505701E-01  0.51100000000E-03 0. -1.
         11    1    4    4    0    0 -0.30699188351E-01 -0.28742568019E-01 -0.40734489545E-01  0.58550278746E-01  0.51100000000E-03 0.  1.
</event>
<event>
 8    1  0.1132255E+005  0.1043930E+01  0.7957747E-01            NaN
         13   -1    0    0    0    0  0.00000000000E+00  0.00000000000E+00  0.74505805969E-08  0.10566000000E+00  0.10566000000E+00 0.  1.
     999900   -1    0    0    0    0 -0.00000000000E+00 -0.00000000000E+00 -0.74505805969E-08  0.93827000000E+00  0.93827000000E+00 0.  1.
     999902    2    1    2    0    0 -0.60254132697E-02  0.13612681644E-01 -0.16529645140E-01  0.10216850034E+01  0.10214428062E+01 0.  0.
     999903    2    3    3    0    0  0.26728217654E-01  0.25420838556E-01 -0.12730412004E+00  0.13405714374E+00  0.20108758181E-01 0.  0.
         14    1    1    2    0    0  0.60254132697E-02 -0.13612681644E-01  0.16529645140E-01  0.22244996630E-01  0.00000000000E+00 0.  1.
     999901    1    3    3    0    0 -0.32753630924E-01 -0.11808156912E-01  0.11077447490E+00  0.88762785963E+00  0.88000000000E+00 0. -1.
        -11    1    4    4    0    0  0.11365321158E-01  0.45970748434E-02 -0.71469214492E-01  0.72514918212E-01  0.51100000000E-03 0.  1.
         11    1    4    4    0    0  0.15362896496E-01  0.20823763712E-01 -0.55834905548E-01  0.61542225524E-01  0.51100000000E-03 0. -1.
</event>
<event>
 8    1  0.1132255E+005  0.1043930E+01  0.7957747E-01            NaN
         13   -1    0    0    0    0  0.00000000000E+00  0.00000000000E+00  0.74505805969E-08  0.10566000000E+00  0.10566000000E+00 0.  1.
     999900   -1    0    0    0    0 -0.00000000000E+00 -0.00000000000E+00 -0.74505805969E-08  0.93827000000E+00  0.93827000000E+00 0. -1.
     999902    2    1    2    0    0  0.28019198356E-02 -0.22571373764E-01  0.75107222722E-02  0.10199773672E+01  0.10196960827E+01 0.  0.
     999903    2    3    3    0    0  0.10223729284E+00  0.74165776141E-01  0.16038948590E-01  0.12906872980E+00  0.21176938925E-01 0.  0.
         14    1    1    2    0    0 -0.28019198356E-02  0.22571373764E-01 -0.75107222722E-02  0.23952632786E-01  0.00000000000E+00 0. -1.
     999901    1    3    3    0    0 -0.99435373005E-01 -0.96737149904E-01 -0.85282263174E-02  0.89090863741E+00  0.88000000000E+00 0.  1.
        -11    1    4    4    0    0  0.62071899371E-01  0.38363088776E-01  0.18233622486E-01  0.75215512907E-01  0.51100000000E-03 0.  1.
         11    1    4    4    0    0  0.40165393469E-01  0.35802687365E-01 -0.21946738966E-02  0.53853216892E-01  0.51100000000E-03 0. -1.
</event>
<event>
 8    1  0.1132255E+005  0.1043930E+01  0.7957747E-01            NaN
         13   -1    0    0    0    0  0.00000000000E+00  0.00000000000E+00  0.74505805969E-08  0.10566000000E+00  0.10566000000E+00 0. -1.
     999900   -1    0    0    0    0 -0.00000000000E+00 -0.00000000000E+00 -0.74505805969E-08  0.93827000000E+00  0.93827000000E+00 0. -1.
     999902    2    1    2    0    0 -0.82029068021E-02 -0.18078946355E-01  0.15636982077E-01  0.10186584510E+01  0.10183449261E+01 0.  0.
     999903    2    3    3    0    0 -0.12660905953E+00  0.86812961537E-02  0.21100395515E-01  0.13030830804E+00  0.20731849755E-01 0.  0.
         14    1    1    2    0    0  0.82029068021E-02  0.18078946355E-01 -0.15636982077E-01  0.25271549019E-01  0.00000000000E+00 0.  1.
     999901    1    3    3    0    0  0.11840615273E+00 -0.26760242509E-01 -0.54634134377E-02  0.88835014294E+00  0.88000000000E+00 0. -1.
        -11    1    4    4    0    0 -0.90783079593E-01  0.15441623609E-01  0.13677455924E-01  0.93098577872E-01  0.51100000000E-03 0.  1.
         11    1    4    4    0    0 -0.35825979938E-01 -0.67603274554E-02  0.74229395910E-02  0.37209730165E-01  0.51100000000E-03 0. -1.
</event>
<event>
 8    1  0.1147291E+005  0.1043930E+01  0.7957747E-01            NaN
         13   -1    0    0    0    0  0.00000000000E+00  0.00000000000E+00  0.74505805969E-08  0.10566000000E+00  0.10566000000E+00 0. -1.
     999900   -1    0    0    0    0 -0.00000000000E+00 -0.00000000000E+00 -0.74505805969E-08  0.93827000000E+00  0.93827000000E+00 0. -1.
     999902    2    1    2    0    0  0.15757846008E-01 -0.10432210467E-01  0.14932631058E-01  0.10198442325E+01  0.10195597748E+01 0.  0.
     999903    2    3    3    0    0  0.11945301175E+00  0.24155830953E-01 -0.44465184610E-01  0.13109391856E+00  0.18866283608E-01 0.  0.
         14    1    1    2    0    0 -0.15757846008E-01  0.10432210467E-01 -0.14932631058E-01  0.24085767506E-01  0.00000000000E+00 0.  1.
     999901    1    3    3    0    0 -0.10369516574E+00 -0.34588041420E-01  0.59397815668E-01  0.88875031393E+00  0.88000000000E+00 0. -1.
        -11    1    4    4    0    0  0.58298123878E-01  0.21346941792E-01 -0.23426936487E-01  0.66358463256E-01  0.51100000000E-03 0. -1.
         11    1    4    4    0    0  0.61154887870E-01  0.28088891609E-02 -0.21038248124E-01  0.64735455307E-01  0.51100000000E-03 0.  1.
</event>
<event>
 8    1  0.1132255E+005  0.1043930E+01  0.7957747E-01            NaN
         13   -1    0    0    0    0  0.00000000000E+00  0.00000000000E+00  0.74505805969E-08  0.10566000000E+00  0.10566000000E+00 0.  1.
     999900   -1    0    0    0    0 -0.00000000000E+00 -0.00000000000E+00 -0.74505805969E-08  0.93827000000E+00  0.93827000000E+00 0. -1.
     999902    2    1    2    0    0 -0.22924913199E-01  0.20215732185E-02  0.79644040922E-02  0.10195769686E+01  0.10192860859E+01 0.  0.
     999903    2    3    3    0    0 -0.89416608266E-01 -0.28701729122E-01 -0.89379656592E-01  0.13118463810E+00  0.20039141044E-01 0.  0.
         14    1    1    2    0    0  0.22924913199E-01 -0.20215732185E-02 -0.79644040922E-02  0.24353031351E-01  0.00000000000E+00 0. -1.
     999901    1    3    3    0    0  0.66491695068E-01  0.30723302340E-01  0.97344060684E-01  0.88839233054E+00  0.88000000000E+00 0.  1.
        -11    1    4    4    0    0 -0.35873877961E-01 -0.15493709242E-01 -0.24908062157E-01  0.46342883245E-01  0.51100000000E-03 0. -1.
         11    1    4    4    0    0 -0.53542730305E-01 -0.13208019879E-01 -0.64471594435E-01  0.84841754859E-01  0.51100000000E-03 0.  1.
</event>
<event>
 7    1  0.1132255E+005  0.1043930E+01  0.7957747E-01            NaN
         13   -1    0    0    0    0  0.00000000000E+00  0.00000000000E+00  0.74505805969E-08  0.10566000000E+00  0.10566000000E+00 0.  1.
     999900   -1    0    0    0    0 -0.00000000000E+00 -0.00000000000E+00 -0.74505805969E-08  0.93827000000E+00  0.93827000000E+00 0.  1.
     999903    2    1    2    0    0 -0.19178205152E-01  0.31005330793E-01  0.10663781322E+00  0.11452388374E+00  0.20370631974E-01 0.  0.
         14    1    1    2    0    0  0.28229758154E-01  0.25195613290E-01  0.11830805630E-01  0.39644749165E-01  0.00000000000E+00 0.  1.
     999901    1    1    2    0    0 -0.90515530012E-02 -0.56200944083E-01 -0.11846861885E+00  0.88976136710E+00  0.88000000000E+00 0.  1.
        -11    1    3    3    0    0 -0.11585341567E-01  0.21544254498E-02  0.26288666769E-01  0.28813483123E-01  0.51100000000E-03 0. -1.
         11    1    3    3    0    0 -0.75928635857E-02  0.28850905343E-01  0.80349146454E-01  0.85710400614E-01  0.51100000000E-03 0.  1.
</event>
<event>
 8    1  0.1132255E+005  0.1043930E+01  0.7957747E-01            NaN
         13   -1    0    0    0    0  0.00000000000E+00  0.00000000000E+00  0.74505805969E-08  0.10566000000E+00  0.10566000000E+00 0.  1.
     999900   -1    0    0    0    0 -0.00000000000E+00 -0.00000000000E+00 -0.74505805969E-08  0.93827000000E+00  0.93827000000E+00 0. -1.
     999902    2    1    2    0    0 -0.19810327574E-01  0.11458893999E-02  0.12485589064E-01  0.10204853402E+01  0.10202159955E+01 0.  0.
     999903    2    3    3    0    0 -0.10863142565E+00  0.26644943752E-01  0.70583689990E-01  0.13374142077E+00  0.19848694428E-01 0.  0.
         14    1    1    2    0    0  0.19810327574E-01 -0.11458893999E-02 -0.12485589064E-01  0.23444659848E-01  0.00000000000E+00 0. -1.
     999901    1    3    3    0    0  0.88821098073E-01 -0.25499054352E-01 -0.58098100926E-01  0.88674391939E+00  0.88000000000E+00 0.  1.
        -11    1    4    4    0    0 -0.68037417338E-01  0.68243718659E-02  0.44253527657E-01  0.81451200362E-01  0.51100000000E-03 0. -1.
         11    1    4    4    0    0 -0.40594008309E-01  0.19820571886E-01  0.26330162333E-01  0.52290220405E-01  0.51100000000E-03 0.  1.
</event>
<event>
 8    1  0.1132255E+005  0.1043930E+01  0.7957747E-01            NaN
         13   -1    0    0    0    0  0.00000000000E+00  0.00000000000E+00  0.74505805969E-08  0.10566000000E+00  0.10566000000E+00 0. -1.
     999900   -1    0    0    0    0 -0.00000000000E+00 -0.00000000000E+00 -0.74505805969E-08  0.93827000000E+00  0.93827000000E+00 0.  1.
     999902    2    1    2    0    0  0.15905117350E-01  0.18811337489E-01 -0.34717414133E-02  0.10190524566E+01  0.10187487508E+01 0.  0.
     999903    2    3    3    0    0  0.90335538631E-01 -0.13753950171E-01  0.90723837595E-01  0.13030435245E+00  0.19968196551E-01 0.  0.
         14    1    1    2    0    0 -0.15905117350E-01 -0.18811337489E-01  0.34717414133E-02  0.24877543377E-01  0.00000000000E+00 0.  1.
     999901    1    3    3    0    0 -0.74430421281E-01  0.32565287660E-01 -0.94195579008E-01  0.88874810418E+00  0.88000000000E+00 0.  1.
        -11    1    4    4    0    0  0.43334950026E-01 -0.96768872369E-02  0.57265723316E-01  0.72465055222E-01  0.51100000000E-03 0.  1.
         11    1    4    4    0    0  0.47000588605E-01 -0.40770629344E-02  0.33458114279E-01  0.57839297225E-01  0.51100000000E-03 0. -1.
</event>
<event>
 8    1  0.1132255E+005  0.1043930E+01  0.7957747E-01            NaN
         13   -1    0    0    0    0  0.00000000000E+00  0.00000000000E+00  0.74505805969E-08  0.10566000000E+00  0.10566000000E+00 0. -1.
     999900   -1    0    0    0    0 -0.00000000000E+00 -0.00000000000E+00 -0.74505805969E-08  0.93827000000E+00  0.93827000000E+00 0. -1.
     999902    2    1    2    0    0  0.12677591648E-01  0.46714840326E-02 -0.19703109108E-01  0.10200394872E+01  0.10197596770E+01 0.  0.
     999903    2    3    3    0    0  0.41353207182E-01 -0.56112852792E-01 -0.11151984697E+00  0.13271353814E+00  0.17817602122E-01 0.  0.
         14    1    1    2    0    0 -0.12677591648E-01 -0.46714840326E-02  0.19703109108E-01  0.23890512794E-01  0.00000000000E+00 0. -1.
     999901    1    3    3    0    0 -0.28675615534E-01  0.60784336825E-01  0.91816737862E-01  0.88732594906E+00  0.88000000000E+00 0.  1.
        -11    1    4    4    0    0  0.22362222576E-01 -0.42744583083E-01 -0.82137574586E-01  0.95257601594E-01  0.51100000000E-03 0. -1.
         11    1    4    4    0    0  0.18990984605E-01 -0.13368269709E-01 -0.29382272384E-01  0.37455936548E-01  0.51100000000E-03 0.  1.
</event>
<event>
 8    1  0.1132255E+005  0.1043930E+01  0.7957747E-01            NaN
         13   -1    0    0    0    0  0.00000000000E+00  0.00000000000E+00  0.74505805969E-08  0.10566000000E+00  0.10566000000E+00 0.  1.
     999900   -1    0    0    0    0 -0.00000000000E+00 -0.00000000000E+00 -0.74505805969E-08  0.93827000000E+00  0.93827000000E+00 0. -1.
     999902    2    1    2    0    0 -0.22425240791E-01  0.21826750355E-02  0.67919207959E-02  0.10203973486E+01  0.10201259546E+01 0.  0.
     999903    2    3    3    0    0  0.91232006792E-01 -0.63232858187E-01 -0.60809728769E-01  0.12811536123E+00  0.19850673878E-01 0.  0.
         14    1    1    2    0    0  0.22425240791E-01 -0.21826750355E-02 -0.67919207959E-02  0.23532651422E-01  0.00000000000E+00 0.  1.
     999901    1    3    3    0    0 -0.11365724758E+00  0.65415533223E-01  0.67601649564E-01  0.89228198734E+00  0.88000000000E+00 0.  1.
        -11    1    4    4    0    0  0.54598410953E-01 -0.48217014848E-01 -0.34693292340E-01  0.80683038204E-01  0.51100000000E-03 0.  1.
         11    1    4    4    0    0  0.36633595839E-01 -0.15015843339E-01 -0.26116436429E-01  0.47432323030E-01  0.51100000000E-03 0. -1.
</event>
<event>
 8    1  0.1132255E+005  0.1043930E+01  0.7957747E-01            NaN
         13   -1    0    0    0    0  0.00000000000E+00  0.00000000000E+00  0.74505805969E-08  0.10566000000E+00  0.10566000000E+00 0.  1.
     999900   -1    0    0    0    0 -0.00000000000E+00 -0.00000000000E+00 -0.74505805969E-08  0.93827000000E+00  0.93827000000E+00 0. -1.
     999902    2    1    2    0    0  0.95228279466E-02  0.15205426350E-01 -0.13007802429E-01  0.10217694006E+01  0.10215290577E+01 0.  0.
     999903    2    3    3    0    0  0.64592625281E-01  0.56759375402E-01  0.98166591939E-01  0.13209577547E+00  0.20464119497E-01 0.  0.
         14    1    1    2    0    0 -0.95228279466E-02 -0.15205426350E-01  0.13007802429E-01  0.22160599419E-01  0.00000000000E+00 0.  1.
     999901    1    3    3    0    0 -0.55069797334E-01 -0.41553949052E-01 -0.11117439437E+00  0.88967362511E+00  0.88000000000E+00 0. -1.
        -11    1    4    4    0    0  0.49434235253E-01  0.41443077992E-01  0.59160070680E-01  0.87529694461E-01  0.51100000000E-03 0.  1.
         11    1    4    4    0    0  0.15158390028E-01  0.15316297410E-01  0.39006521259E-01  0.44566081007E-01  0.51100000000E-03 0. -1.
</event>
<event>
 7    1  0.1132255E+005  0.1043930E+01  0.7957747E-01            NaN
         13   -1    0    0    0    0  0.00000000000E+00  0.00000000000E+00  0.74505805969E-08  0.10566000000E+00  0.10566000000E+00 0. -1.
     999900   -1    0    0    0    0 -0.00000000000E+00 -0.00000000000E+00 -0.74505805969E-08  0.93827000000E+00  0.93827000000E+00 0. -1.
     999903    2    1    2    0    0  0.61535073830E-01  0.27937804452E-01 -0.45019293616E-03  0.70209635584E-01  0.19029031145E-01 0.  0.
         14    1    1    2    0    0  0.12942904126E-01 -0.65772892269E-01  0.56951116158E-01  0.87960341952E-01  0.00000000000E+00 0. -1.
     999901    1    1    2    0    0 -0.74477977956E-01  0.37835087817E-01 -0.56500923222E-01  0.88576002246E+00  0.88000000000E+00 0. -1.
        -11    1    3    3    0    0  0.91199273795E-02  0.12632567145E-01  0.45773467645E-03  0.15595687549E-01  0.51100000000E-03 0.  1.
         11    1    3    3    0    0  0.52415146451E-01  0.15305237306E-01 -0.90792761261E-03  0.54613948035E-01  0.51100000000E-03 0. -1.
</event>
<event>
 8    1  0.1132255E+005  0.1043930E+01  0.7957747E-01            NaN
         13   -1    0    0    0    0  0.00000000000E+00  0.00000000000E+00  0.74505805969E-08  0.10566000000E+00  0.10566000000E+00 0.  1.
     999900   -1    0    0    0    0 -0.00000000000E+00 -0.00000000000E+00 -0.74505805969E-08  0.93827000000E+00  0.93827000000E+00 0.  1.
     999902    2    1    2    0    0  0.57420471859E-02 -0.74886579945E-02 -0.22065821059E-01  0.10199310091E+01  0.10196486217E+01 0.  0.
     999903    2    3    3    0    0 -0.93938974021E-01 -0.41697433890E-02  0.84324361520E-01  0.12792978034E+00  0.20335022814E-01 0.  0.
         14    1    1    2    0    0 -0.57420471859E-02  0.74886579945E-02  0.22065821059E-01  0.23998990884E-01  0.00000000000E+00 0.  1.
     999901    1    3    3    0    0  0.99681021207E-01 -0.33189146054E-02 -0.10639018258E+00  0.89200122877E+00  0.88000000000E+00 0.  1.
        -11    1    4    4    0    0 -0.17252766277E-01 -0.14562506385E-02  0.27275581783E-01  0.32310943854E-01  0.51100000000E-03 0.  1.
         11    1    4    4    0    0 -0.76686207744E-01 -0.27134927505E-02  0.57048779737E-01  0.95618836489E-01  0.51100000000E-03 0. -1.
</event>
<event>
 8    1  0.1132255E+005  0.1043930E+01  0.7957747E-01            NaN
         13   -1    0    0    0    0  0.00000000000E+00  0.00000000000E+00  0.74505805969E-08  0.10566000000E+00  0.10566000000E+00 0. -1.
     999900   -1    0    0    0    0 -0.00000000000E+00 -0.00000000000E+00 -0.74505805969E-08  0.93827000000E+00  0.93827000000E+00 0. -1.
     999902    2    1    2    0    0  0.21001312054E-01  0.58810589397E-02 -0.11720902617E-01  0.10191707286E+01  0.10188699390E+01 0.  0.
     999903    2    3    3    0    0  0.77297235841E-01  0.88074614253E-01 -0.58070610226E-01  0.13233742579E+00  0.20223702643E-01 0.  0.
         14    1    1    2    0    0 -0.21001312054E-01 -0.58810589397E-02  0.11720902617E-01  0.24759271403E-01  0.00000000000E+00 0. -1.
     999901    1    3    3    0    0 -0.56295923787E-01 -0.82193555313E-01  0.46349707608E-01  0.88683330281E+00  0.88000000000E+00 0.  1.
        -11    1    4    4    0    0  0.16339618594E-01  0.80605020948E-02 -0.69933434578E-02  0.19522366750E-01  0.51100000000E-03 0. -1.
         11    1    4    4    0    0  0.60957617247E-01  0.80014112158E-01 -0.51077266768E-01  0.11281505904E+00  0.51100000000E-03 0.  1.
</event>
<event>
 8    1  0.1132255E+005  0.1043930E+01  0.7957747E-01            NaN
         13   -1    0    0    0    0  0.00000000000E+00  0.00000000000E+00  0.74505805969E-08  0.10566000000E+00  0.10566000000E+00 0. -1.
     999900   -1    0    0    0    0 -0.00000000000E+00 -0.00000000000E+00 -0.74505805969E-08  0.93827000000E+00  0.93827000000E+00 0.  1.
     999902    2    1    2    0    0  0.34920665847E-02  0.77802578670E-02 -0.22336233821E-01  0.10200211254E+01  0.10197408799E+01 0.  0.
     999903    2    3    3    0    0  0.49253540169E-01 -0.75586445999E-01  0.88592501067E-01  0.12797331058E+00  0.19731065260E-01 0.  0.
         14    1    1    2    0    0 -0.34920665847E-02 -0.77802578670E-02  0.22336233821E-01  0.23908874562E-01  0.00000000000E+00 0. -1.
     999901    1    3    3    0    0 -0.45761473584E-01  0.83366703866E-01 -0.11092873489E+00  0.89204781486E+00  0.88000000000E+00 0.  1.
        -11    1    4    4    0    0  0.12872969897E-01 -0.13364852956E-01  0.29085575521E-01  0.34504557277E-01  0.51100000000E-03 0.  1.
         11    1    4    4    0    0  0.36380570271E-01 -0.62221593043E-01  0.59506925546E-01  0.93468753298E-01  0.51100000000E-03 0. -1.
</event>
<event>
 8    1  0.1132255E+005  0.1043930E+01  0.7957747E-01            NaN
         13   -1    0    0    0    0  0.00000000000E+00  0.00000000000E+00  0.74505805969E-08  0.10566000000E+00  0.10566000000E+00 0.  1.
     999900   -1    0    0    0    0 -0.00000000000E+00 -0.00000000000E+00 -0.74505805969E-08  0.93827000000E+00  0.93827000000E+00 0. -1.
     999902    2    1    2    0    0 -0.16637478528E-01 -0.92680364313E-02  0.13327308774E-01  0.10206852296E+01  0.10204205107E+01 0.  0.
     999903    2    3    3    0    0 -0.12319346692E+00 -0.46694303273E-01  0.10572063824E-01  0.13346344478E+00  0.18540073078E-01 0.  0.
         14    1    1    2    0    0  0.16637478528E-01  0.92680364313E-02 -0.13327308774E-01  0.23244770384E-01  0.00000000000E+00 0.  1.
     999901    1    3    3    0    0  0.10655598839E+00  0.37426266842E-01  0.27552449495E-02  0.88722178484E+00  0.88000000000E+00 0. -1.
        -11    1    4    4    0    0 -0.38564572610E-01 -0.74574504401E-02 -0.20173662342E-02  0.39334091005E-01  0.51100000000E-03 0.  1.
         11    1    4    4    0    0 -0.84628894308E-01 -0.39236852833E-01  0.12589430058E-01  0.94129353776E-01  0.51100000000E-03 0. -1.
</event>
<event>
 8    1  0.1132255E+005  0.1043930E+01  0.7957747E-01            NaN
         13   -1    0    0    0    0  0.00000000000E+00  0.00000000000E+00  0.74505805969E-08  0.10566000000E+00  0.10566000000E+00 0. -1.
     999900   -1    0    0    0    0 -0.00000000000E+00 -0.00000000000E+00 -0.74505805969E-08  0.93827000000E+00  0.93827000000E+00 0.  1.
     999902    2    1    2    0    0  0.19814859709E-01  0.73163806459E-02 -0.10088913183E-01  0.10205217908E+01  0.10202532926E+01 0.  0.
     999903    2    3    3    0    0  0.92400961137E-01  0.81871944262E-01 -0.47178528130E-01  0.13361541817E+00  0.19654861488E-01 0.  0.
         14    1    1    2    0    0 -0.19814859709E-01 -0.73163806459E-02  0.10088913183E-01  0.23408209249E-01  0.00000000000E+00 0. -1.
     999901    1    3    3    0    0 -0.72586101428E-01 -0.74555563616E-01  0.37089614947E-01  0.88690637258E+00  0.88000000000E+00 0. -1.
        -11    1    4    4    0    0  0.45329078452E-01  0.37588536499E-01 -0.12244635567E-01  0.60148280529E-01  0.51100000000E-03 0.  1.
         11    1    4    4    0    0  0.47071882685E-01  0.44283407763E-01 -0.34933892564E-01  0.73467137642E-01  0.51100000000E-03 0. -1.
</event>
<event>
 8    1  0.1132255E+005  0.1043930E+01  0.7957747E-01            NaN
         13   -1    0    0    0    0  0.00000000000E+00  0.00000000000E+00  0.74505805969E-08  0.10566000000E+00  0.10566000000E+00 0.  1.
     999900   -1    0    0    0    0 -0.00000000000E+00 -0.00000000000E+00 -0.74505805969E-08  0.93827000000E+00  0.93827000000E+00 0.  1.
     999902    2    1    2    0    0  0.12846740649E-01  0.73282067740E-02  0.18939437310E-01  0.10198999429E+01  0.10196168152E+01 0.  0.
     999903    2    3    3    0    0 -0.93164307051E-01 -0.86083932857E-01  0.23835867022E-02  0.12847509116E+00  0.20251813712E-01 0.  0.
         14    1    1    2    0    0 -0.12846740649E-01 -0.73282067740E-02 -0.18939437310E-01  0.24030057125E-01  0.00000000000E+00 0. -1.
     999901    1    3    3    0    0  0.10601104770E+00  0.93412139631E-01  0.16555850608E-01  0.89142485171E+00  0.88000000000E+00 0. -1.
        -11    1    4    4    0    0 -0.30745018929E-01 -0.41538613004E-01  0.32611925951E-02  0.51784254917E-01  0.51100000000E-03 0. -1.
         11    1    4    4    0    0 -0.62419288122E-01 -0.44545319854E-01 -0.87760589292E-03  0.76690836243E-01  0.51100000000E-03 0.  1.
</event>
<event>
 8    1  0.1132255E+005  0.1043930E+01  0.7957747E-01            NaN
         13   -1    0    0    0    0  0.00000000000E+00  0.00000000000E+00  0.74505805969E-08  0.10566000000E+00  0.10566000000E+00 0.  1.
     999900   -1    0    0    0    0 -0.00000000000E+00 -0.00000000000E+00 -0.74505805969E-08  0.93827000000E+00  0.93827000000E+00 0. -1.
     999902    2    1    2    0    0 -0.62702153964E-02  0.22738114418E-01 -0.24396024981E-02  0.10202173639E+01  0.10199417535E+01 0.  0.
     999903    2    3    3    0    0  0.69159407083E-02 -0.60173819418E-01  0.11201647643E+00  0.12884288737E+00  0.19597955352E-01 0.  0.
         14    1    1    2    0    0  0.62702153964E-02 -0.22738114418E-01  0.24396024981E-02  0.23712636056E-01  0.00000000000E+00 0. -1.
     999901    1    3    3    0    0 -0.13186156105E-01  0.82911933835E-01 -0.11445607893E+00  0.89137447657E+00  0.88000000000E+00 0. -1.
        -11    1    4    4    0    0  0.90217290052E-02 -0.27670429540E-01  0.37144394774E-01  0.47191222164E-01  0.51100000000E-03 0.  1.
         11    1    4    4    0    0 -0.21057882969E-02 -0.32503389878E-01  0.74872081658E-01  0.81651665205E-01  0.51100000000E-03 0. -1.
</event>
<event>
 8    1  0.1132255E+005  0.1043930E+01  0.7957747E-01            NaN
         13   -1    0    0    0    0  0.00000000000E+00  0.00000000000E+00  0.74505805969E-08  0.10566000000E+00  0.10566000000E+00 0.  1.
     999900   -1    0    0    0    0 -0.00000000000E+00 -0.00000000000E+00 -0.74505805969E-08  0.93827000000E+00  0.93827000000E+00 0.  1.
     999902    2    1    2    0    0  0.16335047600E-01  0.24163259595E-02  0.17469378973E-01  0.10198914557E+01  0.10196081256E+01 0.  0.
     999903    2    3    3    0    0 -0.52553939862E-01 -0.93513149476E-01  0.71569876918E-01  0.13035504792E+00  0.19067394076E-01 0.  0.
         14    1    1    2    0    0 -0.16335047600E-01 -0.24163259595E-02 -0.17469378973E-01  0.24038544319E-01  0.00000000000E+00 0. -1.
     999901    1    3    3    0    0  0.68888987462E-01  0.95929475436E-01 -0.54100497944E-01  0.88953640776E+00  0.88000000000E+00 0. -1.
        -11    1    4    4    0    0 -0.26415983108E-01 -0.34842420884E-01  0.20494569174E-01  0.48291686068E-01  0.51100000000E-03 0. -1.
         11    1    4    4    0    0 -0.26137956755E-01 -0.58670728592E-01  0.51075307744E-01  0.82063361855E-01  0.51100000000E-03 0.  1.
</event>
<event>
 8    1  0.1132255E+005  0.1043930E+01  0.7957747E-01            NaN
         13   -1    0    0    0    0  0.00000000000E+00  0.00000000000E+00  0.74505805969E-08  0.10566000000E+00  0.10566000000E+00 0. -1.
     999900   -1    0    0    0    0 -0.00000000000E+00 -0.00000000000E+00 -0.74505805969E-08  0.93827000000E+00  0.93827000000E+00 0.  1.
     999902    2    1    2    0    0  0.58853021362E-02  0.71243336919E-02 -0.21739901366E-01  0.10203076330E+01  0.10200341414E+01 0.  0.
     999903    2    3    3    0    0  0.99430669457E-01  0.26737477067E-01 -0.81888459467E-01  0.13309105279E+00  0.20153357783E-01 0.  0.
         14    1    1    2    0    0 -0.58853021362E-02 -0.71243336919E-02  0.21739901366E-01  0.23622367011E-01  0.00000000000E+00 0. -1.
     999901    1    3    3    0    0 -0.93545367321E-01 -0.19613143375E-01  0.60148558100E-01  0.88721658020E+00  0.88000000000E+00 0.  1.
        -11    1    4    4    0    0  0.25102410351E-01  0.82509570054E-03 -0.28423793806E-01  0.37933955286E-01  0.51100000000E-03 0.  1.
         11    1    4    4    0    0  0.74328259106E-01  0.25912381366E-01 -0.53464665661E-01  0.95157097502E-01  0.51100000000E-03 0. -1.
</event>
<event>
 8    1  0.1132255E+005  0.1043930E+01  0.7957747E-01            NaN
         13   -1    0    0    0    0  0.00000000000E+00  0.00000000000E+00  0.74505805969E-08  0.10566000000E+00  0.10566000000E+00 0.  1.
     999900   -1    0    0    0    0 -0.00000000000E+00 -0.00000000000E+00 -0.74505805969E-08  0.93827000000E+00  0.93827000000E+00 0.  1.
     999902    2    1    2    0    0 -0.10219318510E-01  0.99242737877E-02 -0.18924305162E-01  0.10202434003E+01  0.10199684019E+01 0.  0.
     999903    2    3    3    0    0  0.65476631057E-02 -0.11036877663E+00 -0.67032197943E-01  0.13059969687E+00  0.18407240822E-01 0.  0.
         14    1    1    2    0    0  0.10219318510E-01 -0.99242737877E-02  0.18924305162E-01  0.23686599732E-01  0.00000000000E+00 0.  1.
     999901    1    3    3    0    0 -0.16766981616E-01  0.12029305041E+00  0.48107892781E-01  0.88964370340E+00  0.88000000000E+00 0. -1.
        -11    1    4    4    0    0  0.12133429694E-02 -0.68096344431E-01 -0.50940898520E-01  0.85051869992E-01  0.51100000000E-03 0. -1.
         11    1    4    4    0    0  0.53343201363E-02 -0.42272432195E-01 -0.16091299424E-01  0.45547826876E-01  0.51100000000E-03 0.  1.
</event>
<event>
 8    1  0.1132255E+005  0.1043930E+01  0.7957747E-01            NaN
         13   -1    0    0    0    0  0.00000000000E+00  0.00000000000E+00  0.74505805969E-08  0.10566000000E+00  0.10566000000E+00 0.  1.
     999900   -1    0    0    0    0 -0.00000000000E+00 -0.00000000000E+00 -0.74505805969E-08  0.93827000000E+00  0.93827000000E+00 0.  1.
     999902    2    1    2    0    0 -0.45268183304E-02  0.62500615210E-02 -0.36230811351E-01  0.10068864170E+01  0.10062047653E+01 0.  0.
     999903    2    3    3    0    0  0.24615054314E-01 -0.73292366433E-01 -0.91131207056E-01  0.12111539687E+00  0.19656311533E-01 0.  0.
         14    1    1    2    0    0  0.45268183304E-02 -0.62500615210E-02  0.36230811351E-01  0.37043583039E-01  0.00000000000E+00 0.  1.
     999901    1    3    3    0    0 -0.29141872644E-01  0.79542427954E-01  0.54900395706E-01  0.88577102009E+00  0.88000000000E+00 0. -1.
        -11    1    4    4    0    0  0.15873174434E-01 -0.38424685887E-01 -0.34452538758E-01  0.53996784164E-01  0.51100000000E-03 0. -1.
         11    1    4    4    0    0  0.87418798799E-02 -0.34867680545E-01 -0.56678668298E-01  0.67118612706E-01  0.51100000000E-03 0.  1.
</event>
<event>
 8    1  0.1132255E+005  0.1043930E+01  0.7957747E-01            NaN
         13   -1    0    0    0    0  0.00000000000E+00  0.00000000000E+00  0.74505805969E-08  0.10566000000E+00  0.10566000000E+00 0. -1.
     999900   -1    0    0    0    0 -0.00000000000E+00 -0.00000000000E+00 -0.74505805969E-08  0.93827000000E+00  0.93827000000E+00 0. -1.
     999902    2    1    2    0    0  0.24000739155E-01 -0.42427709635E-02  0.35957801109E-02  0.10192933156E+01  0.10189955333E+01 0.  0.
     999903    2    3    3    0    0  0.58195055047E-02 -0.98637470829E-01  0.82706330556E-01  0.13053046991E+00  0.20848241304E-01 0.  0.
         14    1    1    2    0    0 -0.24000739155E-01  0.42427709635E-02 -0.35957801109E-02  0.24636684436E-01  0.00000000000E+00 0.  1.
     999901    1    3    3    0    0  0.18181233650E-01  0.94394699865E-01 -0.79110550445E-01  0.88876284565E+00  0.88000000000E+00 0. -1.
        -11    1    4    4    0    0  0.52050464725E-02 -0.53781439116E-02  0.85832186368E-02  0.11399548407E-01  0.51100000000E-03 0. -1.
         11    1    4    4    0    0  0.61445903225E-03 -0.93259326917E-01  0.74123111919E-01  0.11913092150E+00  0.51100000000E-03 0.  1.
</event>
<event>
 8    1  0.1132255E+005  0.1043930E+01  0.7957747E-01            NaN
         13   -1    0    0    0    0  0.00000000000E+00  0.00000000000E+00  0.74505805969E-08  0.10566000000E+00  0.10566000000E+00 0. -1.
     999900   -1    0    0    0    0 -0.00000000000E+00 -0.00000000000E+00 -0.74505805969E-08  0.93827000000E+00  0.93827000000E+00 0. -1.
     999902    2    1    2    0    0 -0.17229179483E-01 -0.14955120667E-02  0.15762564018E-01  0.10205304358E+01  0.10202621382E+01 0.  0.
     999903    2    3    3    0    0  0.16299182400E-01  0.81865572891E-01 -0.96224500533E-01  0.12889467820E+00  0.19673540469E-01 0.  0.
         14    1    1    2    0    0  0.17229179483E-01  0.14955120667E-02 -0.15762564018E-01  0.23399564235E-01  0.00000000000E+00 0.  1.
     999901    1    3    3    0    0 -0.33528361882E-01 -0.83361084958E-01  0.11198706455E+00  0.89163575756E+00  0.88000000000E+00 0.  1.
        -11    1    4    4    0    0  0.14968473538E-01  0.70548531574E-01 -0.70970166100E-01  0.10118387275E+00  0.51100000000E-03 0.  1.
         11    1    4    4    0    0  0.13307088620E-02  0.11317041317E-01 -0.25254334432E-01  0.27710805453E-01  0.51100000000E-03 0. -1.
</event>
<event>
 8    1  0.1132255E+005  0.1043930E+01  0.7957747E-01            NaN
         13   -1    0    0    0    0  0.00000000000E+00  0.00000000000E+00  0.74505805969E-08  0.10566000000E+00  0.10566000000E+00 0.  1.
     999900   -1    0    0    0    0 -0.00000000000E+00 -0.00000000000E+00 -0.74505805969E-08  0.93827000000E+00  0.93827000000E+00 0. -1.
     999902    2    1    2    0    0 -0.15665568909E-01 -0.17845635776E-01  0.10122878011E-01  0.10181162551E+01  0.10177889563E+01 0.  0.
     999903    2    3    3    0    0  0.23901488608E-01 -0.46474255869E-01 -0.11506688298E+00  0.12791536421E+00  0.19769047165E-01 0.  0.
         14    1    1    2    0    0  0.15665568909E-01  0.17845635776E-01 -0.10122878011E-01  0.25813744880E-01  0.00000000000E+00 0.  1.
     999901    1    3    3    0    0 -0.39567057518E-01  0.28628620093E-01  0.12518976099E+00  0.89020089091E+00  0.88000000000E+00 0.  1.
        -11    1    4    4    0    0  0.82287382685E-02 -0.35312854211E-01 -0.67994649722E-01  0.77059998169E-01  0.51100000000E-03 0.  1.
         11    1    4    4    0    0  0.15672750340E-01 -0.11161401658E-01 -0.47072233254E-01  0.50855366036E-01  0.51100000000E-03 0. -1.
</event>
<event>
 8    1  0.1132255E+005  0.1043930E+01  0.7957747E-01            NaN
         13   -1    0    0    0    0  0.00000000000E+00  0.00000000000E+00  0.74505805969E-08  0.10566000000E+00  0.10566000000E+00 0. -1.
     999900   -1    0    0    0    0 -0.00000000000E+00 -0.00000000000E+00 -0.74505805969E-08  0.93827000000E+00  0.93827000000E+00 0. -1.
     999902    2    1    2    0    0  0.20521941741E-01  0.10853030402E-01  0.11958486968E-02  0.10206841742E+01  0.10204194310E+01 0.  0.
     999903    2    3    3    0    0 -0.36912442933E-02 -0.85112248410E-01 -0.95043754428E-01  0.12992176240E+00  0.24261677098E-01 0.  0.
         14    1    1    2    0    0 -0.20521941741E-01 -0.10853030402E-01 -0.11958486968E-02  0.23245825772E-01  0.00000000000E+00 0.  1.
     999901    1    3    3    0    0  0.24213186034E-01  0.95965278812E-01  0.96239603124E-01  0.89076241183E+00  0.88000000000E+00 0.  1.
        -11    1    4    4    0    0 -0.91853823690E-02 -0.14164723988E-01 -0.24175723827E-01  0.29491310559E-01  0.51100000000E-03 0.  1.
         11    1    4    4    0    0  0.54941380757E-02 -0.70947524423E-01 -0.70868030601E-01  0.10043045184E+00  0.51100000000E-03 0. -1.
</event>
<event>
 8    1  0.1132255E+005  0.1043930E+01  0.7957747E-01            NaN
         13   -1    0    0    0    0  0.00000000000E+00  0.00000000000E+00  0.74505805969E-08  0.10566000000E+00  0.10566000000E+00 0.  1.
     999900   -1    0    0    0    0 -0.00000000000E+00 -0.00000000000E+00 -0.74505805969E-08  0.93827000000E+00  0.93827000000E+00 0. -1.
     999902    2    1    2    0    0  0.14315167096E-01  0.21053915388E-01  0.14636353639E-02  0.10184283610E+01  0.10181090280E+01 0.  0.
     999903    2    3    3    0    0 -0.49172483666E-01 -0.11310186434E+00  0.13825004259E-01  0.12591435078E+00  0.21291503508E-01 0.  0.
         14    1    1    2    0    0 -0.14315167096E-01 -0.21053915388E-01 -0.14636353639E-02  0.25501638979E-01  0.00000000000E+00 0. -1.
     999901    1    3    3    0    0  0.63487650761E-01  0.13415577973E+00 -0.12361368895E-01  0.89251401024E+00  0.88000000000E+00 0. -1.
        -11    1    4    4    0    0 -0.50156555809E-03 -0.10972223196E-01  0.59577875115E-02  0.12505902722E-01  0.51100000000E-03 0.  1.
         11    1    4    4    0    0 -0.48670918108E-01 -0.10212964115E+00  0.78672167473E-02  0.11340844806E+00  0.51100000000E-03 0. -1.
</event>
<event>
 8    1  0.1132255E+005  0.1043930E+01  0.7957747E-01            NaN
         13   -1    0    0    0    0  0.00000000000E+00  0.00000000000E+00  0.74505805969E-08  0.10566000000E+00  0.10566000000E+00 0. -1.
     999900   -1    0    0    0    0 -0.00000000000E+00 -0.00000000000E+00 -0.74505805969E-08  0.93827000000E+00  0.93827000000E+00 0.  1.
     999902    2    1    2    0    0 -0.14326419772E-01  0.11127450370E-01  0.14459557458E-01  0.10207320420E+01  0.10204684004E+01 0.  0.
     999903    2    3    3    0    0  0.43180600250E-01 -0.11816835978E+00 -0.16447492869E-01  0.12889141179E+00  0.22674887441E-01 0.  0.
         14    1    1    2    0    0  0.14326419772E-01 -0.11127450370E-01 -0.14459557458E-01  0.23197958037E-01  0.00000000000E+00 0.  1.
     999901    1    3    3    0    0 -0.57507020022E-01  0.12929581015E+00  0.30907050327E-01  0.89184063018E+00  0.88000000000E+00 0.  1.
        -11    1    4    4    0    0  0.17808768397E-01 -0.34223214832E-01  0.41573133340E-02  0.38806250018E-01  0.51100000000E-03 0. -1.
         11    1    4    4    0    0  0.25371831853E-01 -0.83945144944E-01 -0.20604806203E-01  0.90085161769E-01  0.51100000000E-03 0.  1.
</event>
<event>
 8    1  0.1132255E+005  0.1043930E+01  0.7957747E-01            NaN
         13   -1    0    0    0    0  0.00000000000E+00  0.00000000000E+00  0.74505805969E-08  0.10566000000E+00  0.10566000000E+00 0. -1.
     999900   -1    0    0    0    0 -0.00000000000E+00 -0.00000000000E+00 -0.74505805969E-08  0.93827000000E+00  0.93827000000E+00 0.  1.
     999902    2    1    2    0    0 -0.63767315218E-02  0.29303679867E-02  0.22614035600E-01  0.10202520700E+01  0.10199772753E+01 0.  0.
     999903    2    3    3    0    0  0.86329022923E-01  0.73606666800E-01 -0.57951141943E-01  0.12891585740E+00  0.19756564474E-01 0.  0.
         14    1    1    2    0    0  0.63767315218E-02 -0.29303679867E-02 -0.22614035600E-01  0.23677929968E-01  0.00000000000E+00 0.  1.
     999901    1    3    3    0    0 -0.92705754445E-01 -0.70676298813E-01  0.80565177543E-01  0.89133621263E+00  0.88000000000E+00 0. -1.
        -11    1    4    4    0    0  0.34524144510E-01  0.24089456264E-01 -0.31275775619E-01  0.52446675002E-01  0.51100000000E-03 0. -1.
         11    1    4    4    0    0  0.51804878413E-01  0.49517210536E-01 -0.26675366323E-01  0.76469182395E-01  0.51100000000E-03 0.  1.
</event>
<event>
 8    1  0.1132255E+005  0.1043930E+01  0.7957747E-01            NaN
         13   -1    0    0    0    0  0.00000000000E+00  0.00000000000E+00  0.74505805969E-08  0.10566000000E+00  0.10566000000E+00 0. -1.
     999900   -1    0    0    0    0 -0.00000000000E+00 -0.00000000000E+00 -0.74505805969E-08  0.93827000000E+00  0.93827000000E+00 0. -1.
     999902    2    1    2    0    0 -0.16671853658E-01 -0.40374288890E-02  0.16346317473E-01  0.10202349872E+01  0.10199597911E+01 0.  0.
     999903    2    3    3    0    0  0.35187494523E-02  0.11001768041E+00  0.68239386285E-01  0.13112918979E+00  0.20542126769E-01 0.  0.
         14    1    1    2    0    0  0.16671853658E-01  0.40374288890E-02 -0.16346317473E-01  0.23695012795E-01  0.00000000000E+00 0.  1.
     999901    1    3    3    0    0 -0.20190603110E-01 -0.11405510930E+00 -0.51893068813E-01  0.88910579742E+00  0.88000000000E+00 0. -1.
        -11    1    4    4    0    0  0.70144970880E-02  0.18695862189E-01  0.17737793769E-01  0.26713833143E-01  0.51100000000E-03 0.  1.
         11    1    4    4    0    0 -0.34957476357E-02  0.91321818225E-01  0.50501592517E-01  0.10441535664E+00  0.51100000000E-03 0. -1.
</event>
<event>
 8    1  0.1132255E+005  0.1043930E+01  0.7957747E-01            NaN
         13   -1    0    0    0    0  0.00000000000E+00  0.00000000000E+00  0.74505805969E-08  0.10566000000E+00  0.10566000000E+00 0. -1.
     999900   -1    0    0    0    0 -0.00000000000E+00 -0.00000000000E+00 -0.74505805969E-08  0.93827000000E+00  0.93827000000E+00 0. -1.
     999902    2    1    2    0    0  0.67973563118E-02  0.23144085568E-01  0.11602022841E-01  0.10171632355E+01  0.10168109893E+01 0.  0.
     999903    2    3    3    0    0 -0.62362282358E-01  0.11211286862E+00  0.16527721831E-02  0.12992173082E+00  0.20459103397E-01 0.  0.
         14    1    1    2    0    0 -0.67973563118E-02 -0.23144085568E-01 -0.11602022841E-01  0.26766764534E-01  0.00000000000E+00 0.  1.
     999901    1    3    3    0    0  0.69159638670E-01 -0.88968783053E-01  0.99492506578E-02  0.88724150465E+00  0.88000000000E+00 0.  1.
        -11    1    4    4    0    0 -0.15148373942E-01  0.25126048685E-01  0.89485839460E-02  0.30677839416E-01  0.51100000000E-03 0. -1.
         11    1    4    4    0    0 -0.47213908416E-01  0.86986819936E-01 -0.72958117629E-02  0.99243891403E-01  0.51100000000E-03 0.  1.
</event>
<event>
 8    1  0.1132255E+005  0.1043930E+01  0.7957747E-01            NaN
         13   -1    0    0    0    0  0.00000000000E+00  0.00000000000E+00  0.74505805969E-08  0.10566000000E+00  0.10566000000E+00 0. -1.
     999900   -1    0    0    0    0 -0.00000000000E+00 -0.00000000000E+00 -0.74505805969E-08  0.93827000000E+00  0.93827000000E+00 0.  1.
     999902    2    1    2    0    0  0.20463307814E-01  0.11560616829E-01 -0.55839343753E-03  0.10204202864E+01  0.10201494275E+01 0.  0.
     999903    2    3    3    0    0 -0.22744151859E-01 -0.48023216606E-01  0.11643376581E+00  0.12963171271E+00  0.20592069898E-01 0.  0.
         14    1    1    2    0    0 -0.20463307814E-01 -0.11560616829E-01  0.55839343753E-03  0.23509713554E-01  0.00000000000E+00 0.  1.
     999901    1    3    3    0    0  0.43207459673E-01  0.59583833434E-01 -0.11699215924E+00  0.89078857374E+00  0.88000000000E+00 0.  1.
        -11    1    4    4    0    0 -0.36285258778E-02 -0.22825922206E-01  0.32079494720E-01  0.39541674561E-01  0.51100000000E-03 0. -1.
         11    1    4    4    0    0 -0.19115625981E-01 -0.25197294400E-01  0.84354271086E-01  0.90090038146E-01  0.51100000000E-03 0.  1.
</event>
<event>
 8    1  0.1132255E+005  0.1043930E+01  0.7957747E-01            NaN
         13   -1    0    0    0    0  0.00000000000E+00  0.00000000000E+00  0.74505805969E-08  0.10566000000E+00  0.10566000000E+00 0. -1.
     999900   -1    0    0    0    0 -0.00000000000E+00 -0.00000000000E+00 -0.74505805969E-08  0.93827000000E+00  0.93827000000E+00 0. -1.
     999902    2    1    2    0    0  0.85751364516E-02  0.99897781187E-02 -0.19169009698E-01  0.10206753324E+01  0.10204103854E+01 0.  0.
     999903    2    3    3    0    0  0.34481306135E-01  0.14380305213E-01 -0.12678666805E+00  0.13373003153E+00  0.20325070447E-01 0.  0.
         14    1    1    2    0    0 -0.85751364516E-02 -0.99897781187E-02  0.19169009698E-01  0.23254667592E-01  0.00000000000E+00 0. -1.
     999901    1    3    3    0    0 -0.25906169684E-01 -0.43905270945E-02  0.10761765835E+00  0.88694530087E+00  0.88000000000E+00 0.  1.
        -11    1    4    4    0    0  0.27002684901E-01  0.19598483367E-01 -0.97500147687E-01  0.10305234331E+00  0.51100000000E-03 0.  1.
         11    1    4    4    0    0  0.74786212344E-02 -0.52181781537E-02 -0.29286520359E-01  0.30677688221E-01  0.51100000000E-03 0. -1.
</event>
<event>
 8    1  0.1132255E+005  0.1043930E+01  0.7957747E-01            NaN
         13   -1    0    0    0    0  0.00000000000E+00  0.00000000000E+00  0.74505805969E-08  0.10566000000E+00  0.10566000000E+00 0. -1.
     999900   -1    0    0    0    0 -0.00000000000E+00 -0.00000000000E+00 -0.74505805969E-08  0.93827000000E+00  0.93827000000E+00 0. -1.
     999902    2    1    2    0    0 -0.21762770560E-01  0.10465124740E-01  0.13805489686E-02  0.10197423392E+01  0.10194554407E+01 0.  0.
     999903    2    3    3    0    0  0.14703392193E-01 -0.11096586412E+00 -0.61111339783E-01  0.12846207901E+00  0.15436876366E-01 0.  0.
         14    1    1    2    0    0  0.21762770560E-01 -0.10465124740E-01 -0.13805489686E-02  0.24187660774E-01  0.00000000000E+00 0. -1.
     999901    1    3    3    0    0 -0.36466162753E-01  0.12143098886E+00  0.62491888752E-01  0.89128026021E+00  0.88000000000E+00 0.  1.
        -11    1    4    4    0    0  0.13069217657E-01 -0.42173338446E-01 -0.25244917660E-01  0.50862185506E-01  0.51100000000E-03 0.  1.
         11    1    4    4    0    0  0.16341745362E-02 -0.68792525678E-01 -0.35866422123E-01  0.77599893508E-01  0.51100000000E-03 0. -1.
</event>
<event>
 8    1  0.1132255E+005  0.1043930E+01  0.7957747E-01            NaN
         13   -1    0    0    0    0  0.00000000000E+00  0.00000000000E+00  0.74505805969E-08  0.10566000000E+00  0.10566000000E+00 0. -1.
     999900   -1    0    0    0    0 -0.00000000000E+00 -0.00000000000E+00 -0.74505805969E-08  0.93827000000E+00  0.93827000000E+00 0. -1.
     999902    2    1    2    0    0  0.23753443713E-01 -0.17438513414E-01  0.21863350475E-01  0.10072375766E+01  0.10065690249E+01 0.  0.
     999903    2    3    3    0    0  0.88707638028E-01  0.21546690353E-01 -0.73470617237E-01  0.11885282954E+00  0.19868532482E-01 0.  0.
         14    1    1    2    0    0 -0.23753443713E-01  0.17438513414E-01 -0.21863350475E-01  0.36692423364E-01  0.00000000000E+00 0.  1.
     999901    1    3    3    0    0 -0.64954194315E-01 -0.38985203767E-01  0.95333967712E-01  0.88838474710E+00  0.88000000000E+00 0.  1.
        -11    1    4    4    0    0  0.25962614306E-01  0.58611232603E-03 -0.30054178336E-01  0.39722986113E-01  0.51100000000E-03 0. -1.
         11    1    4    4    0    0  0.62745023722E-01  0.20960578027E-01 -0.43416438901E-01  0.79129843428E-01  0.51100000000E-03 0.  1.
</event>
<event>
 8    1  0.1132255E+005  0.1043930E+01  0.7957747E-01            NaN
         13   -1    0    0    0    0  0.00000000000E+00  0.00000000000E+00  0.74505805969E-08  0.10566000000E+00  0.10566000000E+00 0. -1.
     999900   -1    0    0    0    0 -0.00000000000E+00 -0.00000000000E+00 -0.74505805969E-08  0.93827000000E+00  0.93827000000E+00 0. -1.
     999902    2    1    2    0    0 -0.10392600988E-01  0.19139225912E-01 -0.88512554825E-02  0.10204212602E+01  0.10201504239E+01 0.  0.
     999903    2    3    3    0    0  0.23089584016E-01 -0.28147905760E-01  0.12172791796E+00  0.12890118186E+00  0.21734654003E-01 0.  0.
         14    1    1    2    0    0  0.10392600988E-01 -0.19139225912E-01  0.88512554825E-02  0.23508739810E-01  0.00000000000E+00 0. -1.
     999901    1    3    3    0    0 -0.33482185004E-01  0.47287131672E-01 -0.13057917344E+00  0.89152007833E+00  0.88000000000E+00 0. -1.
        -11    1    4    4    0    0  0.24598522027E-02 -0.17327248072E-01  0.70189075599E-01  0.72339835865E-01  0.51100000000E-03 0. -1.
         11    1    4    4    0    0  0.20629731813E-01 -0.10820657688E-01  0.51538842361E-01  0.56561345992E-01  0.51100000000E-03 0.  1.
</event>
<event>
 8    1  0.1132255E+005  0.1043930E+01  0.7957747E-01            NaN
         13   -1    0    0    0    0  0.00000000000E+00  0.00000000000E+00  0.74505805969E-08  0.10566000000E+00  0.10566000000E+00 0.  1.
     999900   -1    0    0    0    0 -0.00000000000E+00 -0.00000000000E+00 -0.74505805969E-08  0.93827000000E+00  0.93827000000E+00 0. -1.
     999902    2    1    2    0    0  0.22688874707E-02  0.19734770840E-01  0.25683205625E-01  0.10114609981E+01  0.10109397186E+01 0.  0.
     999903    2    3    3    0    0  0.26074848836E-01 -0.44034008547E-01 -0.10571737309E+00  0.11910496319E+00  0.19772142846E-01 0.  0.
         14    1    1    2    0    0 -0.22688874707E-02 -0.19734770840E-01 -0.25683205625E-01  0.32469001858E-01  0.00000000000E+00 0. -1.
     999901    1    3    3    0    0 -0.23805961365E-01  0.63768779388E-01  0.13140057872E+00  0.89235603495E+00  0.88000000000E+00 0.  1.
        -11    1    4    4    0    0  0.22076375472E-01 -0.20261094397E-01 -0.68374854739E-01  0.74654271021E-01  0.51100000000E-03 0.  1.
         11    1    4    4    0    0  0.39984733638E-02 -0.23772914150E-01 -0.37342518356E-01  0.44450692172E-01  0.51100000000E-03 0. -1.
</event>
<event>
 8    1  0.1132255E+005  0.1043930E+01  0.7957747E-01            NaN
         13   -1    0    0    0    0  0.00000000000E+00  0.00000000000E+00  0.74505805969E-08  0.10566000000E+00  0.10566000000E+00 0.  1.
     999900   -1    0    0    0    0 -0.00000000000E+00 -0.00000000000E+00 -0.74505805969E-08  0.93827000000E+00  0.93827000000E+00 0. -1.
     999902    2    1    2    0    0 -0.23429557878E-01  0.45958204104E-02 -0.46893984436E-02  0.10195977949E+01  0.10193074154E+01 0.  0.
     999903    2    3    3    0    0 -0.66712845879E-01 -0.79690545664E-01  0.76888925074E-01  0.13075998213E+00  0.19623436360E-01 0.  0.
         14    1    1    2    0    0  0.23429557878E-01 -0.45958204104E-02  0.46893984436E-02  0.24332205107E-01  0.00000000000E+00 0. -1.
     999901    1    3    3    0    0  0.43283288002E-01  0.84286366074E-01 -0.81578323518E-01  0.88883781276E+00  0.88000000000E+00 0.  1.
        -11    1    4    4    0    0 -0.11945810557E-01 -0.28013772169E-01  0.22766958704E-01  0.38027218550E-01  0.51100000000E-03 0. -1.
         11    1    4    4    0    0 -0.54767035322E-01 -0.51676773495E-01  0.54121966370E-01  0.92732763582E-01  0.51100000000E-03 0.  1.
</event>
<event>
 8    1  0.1132255E+005  0.1043930E+01  0.7957747E-01            NaN
         13   -1    0    0    0    0  0.00000000000E+00  0.00000000000E+00  0.74505805969E-08  0.10566000000E+00  0.10566000000E+00 0.  1.
     999900   -1    0    0    0    0 -0.00000000000E+00 -0.00000000000E+00 -0.74505805969E-08  0.93827000000E+00  0.93827000000E+00 0. -1.
     999902    2    1    2    0    0 -0.17676010276E-01  0.15056419832E-01  0.34515860256E-02  0.10204555338E+01  0.10201854958E+01 0.  0.
     999903    2    3    3    0    0 -0.91694532804E-01 -0.90696098867E-01  0.13739790880E-01  0.13097917995E+00  0.18250863862E-01 0.  0.
         14    1    1    2    0    0  0.17676010276E-01 -0.15056419832E-01 -0.34515860256E-02  0.23474466203E-01  0.00000000000E+00 0. -1.
     999901    1    3    3    0    0  0.74018522528E-01  0.10575251870E+00 -0.10288204855E-01  0.88947635384E+00  0.88000000000E+00 0.  1.
        -11    1    4    4    0    0 -0.36605909917E-01 -0.24164553943E-01  0.54430212132E-02  0.44201876760E-01  0.51100000000E-03 0. -1.
         11    1    4    4    0    0 -0.55088622887E-01 -0.66531544924E-01  0.82967696673E-02  0.86777303193E-01  0.51100000000E-03 0.  1.
</event>
<event>
 8    1  0.1132255E+005  0.1043930E+01  0.7957747E-01            NaN
         13   -1    0    0    0    0  0.00000000000E+00  0.00000000000E+00  0.74505805969E-08  0.10566000000E+00  0.10566000000E+00 0.  1.
     999900   -1    0    0    0    0 -0.00000000000E+00 -0.00000000000E+00 -0.74505805969E-08  0.93827000000E+00  0.93827000000E+00 0.  1.
     999902    2    1    2    0    0 -0.79391973592E-02 -0.20310230301E-01  0.76624602799E-02  0.10208161598E+01  0.10205544486E+01 0.  0.
     999903    2    3    3    0    0 -0.95003448027E-01  0.59103754066E-01 -0.63322244804E-01  0.13012789057E+00  0.20115972130E-01 0.  0.
         14    1    1    2    0    0  0.79391973592E-02  0.20310230301E-01 -0.76624602799E-02  0.23113840164E-01  0.00000000000E+00 0. -1.
     999901    1    3    3    0    0  0.87064250667E-01 -0.79413984368E-01  0.70984705083E-01  0.89068826927E+00  0.88000000000E+00 0.  1.
        -11    1    4    4    0    0 -0.52890121258E-01  0.41497250403E-01 -0.30039735284E-01  0.73634458880E-01  0.51100000000E-03 0. -1.
         11    1    4    4    0    0 -0.42113326768E-01  0.17606503663E-01 -0.33282509520E-01  0.56493431686E-01  0.51100000000E-03 0.  1.
</event>
<event>
 8    1  0.1132255E+005  0.1043930E+01  0.7957747E-01            NaN
         13   -1    0    0    0    0  0.00000000000E+00  0.00000000000E+00  0.74505805969E-08  0.10566000000E+00  0.10566000000E+00 0.  1.
     999900   -1    0    0    0    0 -0.00000000000E+00 -0.00000000000E+00 -0.74505805969E-08  0.93827000000E+00  0.93827000000E+00 0.  1.
     999902    2    1    2    0    0  0.53816339019E-02  0.23636309115E-02 -0.20876486940E-01  0.10222418364E+01  0.10220117395E+01 0.  0.
     999903    2    3    3    0    0  0.96738060692E-01 -0.39371098255E-01  0.76908827918E-01  0.13114714324E+00  0.19397670049E-01 0.  0.
         14    1    1    2    0    0 -0.53816339019E-02 -0.23636309115E-02  0.20876486940E-01  0.21688163626E-01  0.00000000000E+00 0.  1.
     999901    1    3    3    0    0 -0.91356426790E-01  0.41734729166E-01 -0.97785314858E-01  0.89109469314E+00  0.88000000000E+00 0.  1.
        -11    1    4    4    0    0  0.58802556566E-01 -0.22175984454E-01  0.57544156255E-01  0.85212123465E-01  0.51100000000E-03 0.  1.
         11    1    4    4    0    0  0.37935504125E-01 -0.17195113801E-01  0.19364671663E-01  0.45935019772E-01  0.51100000000E-03 0. -1.
</event>
<event>
 8    1  0.1132255E+005  0.1043930E+01  0.7957747E-01            NaN
         13   -1    0    0    0    0  0.00000000000E+00  0.00000000000E+00  0.74505805969E-08  0.10566000000E+00  0.10566000000E+00 0. -1.
     999900   -1    0    0    0    0 -0.00000000000E+00 -0.00000000000E+00 -0.74505805969E-08  0.93827000000E+00  0.93827000000E+00 0.  1.
     999902    2    1    2    0    0 -0.76065588542E-02 -0.85048241981E-02 -0.78994910111E-02  0.10300521857E+01  0.10299586941E+01 0.  0.
     999903    2    3    3    0    0  0.85882063151E-01  0.94370264683E-01  0.47105852775E-01  0.13744421226E+00  0.19760427389E-01 0.  0.
         14    1    1    2    0    0  0.76065588542E-02  0.85048241981E-02  0.78994910111E-02  0.13877814326E-01  0.00000000000E+00 0. -1.
     999901    1    3    3    0    0 -0.93488622005E-01 -0.10287508888E+00 -0.55005343786E-01  0.89260797341E+00  0.88000000000E+00 0.  1.
        -11    1    4    4    0    0  0.46645954848E-01  0.65227826795E-01  0.31122459527E-01  0.86019666938E-01  0.51100000000E-03 0.  1.
         11    1    4    4    0    0  0.39236108303E-01  0.29142437888E-01  0.15983393248E-01  0.51424545322E-01  0.51100000000E-03 0. -1.
</event>
<event>
 8    1  0.1132255E+005  0.1043930E+01  0.7957747E-01            NaN
         13   -1    0    0    0    0  0.00000000000E+00  0.00000000000E+00  0.74505805969E-08  0.10566000000E+00  0.10566000000E+00 0. -1.
     999900   -1    0    0    0    0 -0.00000000000E+00 -0.00000000000E+00 -0.74505805969E-08  0.93827000000E+00  0.93827000000E+00 0.  1.
     999902    2    1    2    0    0 -0.14419307440E-01  0.72336397992E-02 -0.17230589182E-01  0.10203262889E+01  0.10200532343E+01 0.  0.
     999903    2    3    3    0    0 -0.48888403690E-01  0.11874556734E+00 -0.26382356548E-01  0.13257250359E+00  0.19719386223E-01 0.  0.
         14    1    1    2    0    0  0.14419307440E-01 -0.72336397992E-02  0.17230589182E-01  0.23603711050E-01  0.00000000000E+00 0.  1.
     999901    1    3    3    0    0  0.34469096250E-01 -0.11151192754E+00  0.91517673665E-02  0.88775378536E+00  0.88000000000E+00 0. -1.
        -11    1    4    4    0    0 -0.28689478628E-01  0.84097459947E-01 -0.25535819989E-01  0.92454357263E-01  0.51100000000E-03 0. -1.
         11    1    4    4    0    0 -0.20198925062E-01  0.34648107390E-01 -0.84653655958E-03  0.40118146324E-01  0.51100000000E-03 0.  1.
</event>
<event>
 8    1  0.1132255E+005  0.1043930E+01  0.7957747E-01            NaN
         13   -1    0    0    0    0  0.00000000000E+00  0.00000000000E+00  0.74505805969E-08  0.10566000000E+00  0.10566000000E+00 0. -1.
     999900   -1    0    0    0    0 -0.00000000000E+00 -0.00000000000E+00 -0.74505805969E-08  0.93827000000E+00  0.93827000000E+00 0. -1.
     999902    2    1    2    0    0 -0.23707646178E-01 -0.17459614237E-02 -0.34955121220E-02  0.10199025267E+01  0.10196194606E+01 0.  0.
     999903    2    3    3    0    0 -0.50632103119E-01  0.11749046142E+00  0.20381700155E-01  0.13113238083E+00  0.20314261253E-01 0.  0.
         14    1    1    2    0    0  0.23707646178E-01  0.17459614237E-02  0.34955121220E-02  0.24027473309E-01  0.00000000000E+00 0. -1.
     999901    1    3    3    0    0  0.26924456941E-01 -0.11923642284E+00 -0.23877212277E-01  0.88877014586E+00  0.88000000000E+00 0.  1.
        -11    1    4    4    0    0 -0.13818882280E-01  0.16493141532E-01 -0.92342809014E-03  0.21542958606E-01  0.51100000000E-03 0.  1.
         11    1    4    4    0    0 -0.36813220839E-01  0.10099731988E+00  0.21305128245E-01  0.10958942222E+00  0.51100000000E-03 0. -1.
</event>
<event>
 8    1  0.1132255E+005  0.1043930E+01  0.7957747E-01            NaN
         13   -1    0    0    0    0  0.00000000000E+00  0.00000000000E+00  0.74505805969E-08  0.10566000000E+00  0.10566000000E+00 0. -1.
     999900   -1    0    0    0    0 -0.00000000000E+00 -0.00000000000E+00 -0.74505805969E-08  0.93827000000E+00  0.93827000000E+00 0.  1.
     999902    2    1    2    0    0 -0.21133761167E-02 -0.66902611922E-02  0.21214611912E-01  0.10215852979E+01  0.10213409006E+01 0.  0.
     999903    2    3    3    0    0  0.61328648054E-01  0.78350671094E-01 -0.80395042087E-01  0.12940741632E+00  0.19567469764E-01 0.  0.
         14    1    1    2    0    0  0.21133761167E-02  0.66902611922E-02 -0.21214611912E-01  0.22344702102E-01  0.00000000000E+00 0.  1.
     999901    1    3    3    0    0 -0.63442024171E-01 -0.85040932286E-01  0.10160965400E+00  0.89217788158E+00  0.88000000000E+00 0. -1.
        -11    1    4    4    0    0  0.34219290767E-01  0.28041065861E-01 -0.34187590032E-01  0.55913448011E-01  0.51100000000E-03 0.  1.
         11    1    4    4    0    0  0.27109357287E-01  0.50309605233E-01 -0.46207452055E-01  0.73493968308E-01  0.51100000000E-03 0. -1.
</event>
<event>
 8    1  0.1132255E+005  0.1043930E+01  0.7957747E-01            NaN
         13   -1    0    0    0    0  0.00000000000E+00  0.00000000000E+00  0.74505805969E-08  0.10566000000E+00  0.10566000000E+00 0.  1.
     999900   -1    0    0    0    0 -0.00000000000E+00 -0.00000000000E+00 -0.74505805969E-08  0.93827000000E+00  0.93827000000E+00 0.  1.
     999902    2    1    2    0    0  0.24562796495E-02  0.19588654115E-02 -0.24970899489E-01  0.10187622372E+01  0.10184513143E+01 0.  0.
     999903    2    3    3    0    0  0.12010345196E+00  0.41822562521E-02 -0.47181616642E-01  0.13065238105E+00  0.20040191769E-01 0.  0.
         14    1    1    2    0    0 -0.24562796495E-02 -0.19588654115E-02  0.24970899489E-01  0.25167762807E-01  0.00000000000E+00 0.  1.
     999901    1    3    3    0    0 -0.11764717231E+00 -0.22233908406E-02  0.22210717152E-01  0.88810985614E+00  0.88000000000E+00 0. -1.
        -11    1    4    4    0    0  0.94233502165E-01  0.38142899843E-02 -0.27808384800E-01  0.98326339932E-01  0.51100000000E-03 0.  1.
         11    1    4    4    0    0  0.25869949792E-01  0.36796626777E-03 -0.19373231842E-01  0.32326041119E-01  0.51100000000E-03 0. -1.
</event>
<event>
 8    1  0.1132255E+005  0.1043930E+01  0.7957747E-01            NaN
         13   -1    0    0    0    0  0.00000000000E+00  0.00000000000E+00  0.74505805969E-08  0.10566000000E+00  0.10566000000E+00 0. -1.
     999900   -1    0    0    0    0 -0.00000000000E+00 -0.00000000000E+00 -0.74505805969E-08  0.93827000000E+00  0.93827000000E+00 0.  1.
     999902    2    1    2    0    0 -0.16137020688E-01  0.18997368882E-02 -0.16801103873E-01  0.10205571626E+01  0.10202894847E+01 0.  0.
     999903    2    3    3    0    0 -0.17858476484E-01 -0.12803028298E+00 -0.76297991229E-02  0.13096799545E+00  0.19588860527E-01 0.  0.
         14    1    1    2    0    0  0.16137020688E-01 -0.18997368882E-02  0.16801103873E-01  0.23372837403E-01  0.00000000000E+00 0. -1.
     999901    1    3    3    0    0  0.17214557959E-02  0.12993001986E+00 -0.91713047497E-02  0.88958916715E+00  0.88000000000E+00 0. -1.
        -11    1    4    4    0    0 -0.14277594986E-01 -0.77412866397E-01  0.43020603802E-02  0.78837620758E-01  0.51100000000E-03 0. -1.
         11    1    4    4    0    0 -0.35808814978E-02 -0.50617416579E-01 -0.11931859503E-01  0.52130374693E-01  0.51100000000E-03 0.  1.
</event>
<event>
 8    1  0.1132255E+005  0.1043930E+01  0.7957747E-01            NaN
         13   -1    0    0    0    0  0.00000000000E+00  0.00000000000E+00  0.74505805969E-08  0.10566000000E+00  0.10566000000E+00 0.  1.
     999900   -1    0    0    0    0 -0.00000000000E+00 -0.00000000000E+00 -0.74505805969E-08  0.93827000000E+00  0.93827000000E+00 0.  1.
     999902    2    1    2    0    0 -0.12872207689E-01 -0.40695117658E-03 -0.18150462150E-01  0.10216746946E+01  0.10214322704E+01 0.  0.
     999903    2    3    3    0    0 -0.78122371633E-01 -0.14110921939E-01 -0.10684412543E+00  0.13470685497E+00  0.20689286386E-01 0.  0.
         14    1    1    2    0    0  0.12872207689E-01  0.40695117658E-03  0.18150462150E-01  0.22255305352E-01  0.00000000000E+00 0.  1.
     999901    1    3    3    0    0  0.65250163944E-01  0.13703970763E-01  0.88693663278E-01  0.88696783967E+00  0.88000000000E+00 0. -1.
        -11    1    4    4    0    0 -0.64300226113E-01 -0.58612189844E-02 -0.94326232755E-01  0.11430910844E+00  0.51100000000E-03 0. -1.
         11    1    4    4    0    0 -0.13822145520E-01 -0.82497029549E-02 -0.12517892673E-01  0.20397746533E-01  0.51100000000E-03 0.  1.
</event>
<event>
 8    1  0.1132255E+005  0.1043930E+01  0.7957747E-01            NaN
         13   -1    0    0    0    0  0.00000000000E+00  0.00000000000E+00  0.74505805969E-08  0.10566000000E+00  0.10566000000E+00 0.  1.
     999900   -1    0    0    0    0 -0.00000000000E+00 -0.00000000000E+00 -0.74505805969E-08  0.93827000000E+00  0.93827000000E+00 0.  1.
     999902    2    1    2    0    0  0.21400798316E-01 -0.10224966540E-01  0.15980405414E-02  0.10201582133E+01  0.10198812099E+01 0.  0.
     999903    2    3    3    0    0 -0.67056894416E-01  0.99507541954E-01 -0.39938454031E-01  0.12797478642E+00  0.19598159447E-01 0.  0.
         14    1    1    2    0    0 -0.21400798316E-01  0.10224966540E-01 -0.15980405414E-02  0.23771786699E-01  0.00000000000E+00 0. -1.
     999901    1    3    3    0    0  0.88457692732E-01 -0.10973250849E+00  0.41536494573E-01  0.89218342688E+00  0.88000000000E+00 0.  1.
        -11    1    4    4    0    0 -0.10964786503E-01  0.79381681736E-02 -0.88470609222E-02  0.16179390129E-01  0.51100000000E-03 0. -1.
         11    1    4    4    0    0 -0.56092107913E-01  0.91569373780E-01 -0.31091393109E-01  0.11179539629E+00  0.51100000000E-03 0.  1.
</event>
<event>
 8    1  0.1132255E+005  0.1043930E+01  0.7957747E-01            NaN
         13   -1    0    0    0    0  0.00000000000E+00  0.00000000000E+00  0.74505805969E-08  0.10566000000E+00  0.10566000000E+00 0. -1.
     999900   -1    0    0    0    0 -0.00000000000E+00 -0.00000000000E+00 -0.74505805969E-08  0.93827000000E+00  0.93827000000E+00 0. -1.
     999902    2    1    2    0    0 -0.20954537233E-01 -0.17086161902E-02  0.98585262862E-02  0.10207092649E+01  0.10204450994E+01 0.  0.
     999903    2    3    3    0    0  0.24672297252E-01 -0.68920598367E-01 -0.10427893093E+00  0.12962755272E+00  0.23883799039E-01 0.  0.
         14    1    1    2    0    0  0.20954537233E-01  0.17086161902E-02 -0.98585262862E-02  0.23220735141E-01  0.00000000000E+00 0. -1.
     999901    1    3    3    0    0 -0.45626834485E-01  0.67211982177E-01  0.11413745722E+00  0.89108171214E+00  0.88000000000E+00 0.  1.
        -11    1    4    4    0    0  0.12951416817E-01 -0.19151641048E-01 -0.49820827799E-01  0.54926319338E-01  0.51100000000E-03 0.  1.
         11    1    4    4    0    0  0.11720880435E-01 -0.49768957319E-01 -0.54458103132E-01  0.74701233380E-01  0.51100000000E-03 0. -1.
</event>
<event>
 8    1  0.1132255E+005  0.1043930E+01  0.7957747E-01            NaN
         13   -1    0    0    0    0  0.00000000000E+00  0.00000000000E+00  0.74505805969E-08  0.10566000000E+00  0.10566000000E+00 0. -1.
     999900   -1    0    0    0    0 -0.00000000000E+00 -0.00000000000E+00 -0.74505805969E-08  0.93827000000E+00  0.93827000000E+00 0. -1.
     999902    2    1    2    0    0  0.17826607436E-01 -0.49700791727E-02 -0.14105659343E-01  0.10206607231E+01  0.10203954393E+01 0.  0.
     999903    2    3    3    0    0  0.67433895258E-01 -0.11178154510E+00 -0.14055582580E-01  0.13281525531E+00  0.19997214446E-01 0.  0.
         14    1    1    2    0    0 -0.17826607436E-01  0.49700791727E-02  0.14105659343E-01  0.23269276851E-01  0.00000000000E+00 0.  1.
     999901    1    3    3    0    0 -0.49607287822E-01  0.10681146593E+00 -0.50076763412E-04  0.88784546784E+00  0.88000000000E+00 0.  1.
        -11    1    4    4    0    0  0.32026790943E-01 -0.60546622785E-01 -0.16607802892E-01  0.70481835296E-01  0.51100000000E-03 0.  1.
         11    1    4    4    0    0  0.35407104314E-01 -0.51234922317E-01  0.25522203120E-02  0.62333420011E-01  0.51100000000E-03 0. -1.
</event>
<event>
 8    1  0.1132255E+005  0.1043930E+01  0.7957747E-01            NaN
         13   -1    0    0    0    0  0.00000000000E+00  0.00000000000E+00  0.74505805969E-08  0.10566000000E+00  0.10566000000E+00 0. -1.
     999900   -1    0    0    0    0 -0.00000000000E+00 -0.00000000000E+00 -0.74505805969E-08  0.93827000000E+00  0.93827000000E+00 0.  1.
     999902    2    1    2    0    0 -0.16925651854E-02 -0.98455052922E-02  0.20705204542E-01  0.10209407798E+01  0.10206819150E+01 0.  0.
     999903    2    3    3    0    0  0.10120524871E+00  0.61742256711E-01 -0.47793541673E-01  0.12942249841E+00  0.20281810531E-01 0.  0.
         14    1    1    2    0    0  0.16925651854E-02  0.98455052922E-02 -0.20705204542E-01  0.22989220223E-01  0.00000000000E+00 0.  1.
     999901    1    3    3    0    0 -0.10289781390E+00 -0.71587762004E-01  0.68498746214E-01  0.89151828136E+00  0.88000000000E+00 0. -1.
        -11    1    4    4    0    0  0.77700250253E-01  0.40610928001E-01 -0.27619047281E-01  0.91921973740E-01  0.51100000000E-03 0. -1.
         11    1    4    4    0    0  0.23504998462E-01  0.21131328711E-01 -0.20174494392E-01  0.37500524673E-01  0.51100000000E-03 0.  1.
</event>
<event>
 8    1  0.1132255E+005  0.1043930E+01  0.7957747E-01            NaN
         13   -1    0    0    0    0  0.00000000000E+00  0.00000000000E+00  0.74505805969E-08  0.10566000000E+00  0.10566000000E+00 0. -1.
     999900   -1    0    0    0    0 -0.00000000000E+00 -0.00000000000E+00 -0.74505805969E-08  0.93827000000E+00  0.93827000000E+00 0. -1.
     999902    2    1    2    0    0 -0.14131632333E-01  0.16856253351E-02 -0.18258053021E-01  0.10207804673E+01  0.10205179379E+01 0.  0.
     999903    2    3    3    0    0  0.10386821379E+00 -0.40522834488E-01 -0.65456179402E-01  0.13064947641E+00  0.18816703058E-01 0.  0.
         14    1    1    2    0    0  0.14131632333E-01 -0.16856253351E-02  0.18258053021E-01  0.23149532723E-01  0.00000000000E+00 0. -1.
     999901    1    3    3    0    0 -0.11799984612E+00  0.42208459823E-01  0.47198126381E-01  0.89013099087E+00  0.88000000000E+00 0.  1.
        -11    1    4    4    0    0  0.51717755004E-01 -0.11073229975E-01 -0.35325509034E-01  0.63604208306E-01  0.51100000000E-03 0.  1.
         11    1    4    4    0    0  0.52150458786E-01 -0.29449604513E-01 -0.30130670368E-01  0.67045268106E-01  0.51100000000E-03 0. -1.
</event>
<event>
 8    1  0.1132255E+005  0.1043930E+01  0.7957747E-01            NaN
         13   -1    0    0    0    0  0.00000000000E+00  0.00000000000E+00  0.74505805969E-08  0.10566000000E+00  0.10566000000E+00 0.  1.
     999900   -1    0    0    0    0 -0.00000000000E+00 -0.00000000000E+00 -0.74505805969E-08  0.93827000000E+00  0.93827000000E+00 0. -1.
     999902    2    1    2    0    0  0.16609888472E-01 -0.13220312532E-01  0.10257839793E-01  0.10203527157E+01  0.10200802792E+01 0.  0.
     999903    2    3    3    0    0 -0.30069910824E-01  0.80928822419E-01  0.95160882643E-01  0.13004288761E+00  0.20047074559E-01 0.  0.
         14    1    1    2    0    0 -0.16609888472E-01  0.13220312532E-01 -0.10257839793E-01  0.23577284316E-01  0.00000000000E+00 0. -1.
     999901    1    3    3    0    0  0.46679799295E-01 -0.94149134951E-01 -0.84903042850E-01  0.89030982807E+00  0.88000000000E+00 0. -1.
        -11    1    4    4    0    0 -0.22800549524E-01  0.33143440104E-01  0.45648422914E-01  0.60847286842E-01  0.51100000000E-03 0. -1.
         11    1    4    4    0    0 -0.72693613000E-02  0.47785382315E-01  0.49512459729E-01  0.69195600771E-01  0.51100000000E-03 0.  1.
</event>
<event>
 8    1  0.1132255E+005  0.1043930E+01  0.7957747E-01            NaN
         13   -1    0    0    0    0  0.00000000000E+00  0.00000000000E+00  0.74505805969E-08  0.10566000000E+00  0.10566000000E+00 0. -1.
     999900   -1    0    0    0    0 -0.00000000000E+00 -0.00000000000E+00 -0.74505805969E-08  0.93827000000E+00  0.93827000000E+00 0.  1.
     999902    2    1    2    0    0 -0.71376580222E-02 -0.20001439399E-01  0.98768719809E-02  0.10205087204E+01  0.10202399188E+01 0.  0.
     999903    2    3    3    0    0 -0.59428828110E-01  0.10958444626E+00  0.29762345462E-01  0.12926111150E+00  0.16795870525E-01 0.  0.
         14    1    1    2    0    0  0.71376580222E-02  0.20001439399E-01 -0.98768719809E-02  0.23421279645E-01  0.00000000000E+00 0. -1.
     999901    1    3    3    0    0  0.52291170087E-01 -0.12958588566E+00 -0.19885473482E-01  0.89124760885E+00  0.88000000000E+00 0.  1.
        -11    1    4    4    0    0 -0.53722005973E-01  0.85080950531E-01  0.23882719253E-01  0.10341889319E+00  0.51100000000E-03 0.  1.
         11    1    4    4    0    0 -0.57068221365E-02  0.24503495729E-01  0.58796262091E-02  0.25842218311E-01  0.51100000000E-03 0. -1.
</event>
<event>
 8    1  0.1132255E+005  0.1043930E+01  0.7957747E-01            NaN
         13   -1    0    0    0    0  0.00000000000E+00  0.00000000000E+00  0.74505805969E-08  0.10566000000E+00  0.10566000000E+00 0. -1.
     999900   -1    0    0    0    0 -0.00000000000E+00 -0.00000000000E+00 -0.74505805969E-08  0.93827000000E+00  0.93827000000E+00 0.  1.
     999902    2    1    2    0    0 -0.10788676936E-01  0.11312750704E-01  0.17846402661E-01  0.10202051614E+01  0.10199292639E+01 0.  0.
     999903    2    3    3    0    0  0.44187897476E-01  0.53921076721E-01 -0.10644650800E+00  0.12875318804E+00  0.19658880102E-01 0.  0.
         14    1    1    2    0    0  0.10788676936E-01 -0.11312750704E-01 -0.17846402661E-01  0.23724838597E-01  0.00000000000E+00 0.  1.
     999901    1    3    3    0    0 -0.54976574413E-01 -0.42608326017E-01  0.12429291066E+00  0.89145197337E+00  0.88000000000E+00 0. -1.
        -11    1    4    4    0    0  0.39922629426E-01  0.38521521442E-01 -0.90638293136E-01  0.10626986995E+00  0.51100000000E-03 0.  1.
         11    1    4    4    0    0  0.42652680505E-02  0.15399555279E-01 -0.15808214859E-01  0.22483318091E-01  0.51100000000E-03 0. -1.
</event>
<event>
 7    1  0.1132255E+005  0.1043930E+01  0.7957747E-01            NaN
         13   -1    0    0    0    0  0.00000000000E+00  0.00000000000E+00  0.74505805969E-08  0.10566000000E+00  0.10566000000E+00 0.  1.
     999900   -1    0    0    0    0 -0.00000000000E+00 -0.00000000000E+00 -0.74505805969E-08  0.93827000000E+00  0.93827000000E+00 0. -1.
     999903    2    1    2    0    0  0.40089622380E-01 -0.48326102779E-01  0.92524817997E-01  0.11245077345E+00  0.11905648781E-01 0.  0.
         14    1    1    2    0    0 -0.24725483371E-01  0.27083293388E-01  0.23381358986E-01  0.43491864258E-01  0.00000000000E+00 0.  1.
     999901    1    1    2    0    0 -0.15364139010E-01  0.21242809391E-01 -0.11590617698E+00  0.88798736229E+00  0.88000000000E+00 0. -1.
        -11    1    3    3    0    0  0.90546087004E-02 -0.15203012189E-01  0.34528180805E-01  0.38801725594E-01  0.51100000000E-03 0. -1.
         11    1    3    3    0    0  0.31035013680E-01 -0.33123090590E-01  0.57996637191E-01  0.73649047861E-01  0.51100000000E-03 0.  1.
</event>
<event>
 8    1  0.1132255E+005  0.1043930E+01  0.7957747E-01            NaN
         13   -1    0    0    0    0  0.00000000000E+00  0.00000000000E+00  0.74505805969E-08  0.10566000000E+00  0.10566000000E+00 0. -1.
     999900   -1    0    0    0    0 -0.00000000000E+00 -0.00000000000E+00 -0.74505805969E-08  0.93827000000E+00  0.93827000000E+00 0. -1.
     999902    2    1    2    0    0 -0.16562060504E-01 -0.48872921012E-02  0.16071229505E-01  0.10203403436E+01  0.10200676178E+01 0.  0.
     999903    2    3    3    0    0 -0.23039494073E-01  0.65314039725E-01 -0.10642371670E+00  0.12906306014E+00  0.23119773855E-01 0.  0.
         14    1    1    2    0    0  0.16562060504E-01  0.48872921012E-02 -0.16071229505E-01  0.23589656420E-01  0.00000000000E+00 0.  1.
     999901    1    3    3    0    0  0.64774335689E-02 -0.70201331827E-01  0.12249494621E+00  0.89127728344E+00  0.88000000000E+00 0.  1.
        -11    1    4    4    0    0  0.34368229665E-02  0.14675084518E-01 -0.15151671441E-01  0.21377654833E-01  0.51100000000E-03 0. -1.
         11    1    4    4    0    0 -0.26476317039E-01  0.50638955207E-01 -0.91272045260E-01  0.10768540530E+00  0.51100000000E-03 0.  1.
</event>
<event>
 8    1  0.1132255E+005  0.1043930E+01  0.7957747E-01            NaN
         13   -1    0    0    0    0  0.00000000000E+00  0.00000000000E+00  0.74505805969E-08  0.10566000000E+00  0.10566000000E+00 0. -1.
     999900   -1    0    0    0    0 -0.00000000000E+00 -0.00000000000E+00 -0.74505805969E-08  0.93827000000E+00  0.93827000000E+00 0. -1.
     999902    2    1    2    0    0  0.14083683598E-01 -0.17938564693E-01  0.57232030840E-02  0.10204162317E+01  0.10201452782E+01 0.  0.
     999903    2    3    3    0    0 -0.75737629290E-01 -0.10145219495E+00 -0.27910890074E-01  0.13127414691E+00  0.20619105513E-01 0.  0.
         14    1    1    2    0    0 -0.14083683598E-01  0.17938564693E-01 -0.57232030840E-02  0.23513768317E-01  0.00000000000E+00 0. -1.
     999901    1    3    3    0    0  0.89821312887E-01  0.83513630258E-01  0.33634093158E-01  0.88914208477E+00  0.88000000000E+00 0.  1.
        -11    1    4    4    0    0 -0.31708181402E-01 -0.41181271778E-01 -0.11800220475E-02  0.51989994096E-01  0.51100000000E-03 0. -1.
         11    1    4    4    0    0 -0.44029447888E-01 -0.60270923173E-01 -0.26730868026E-01  0.79284152817E-01  0.51100000000E-03 0.  1.
</event>
<event>
 8    1  0.1132255E+005  0.1043930E+01  0.7957747E-01            NaN
         13   -1    0    0    0    0  0.00000000000E+00  0.00000000000E+00  0.74505805969E-08  0.10566000000E+00  0.10566000000E+00 0.  1.
     999900   -1    0    0    0    0 -0.00000000000E+00 -0.00000000000E+00 -0.74505805969E-08  0.93827000000E+00  0.93827000000E+00 0.  1.
     999902    2    1    2    0    0  0.20920356260E-01  0.83018233021E-02  0.64046200668E-02  0.10205291296E+01  0.10202608018E+01 0.  0.
     999903    2    3    3    0    0 -0.10858661495E+00 -0.40675496510E-02  0.66532308416E-01  0.12893482957E+00  0.19749539421E-01 0.  0.
         14    1    1    2    0    0 -0.20920356260E-01 -0.83018233021E-02 -0.64046200668E-02  0.23400870376E-01  0.00000000000E+00 0.  1.
     999901    1    3    3    0    0  0.12950697121E+00  0.12369372953E-01 -0.60127688349E-01  0.89159430005E+00  0.88000000000E+00 0. -1.
        -11    1    4    4    0    0 -0.20879899418E-01  0.25481500497E-02  0.21642051241E-01  0.30184478980E-01  0.51100000000E-03 0.  1.
         11    1    4    4    0    0 -0.87706715531E-01 -0.66156997007E-02  0.44890257175E-01  0.98750350592E-01  0.51100000000E-03 0. -1.
</event>
<event>
 8    1  0.1132255E+005  0.1043930E+01  0.7957747E-01            NaN
         13   -1    0    0    0    0  0.00000000000E+00  0.00000000000E+00  0.74505805969E-08  0.10566000000E+00  0.10566000000E+00 0.  1.
     999900   -1    0    0    0    0 -0.00000000000E+00 -0.00000000000E+00 -0.74505805969E-08  0.93827000000E+00  0.93827000000E+00 0.  1.
     999902    2    1    2    0    0 -0.10008522129E-01  0.15302131927E-01  0.15754557116E-01  0.10197943039E+01  0.10195086515E+01 0.  0.
     999903    2    3    3    0    0  0.92467919476E-01  0.75659438396E-01  0.48350222003E-01  0.13119602407E+00  0.24494611937E-01 0.  0.
         14    1    1    2    0    0  0.10008522129E-01 -0.15302131927E-01 -0.15754557116E-01  0.24135696109E-01  0.00000000000E+00 0. -1.
     999901    1    3    3    0    0 -0.10247644161E+00 -0.60357306469E-01 -0.32595664886E-01  0.88859827982E+00  0.88000000000E+00 0.  1.
        -11    1    4    4    0    0  0.72611850573E-01  0.46883024735E-01  0.28625627726E-01  0.91050461479E-01  0.51100000000E-03 0. -1.
         11    1    4    4    0    0  0.19856068903E-01  0.28776413661E-01  0.19724594277E-01  0.40145562593E-01  0.51100000000E-03 0.  1.
</event>
<event>
 8    1  0.1132255E+005  0.1043930E+01  0.7957747E-01            NaN
         13   -1    0    0    0    0  0.00000000000E+00  0.00000000000E+00  0.74505805969E-08  0.10566000000E+00  0.10566000000E+00 0. -1.
     999900   -1    0    0    0    0 -0.00000000000E+00 -0.00000000000E+00 -0.74505805969E-08  0.93827000000E+00  0.93827000000E+00 0. -1.
     999902    2    1    2    0    0 -0.80214193747E-02 -0.14130127945E-01  0.16560464019E-01  0.10207297273E+01  0.10204660325E+01 0.  0.
     999903    2    3    3    0    0 -0.80054977875E-01  0.62527682357E-01 -0.77733123715E-01  0.12946291309E+00  0.19992418575E-01 0.  0.
         14    1    1    2    0    0  0.80214193747E-02  0.14130127945E-01 -0.16560464019E-01  0.23200272694E-01  0.00000000000E+00 0.  1.
     999901    1    3    3    0    0  0.72033558500E-01 -0.76657810303E-01  0.94293587734E-01  0.89126681421E+00  0.88000000000E+00 0.  1.
        -11    1    4    4    0    0 -0.37369939874E-01  0.16988289597E-01 -0.32944499147E-01  0.52637586710E-01  0.51100000000E-03 0. -1.
         11    1    4    4    0    0 -0.42685038000E-01  0.45539392760E-01 -0.44788624568E-01  0.76825326382E-01  0.51100000000E-03 0.  1.
</event>
<event>
 8    1  0.1132255E+005  0.1043930E+01  0.7957747E-01            NaN
         13   -1    0    0    0    0  0.00000000000E+00  0.00000000000E+00  0.74505805969E-08  0.10566000000E+00  0.10566000000E+00 0.  1.
     999900   -1    0    0    0    0 -0.00000000000E+00 -0.00000000000E+00 -0.74505805969E-08  0.93827000000E+00  0.93827000000E+00 0. -1.
     999902    2    1    2    0    0 -0.17948045413E-01  0.15938076111E-01  0.15293203950E-02  0.10198781097E+01  0.10195944612E+01 0.  0.
     999903    2    3    3    0    0 -0.60476120456E-01  0.37539126289E-01  0.10996050399E+00  0.13194085739E+00  0.15828147801E-01 0.  0.
         14    1    1    2    0    0  0.17948045413E-01 -0.15938076111E-01 -0.15293203950E-02  0.24051890262E-01  0.00000000000E+00 0. -1.
     999901    1    3    3    0    0  0.42528075042E-01 -0.21601050178E-01 -0.10843118359E+00  0.88793725235E+00  0.88000000000E+00 0. -1.
        -11    1    4    4    0    0 -0.24006593808E-01  0.20653122655E-01  0.59747102261E-01  0.67622816943E-01  0.51100000000E-03 0.  1.
         11    1    4    4    0    0 -0.36469526647E-01  0.16886003633E-01  0.50213401728E-01  0.64318040445E-01  0.51100000000E-03 0. -1.
</event>
<event>
 8    1  0.1132255E+005  0.1043930E+01  0.7957747E-01            NaN
         13   -1    0    0    0    0  0.00000000000E+00  0.00000000000E+00  0.74505805969E-08  0.10566000000E+00  0.10566000000E+00 0.  1.
     999900   -1    0    0    0    0 -0.00000000000E+00 -0.00000000000E+00 -0.74505805969E-08  0.93827000000E+00  0.93827000000E+00 0.  1.
     999902    2    1    2    0    0  0.14560291857E-01  0.35009720811E-04  0.17370644827E-01  0.10212641087E+01  0.10210125549E+01 0.  0.
     999903    2    3    3    0    0 -0.50780278406E-01  0.11145144218E+00 -0.38807579535E-01  0.13006323103E+00  0.20257225860E-01 0.  0.
         14    1    1    2    0    0 -0.14560291857E-01 -0.35009720811E-04 -0.17370644827E-01  0.22665891254E-01  0.00000000000E+00 0. -1.
     999901    1    3    3    0    0  0.65340570263E-01 -0.11141643245E+00  0.56178224362E-01  0.89120087771E+00  0.88000000000E+00 0. -1.
        -11    1    4    4    0    0 -0.13807624296E-01  0.46616291781E-01 -0.22922948092E-01  0.53753621444E-01  0.51100000000E-03 0.  1.
         11    1    4    4    0    0 -0.36972654111E-01  0.64835150394E-01 -0.15884631443E-01  0.76309609590E-01  0.51100000000E-03 0. -1.
</event>
<event>
 8    1  0.1132255E+005  0.1043930E+01  0.7957747E-01            NaN
         13   -1    0    0    0    0  0.00000000000E+00  0.00000000000E+00  0.74505805969E-08  0.10566000000E+00  0.10566000000E+00 0. -1.
     999900   -1    0    0    0    0 -0.00000000000E+00 -0.00000000000E+00 -0.74505805969E-08  0.93827000000E+00  0.93827000000E+00 0.  1.
     999902    2    1    2    0    0  0.18138867535E-01  0.33631576861E-02  0.14614813806E-01  0.10203944497E+01  0.10201229881E+01 0.  0.
     999903    2    3    3    0    0 -0.92787239089E-01 -0.25603422377E-02  0.89302392769E-01  0.13027202923E+00  0.19489924456E-01 0.  0.
         14    1    1    2    0    0 -0.18138867535E-01 -0.33631576861E-02 -0.14614813806E-01  0.23535550294E-01  0.00000000000E+00 0.  1.
     999901    1    3    3    0    0  0.11092610662E+00  0.59234999238E-02 -0.74687578962E-01  0.89012242048E+00  0.88000000000E+00 0.  1.
        -11    1    4    4    0    0 -0.31650208420E-01  0.74931123301E-02  0.25478429329E-01  0.41319413204E-01  0.51100000000E-03 0.  1.
         11    1    4    4    0    0 -0.61137030670E-01 -0.10053454568E-01  0.63823963439E-01  0.88952616026E-01  0.51100000000E-03 0. -1.
</event>
<event>
 8    1  0.1132255E+005  0.1043930E+01  0.7957747E-01            NaN
         13   -1    0    0    0    0  0.00000000000E+00  0.00000000000E+00  0.74505805969E-08  0.10566000000E+00  0.10566000000E+00 0. -1.
     999900   -1    0    0    0    0 -0.00000000000E+00 -0.00000000000E+00 -0.74505805969E-08  0.93827000000E+00  0.93827000000E+00 0.  1.
     999902    2    1    2    0    0  0.37246625093E-03 -0.19044869946E-01  0.11526536427E-01  0.10216655251E+01  0.10214228988E+01 0.  0.
     999903    2    3    3    0    0 -0.22682409273E-01 -0.12277969276E+00 -0.43427287616E-01  0.13357073084E+00  0.19127628773E-01 0.  0.
         14    1    1    2    0    0 -0.37246625093E-03  0.19044869946E-01 -0.11526536427E-01  0.22264474941E-01  0.00000000000E+00 0.  1.
     999901    1    3    3    0    0  0.23054875524E-01  0.10373482281E+00  0.54953824042E-01  0.88809479422E+00  0.88000000000E+00 0. -1.
        -11    1    4    4    0    0 -0.18170070951E-02 -0.22929828347E-01 -0.81972333654E-03  0.23021981022E-01  0.51100000000E-03 0.  1.
         11    1    4    4    0    0 -0.20865402178E-01 -0.99849864410E-01 -0.42607564279E-01  0.11054874981E+00  0.51100000000E-03 0. -1.
</event>
<event>
 8    1  0.1132255E+005  0.1043930E+01  0.7957747E-01            NaN
         13   -1    0    0    0    0  0.00000000000E+00  0.00000000000E+00  0.74505805969E-08  0.10566000000E+00  0.10566000000E+00 0. -1.
     999900   -1    0    0    0    0 -0.00000000000E+00 -0.00000000000E+00 -0.74505805969E-08  0.93827000000E+00  0.93827000000E+00 0.  1.
     999902    2    1    2    0    0 -0.84276114115E-02 -0.19400368913E-01  0.10145896406E-01  0.10204707127E+01  0.10202010279E+01 0.  0.
     999903    2    3    3    0    0 -0.85003358701E-02 -0.46217826389E-01  0.12273418398E+00  0.13289237595E+00  0.19706863891E-01 0.  0.
         14    1    1    2    0    0  0.84276114115E-02  0.19400368913E-01 -0.10145896406E-01  0.23459287328E-01  0.00000000000E+00 0.  1.
     999901    1    3    3    0    0  0.72724458561E-04  0.26817457477E-01 -0.11258828757E+00  0.88757833672E+00  0.88000000000E+00 0.  1.
        -11    1    4    4    0    0 -0.54899076697E-02 -0.35873507621E-02  0.31002547270E-01  0.31692699947E-01  0.51100000000E-03 0.  1.
         11    1    4    4    0    0 -0.30104282004E-02 -0.42630475627E-01  0.91731636706E-01  0.10119967601E+00  0.51100000000E-03 0. -1.
</event>
<event>
 8    1  0.1132255E+005  0.1043930E+01  0.7957747E-01            NaN
         13   -1    0    0    0    0  0.00000000000E+00  0.00000000000E+00  0.74505805969E-08  0.10566000000E+00  0.10566000000E+00 0. -1.
     999900   -1    0    0    0    0 -0.00000000000E+00 -0.00000000000E+00 -0.74505805969E-08  0.93827000000E+00  0.93827000000E+00 0. -1.
     999902    2    1    2    0    0 -0.48056937009E-02 -0.77385059007E-03  0.22738769344E-01  0.10206760720E+01  0.10204111420E+01 0.  0.
     999903    2    3    3    0    0 -0.68677790926E-01  0.72203818614E-01  0.82584107081E-01  0.13332785992E+00  0.32033624528E-01 0.  0.
         14    1    1    2    0    0  0.48056937009E-02  0.77385059007E-03 -0.22738769344E-01  0.23253928012E-01  0.00000000000E+00 0.  1.
     999901    1    3    3    0    0  0.63872097226E-01 -0.72977669205E-01 -0.59845337736E-01  0.88734821207E+00  0.88000000000E+00 0. -1.
        -11    1    4    4    0    0 -0.34052568969E-01  0.45929727904E-01  0.28341632754E-01  0.63817134273E-01  0.51100000000E-03 0. -1.
         11    1    4    4    0    0 -0.34625221957E-01  0.26274090711E-01  0.54242474327E-01  0.69510725650E-01  0.51100000000E-03 0.  1.
</event>
<event>
 8    1  0.1132255E+005  0.1043930E+01  0.7957747E-01            NaN
         13   -1    0    0    0    0  0.00000000000E+00  0.00000000000E+00  0.74505805969E-08  0.10566000000E+00  0.10566000000E+00 0. -1.
     999900   -1    0    0    0    0 -0.00000000000E+00 -0.00000000000E+00 -0.74505805969E-08  0.93827000000E+00  0.93827000000E+00 0.  1.
     999902    2    1    2    0    0 -0.56484873335E-02  0.21292446830E-01 -0.95179241447E-02  0.10199328214E+01  0.10196504772E+01 0.  0.
     999903    2    3    3    0    0 -0.12683069892E+00 -0.21007865942E-01  0.89276154159E-02  0.13043032966E+00  0.20124908901E-01 0.  0.
         14    1    1    2    0    0  0.56484873335E-02 -0.21292446830E-01  0.95179241447E-02  0.23997178609E-01  0.00000000000E+00 0.  1.
     999901    1    3    3    0    0  0.12118221159E+00  0.42300312772E-01 -0.18445539561E-01  0.88950249173E+00  0.88000000000E+00 0. -1.
        -11    1    4    4    0    0 -0.75438533048E-01 -0.13580645667E-01  0.15132545394E-01  0.78132331696E-01  0.51100000000E-03 0.  1.
         11    1    4    4    0    0 -0.51392165872E-01 -0.74272202756E-02 -0.62049299777E-02  0.52297997964E-01  0.51100000000E-03 0. -1.
</event>
<event>
 8    1  0.1132255E+005  0.1043930E+01  0.7957747E-01            NaN
         13   -1    0    0    0    0  0.00000000000E+00  0.00000000000E+00  0.74505805969E-08  0.10566000000E+00  0.10566000000E+00 0.  1.
     999900   -1    0    0    0    0 -0.00000000000E+00 -0.00000000000E+00 -0.74505805969E-08  0.93827000000E+00  0.93827000000E+00 0. -1.
     999902    2    1    2    0    0  0.23426924891E-01 -0.43642756274E-03  0.88478660918E-03  0.10204823109E+01  0.10202128957E+01 0.  0.
     999903    2    3    3    0    0 -0.40369178475E-01  0.77580151921E-01 -0.93640672024E-01  0.12970086077E+00  0.20134231693E-01 0.  0.
         14    1    1    2    0    0 -0.23426924891E-01  0.43642756274E-03 -0.88478660918E-03  0.23447689144E-01  0.00000000000E+00 0.  1.
     999901    1    3    3    0    0  0.63796103366E-01 -0.78016579484E-01  0.94525458633E-01  0.89078145008E+00  0.88000000000E+00 0.  1.
        -11    1    4    4    0    0 -0.79380987077E-02  0.31997084849E-01 -0.43433319489E-01  0.54530186253E-01  0.51100000000E-03 0.  1.
         11    1    4    4    0    0 -0.32431079767E-01  0.45583067072E-01 -0.50207352535E-01  0.75170674522E-01  0.51100000000E-03 0. -1.
</event>
<event>
 8    1  0.1132255E+005  0.1043930E+01  0.7957747E-01            NaN
         13   -1    0    0    0    0  0.00000000000E+00  0.00000000000E+00  0.74505805969E-08  0.10566000000E+00  0.10566000000E+00 0.  1.
     999900   -1    0    0    0    0 -0.00000000000E+00 -0.00000000000E+00 -0.74505805969E-08  0.93827000000E+00  0.93827000000E+00 0.  1.
     999902    2    1    2    0    0 -0.10598305641E-01  0.13562760196E-01 -0.15224451250E-01  0.10209505208E+01  0.10206918779E+01 0.  0.
     999903    2    3    3    0    0 -0.77127843998E-01 -0.94377322602E-01 -0.44896889437E-01  0.13136764413E+00  0.19645454989E-01 0.  0.
         14    1    1    2    0    0  0.10598305641E-01 -0.13562760196E-01  0.15224451250E-01  0.22979479160E-01  0.00000000000E+00 0.  1.
     999901    1    3    3    0    0  0.66529538358E-01  0.10794008280E+00  0.29672438187E-01  0.88958287671E+00  0.88000000000E+00 0. -1.
        -11    1    4    4    0    0 -0.46564708398E-01 -0.71187135328E-01 -0.29757674662E-01  0.90120256473E-01  0.51100000000E-03 0. -1.
         11    1    4    4    0    0 -0.30563135600E-01 -0.23190187273E-01 -0.15139214775E-01  0.41247387657E-01  0.51100000000E-03 0.  1.
</event>
<event>
 8    1  0.1132255E+005  0.1043930E+01  0.7957747E-01            NaN
         13   -1    0    0    0    0  0.00000000000E+00  0.00000000000E+00  0.74505805969E-08  0.10566000000E+00  0.10566000000E+00 0.  1.
     999900   -1    0    0    0    0 -0.00000000000E+00 -0.00000000000E+00 -0.74505805969E-08  0.93827000000E+00  0.93827000000E+00 0.  1.
     999902    2    1    2    0    0  0.14647781140E-01  0.17990641290E-01  0.70964489057E-02  0.10196693270E+01  0.10193806729E+01 0.  0.
     999903    2    3    3    0    0 -0.37219562376E-01 -0.10879614638E+00 -0.50361473771E-01  0.12721959525E+00  0.20655509783E-01 0.  0.
         14    1    1    2    0    0 -0.14647781140E-01 -0.17990641290E-01 -0.70964489057E-02  0.24260672980E-01  0.00000000000E+00 0. -1.
     999901    1    3    3    0    0  0.51867343516E-01  0.12678678768E+00  0.57457922677E-01  0.89244973177E+00  0.88000000000E+00 0. -1.
        -11    1    4    4    0    0 -0.28331713993E-01 -0.68325796826E-01 -0.41604886257E-01  0.84866531750E-01  0.51100000000E-03 0.  1.
         11    1    4    4    0    0 -0.88878483837E-02 -0.40470349559E-01 -0.87565875138E-02  0.42353063504E-01  0.51100000000E-03 0. -1.
</event>
<event>
 8    1  0.1132255E+005  0.1043930E+01  0.7957747E-01            NaN
         13   -1    0    0    0    0  0.00000000000E+00  0.00000000000E+00  0.74505805969E-08  0.10566000000E+00  0.10566000000E+00 0. -1.
     999900   -1    0    0    0    0 -0.00000000000E+00 -0.00000000000E+00 -0.74505805969E-08  0.93827000000E+00  0.93827000000E+00 0.  1.
     999902    2    1    2    0    0  0.36867336285E-02  0.20732915291E-01  0.11611772163E-01  0.10198825670E+01  0.10195990248E+01 0.  0.
     999903    2    3    3    0    0  0.54320471993E-01 -0.11289360462E+00  0.19253646562E-01  0.12832313514E+00  0.20011108543E-01 0.  0.
         14    1    1    2    0    0 -0.36867336285E-02 -0.20732915291E-01 -0.11611772163E-01  0.24047433004E-01  0.00000000000E+00 0. -1.
     999901    1    3    3    0    0 -0.50633738364E-01  0.13362651991E+00 -0.76418743985E-02  0.89155943185E+00  0.88000000000E+00 0. -1.
        -11    1    4    4    0    0  0.36210622841E-01 -0.76826376267E-01  0.22402603160E-01  0.87838710408E-01  0.51100000000E-03 0.  1.
         11    1    4    4    0    0  0.18109849152E-01 -0.36067228352E-01 -0.31489565978E-02  0.40484424733E-01  0.51100000000E-03 0. -1.
</event>
<event>
 8    1  0.1132255E+005  0.1043930E+01  0.7957747E-01            NaN
         13   -1    0    0    0    0  0.00000000000E+00  0.00000000000E+00  0.74505805969E-08  0.10566000000E+00  0.10566000000E+00 0.  1.
     999900   -1    0    0    0    0 -0.00000000000E+00 -0.00000000000E+00 -0.74505805969E-08  0.93827000000E+00  0.93827000000E+00 0. -1.
     999902    2    1    2    0    0  0.63930791462E-02  0.15980819850E-01  0.17112849917E-01  0.10196584591E+01  0.10193695432E+01 0.  0.
     999903    2    3    3    0    0  0.17577991261E-01 -0.44923373438E-01  0.12062535132E+00  0.13143030096E+00  0.19908625523E-01 0.  0.
         14    1    1    2    0    0 -0.63930791462E-02 -0.15980819850E-01 -0.17112849917E-01  0.24271540872E-01  0.00000000000E+00 0.  1.
     999901    1    3    3    0    0 -0.11184912115E-01  0.60904193288E-01 -0.10351250141E+00  0.88822815817E+00  0.88000000000E+00 0.  1.
        -11    1    4    4    0    0  0.13306342208E-01 -0.20568438683E-01  0.38274191142E-01  0.45445508484E-01  0.51100000000E-03 0. -1.
         11    1    4    4    0    0  0.42716490529E-02 -0.24354934755E-01  0.82351160180E-01  0.85984792473E-01  0.51100000000E-03 0.  1.
</event>
<event>
 8    1  0.1132255E+005  0.1043930E+01  0.7957747E-01            NaN
         13   -1    0    0    0    0  0.00000000000E+00  0.00000000000E+00  0.74505805969E-08  0.10566000000E+00  0.10566000000E+00 0. -1.
     999900   -1    0    0    0    0 -0.00000000000E+00 -0.00000000000E+00 -0.74505805969E-08  0.93827000000E+00  0.93827000000E+00 0.  1.
     999902    2    1    2    0    0  0.40557202195E-02 -0.22537866142E-01  0.72266939522E-02  0.10199168915E+01  0.10196341678E+01 0.  0.
     999903    2    3    3    0    0  0.46940756270E-01  0.11694818739E+00  0.95583660942E-02  0.12789619542E+00  0.19640807192E-01 0.  0.
         14    1    1    2    0    0 -0.40557202195E-02  0.22537866142E-01 -0.72266939522E-02  0.24013108550E-01  0.00000000000E+00 0. -1.
     999901    1    3    3    0    0 -0.42885036050E-01 -0.13948605354E+00 -0.23316721420E-02  0.89202069603E+00  0.88000000000E+00 0. -1.
        -11    1    4    4    0    0  0.34252999445E-01  0.82998308499E-01  0.15642121153E-01  0.91142329682E-01  0.51100000000E-03 0.  1.
         11    1    4    4    0    0  0.12687756825E-01  0.33949878894E-01 -0.60837550591E-02  0.36753865740E-01  0.51100000000E-03 0. -1.
</event>
<event>
 8    1  0.1132255E+005  0.1043930E+01  0.7957747E-01            NaN
         13   -1    0    0    0    0  0.00000000000E+00  0.00000000000E+00  0.74505805969E-08  0.10566000000E+00  0.10566000000E+00 0. -1.
     999900   -1    0    0    0    0 -0.00000000000E+00 -0.00000000000E+00 -0.74505805969E-08  0.93827000000E+00  0.93827000000E+00 0.  1.
     999902    2    1    2    0    0  0.11827408786E-02  0.20916142899E-01 -0.11748564830E-01  0.10199109932E+01  0.10196281290E+01 0.  0.
     999903    2    3    3    0    0  0.95148088233E-01 -0.83828494115E-01 -0.91495525138E-02  0.12872768980E+00  0.20167515695E-01 0.  0.
         14    1    1    2    0    0 -0.11827408786E-02 -0.20916142899E-01  0.11748564830E-01  0.24019006751E-01  0.00000000000E+00 0.  1.
     999901    1    3    3    0    0 -0.93965347355E-01  0.10474463701E+00 -0.25990123161E-02  0.89118330345E+00  0.88000000000E+00 0. -1.
        -11    1    4    4    0    0  0.74259830678E-01 -0.62228473948E-01  0.13419503764E-02  0.96896684020E-01  0.51100000000E-03 0.  1.
         11    1    4    4    0    0  0.20888257556E-01 -0.21600020166E-01 -0.10491502890E-01  0.31831005777E-01  0.51100000000E-03 0. -1.
</event>
<event>
 8    1  0.1132255E+005  0.1043930E+01  0.7957747E-01            NaN
         13   -1    0    0    0    0  0.00000000000E+00  0.00000000000E+00  0.74505805969E-08  0.10566000000E+00  0.10566000000E+00 0.  1.
     999900   -1    0    0    0    0 -0.00000000000E+00 -0.00000000000E+00 -0.74505805969E-08  0.93827000000E+00  0.93827000000E+00 0.  1.
     999902    2    1    2    0    0  0.13285441322E-01  0.18227747760E-01 -0.55315979874E-02  0.10207060400E+01  0.10204418003E+01 0.  0.
     999903    2    3    3    0    0 -0.17247022941E-01  0.11554501112E+00 -0.60722412447E-01  0.13309750746E+00  0.19483986327E-01 0.  0.
         14    1    1    2    0    0 -0.13285441322E-01 -0.18227747760E-01  0.55315979874E-02  0.23223959951E-01  0.00000000000E+00 0. -1.
     999901    1    3    3    0    0  0.30532464263E-01 -0.97317263363E-01  0.55190814460E-01  0.88760853259E+00  0.88000000000E+00 0.  1.
        -11    1    4    4    0    0 -0.64804728167E-02  0.43372420237E-01 -0.33594989584E-01  0.55245341987E-01  0.51100000000E-03 0.  1.
         11    1    4    4    0    0 -0.10766550124E-01  0.72172590886E-01 -0.27127422864E-01  0.77852165474E-01  0.51100000000E-03 0. -1.
</event>
<event>
 8    1  0.1132255E+005  0.1043930E+01  0.7957747E-01            NaN
         13   -1    0    0    0    0  0.00000000000E+00  0.00000000000E+00  0.74505805969E-08  0.10566000000E+00  0.10566000000E+00 0.  1.
     999900   -1    0    0    0    0 -0.00000000000E+00 -0.00000000000E+00 -0.74505805969E-08  0.93827000000E+00  0.93827000000E+00 0. -1.
     999902    2    1    2    0    0  0.24032229304E-01  0.30214329669E-02  0.61480688513E-02  0.10189404851E+01  0.10186340051E+01 0.  0.
     999903    2    3    3    0    0  0.29867900255E-01  0.85538539092E-02 -0.12447084333E+00  0.12926303631E+00  0.15832935078E-01 0.  0.
         14    1    1    2    0    0 -0.24032229304E-01 -0.30214329669E-02 -0.61480688513E-02  0.24989514863E-01  0.00000000000E+00 0.  1.
     999901    1    3    3    0    0 -0.58356709510E-02 -0.55324209423E-02  0.13061891218E+00  0.88967744883E+00  0.88000000000E+00 0.  1.
        -11    1    4    4    0    0  0.24898199740E-01 -0.65825054041E-04 -0.89782479081E-01  0.93172310018E-01  0.51100000000E-03 0. -1.
         11    1    4    4    0    0  0.49697005154E-02  0.86196789632E-02 -0.34688364251E-01  0.36090726289E-01  0.51100000000E-03 0.  1.
</event>
<event>
 8    1  0.1132255E+005  0.1043930E+01  0.7957747E-01            NaN
         13   -1    0    0    0    0  0.00000000000E+00  0.00000000000E+00  0.74505805969E-08  0.10566000000E+00  0.10566000000E+00 0.  1.
     999900   -1    0    0    0    0 -0.00000000000E+00 -0.00000000000E+00 -0.74505805969E-08  0.93827000000E+00  0.93827000000E+00 0. -1.
     999902    2    1    2    0    0  0.18648727719E-01  0.13099831675E-01 -0.26321725366E-02  0.10209885753E+01  0.10207307980E+01 0.  0.
     999903    2    3    3    0    0  0.12577397681E+00 -0.37952494631E-01 -0.55028909346E-02  0.13301875596E+00  0.20105286277E-01 0.  0.
         14    1    1    2    0    0 -0.18648727719E-01 -0.13099831675E-01  0.26321725366E-02  0.22941424710E-01  0.00000000000E+00 0.  1.
     999901    1    3    3    0    0 -0.10712524910E+00  0.51052326306E-01  0.28707183980E-02  0.88796981933E+00  0.88000000000E+00 0. -1.
        -11    1    4    4    0    0  0.10718787400E+00 -0.30290567681E-01  0.23975140970E-02  0.11141260260E+00  0.51100000000E-03 0.  1.
         11    1    4    4    0    0  0.18586102812E-01 -0.76619269497E-02 -0.79004050315E-02  0.21606153360E-01  0.51100000000E-03 0. -1.
</event>
<event>
 8    1  0.1132255E+005  0.1043930E+01  0.7957747E-01            NaN
         13   -1    0    0    0    0  0.00000000000E+00  0.00000000000E+00  0.74505805969E-08  0.10566000000E+00  0.10566000000E+00 0. -1.
     999900   -1    0    0    0    0 -0.00000000000E+00 -0.00000000000E+00 -0.74505805969E-08  0.93827000000E+00  0.93827000000E+00 0.  1.
     999902    2    1    2    0    0 -0.93874672350E-02  0.21228693800E-01 -0.21762765666E-01  0.10121117670E+01  0.10116115010E+01 0.  0.
     999903    2    3    3    0    0 -0.38775894155E-01  0.25107685603E-01  0.11076915947E+00  0.12169420350E+00  0.20142160582E-01 0.  0.
         14    1    1    2    0    0  0.93874672350E-02 -0.21228693800E-01  0.21762765666E-01  0.31818232996E-01  0.00000000000E+00 0. -1.
     999901    1    3    3    0    0  0.29388426920E-01 -0.38789918034E-02 -0.13253192513E+00  0.89041756350E+00  0.88000000000E+00 0.  1.
        -11    1    4    4    0    0 -0.33010728573E-01  0.12858126460E-01  0.91662906798E-01  0.98272016467E-01  0.51100000000E-03 0. -1.
         11    1    4    4    0    0 -0.57651655822E-02  0.12249559143E-01  0.19106252670E-01  0.23422187034E-01  0.51100000000E-03 0.  1.
</event>
<event>
 8    1  0.1132255E+005  0.1043930E+01  0.7957747E-01            NaN
         13   -1    0    0    0    0  0.00000000000E+00  0.00000000000E+00  0.74505805969E-08  0.10566000000E+00  0.10566000000E+00 0. -1.
     999900   -1    0    0    0    0 -0.00000000000E+00 -0.00000000000E+00 -0.74505805969E-08  0.93827000000E+00  0.93827000000E+00 0.  1.
     999902    2    1    2    0    0 -0.19017553935E-02  0.22394998403E-02  0.23587275309E-01  0.10201604483E+01  0.10198834976E+01 0.  0.
     999903    2    3    3    0    0  0.98251132671E-02  0.15535134956E-01 -0.12424839725E+00  0.12765292480E+00  0.22797625358E-01 0.  0.
         14    1    1    2    0    0  0.19017553935E-02 -0.22394998403E-02 -0.23587275309E-01  0.23769551733E-01  0.00000000000E+00 0.  1.
     999901    1    3    3    0    0 -0.11726868661E-01 -0.13295635115E-01  0.14783567256E+00  0.89250752347E+00  0.88000000000E+00 0. -1.
        -11    1    4    4    0    0 -0.59219641579E-02  0.32052152338E-02 -0.13311760228E-01  0.14926725882E-01  0.51100000000E-03 0.  1.
         11    1    4    4    0    0  0.15747077425E-01  0.12329919722E-01 -0.11093663702E+00  0.11272619892E+00  0.51100000000E-03 0. -1.
</event>
<event>
 8    1  0.1132255E+005  0.1043930E+01  0.7957747E-01            NaN
         13   -1    0    0    0    0  0.00000000000E+00  0.00000000000E+00  0.74505805969E-08  0.10566000000E+00  0.10566000000E+00 0.  1.
     999900   -1    0    0    0    0 -0.00000000000E+00 -0.00000000000E+00 -0.74505805969E-08  0.93827000000E+00  0.93827000000E+00 0. -1.
     999902    2    1    2    0    0  0.18621345459E-01  0.99574575591E-02 -0.97488636161E-02  0.10206717582E+01  0.10204067288E+01 0.  0.
     999903    2    3    3    0    0 -0.37551842451E-01 -0.21682997992E-01 -0.12216895250E+00  0.13118043066E+00  0.20068860424E-01 0.  0.
         14    1    1    2    0    0 -0.18621345459E-01 -0.99574575591E-02  0.97488636161E-02  0.23258241756E-01  0.00000000000E+00 0.  1.
     999901    1    3    3    0    0  0.56173187910E-01  0.31640455552E-01  0.11242008889E+00  0.88949132759E+00  0.88000000000E+00 0. -1.
        -11    1    4    4    0    0 -0.39763948108E-01 -0.20549081763E-01 -0.11017815426E+00  0.11892402250E+00  0.51100000000E-03 0.  1.
         11    1    4    4    0    0  0.22121056566E-02 -0.11339162292E-02 -0.11990798242E-01  0.12256408158E-01  0.51100000000E-03 0. -1.
</event>
<event>
 8    1  0.1132255E+005  0.1043930E+01  0.7957747E-01            NaN
         13   -1    0    0    0    0  0.00000000000E+00  0.00000000000E+00  0.74505805969E-08  0.10566000000E+00  0.10566000000E+00 0. -1.
     999900   -1    0    0    0    0 -0.00000000000E+00 -0.00000000000E+00 -0.74505805969E-08  0.93827000000E+00  0.93827000000E+00 0. -1.
     999902    2    1    2    0    0  0.31925647700E-02  0.13242738084E-01 -0.19634545175E-01  0.10200327628E+01  0.10197527932E+01 0.  0.
     999903    2    3    3    0    0  0.95908472236E-01 -0.33378673373E-01 -0.81516728327E-01  0.13177649341E+00  0.20186538496E-01 0.  0.
         14    1    1    2    0    0 -0.31925647700E-02 -0.13242738084E-01  0.19634545175E-01  0.23897237205E-01  0.00000000000E+00 0. -1.
     999901    1    3    3    0    0 -0.92715907466E-01  0.46621411458E-01  0.61882183151E-01  0.88825626938E+00  0.88000000000E+00 0.  1.
        -11    1    4    4    0    0  0.68896080941E-01 -0.14806436399E-01 -0.60077420205E-01  0.92603769186E-01  0.51100000000E-03 0. -1.
         11    1    4    4    0    0  0.27012391295E-01 -0.18572236974E-01 -0.21439308122E-01  0.39172724228E-01  0.51100000000E-03 0.  1.
</event>
<event>
 8    1  0.1133922E+005  0.1043930E+01  0.7957747E-01            NaN
         13   -1    0    0    0    0  0.00000000000E+00  0.00000000000E+00  0.74505805969E-08  0.10566000000E+00  0.10566000000E+00 0. -1.
     999900   -1    0    0    0    0 -0.00000000000E+00 -0.00000000000E+00 -0.74505805969E-08  0.93827000000E+00  0.93827000000E+00 0. -1.
     999902    2    1    2    0    0  0.14027903536E-01  0.12916438814E-01  0.11554861302E-01  0.10216335588E+01  0.10213902277E+01 0.  0.
     999903    2    3    3    0    0  0.15529797300E-01 -0.10457947853E+00  0.75980182710E-01  0.13148853226E+00  0.18390324036E-01 0.  0.
         14    1    1    2    0    0 -0.14027903536E-01 -0.12916438814E-01 -0.11554861302E-01  0.22296441173E-01  0.00000000000E+00 0.  1.
     999901    1    3    3    0    0 -0.15018937636E-02  0.11749591735E+00 -0.64425321407E-01  0.89014502656E+00  0.88000000000E+00 0. -1.
        -11    1    4    4    0    0 -0.19275071783E-02 -0.49224983155E-01  0.35457514543E-01  0.60698523121E-01  0.51100000000E-03 0. -1.
         11    1    4    4    0    0  0.17457304478E-01 -0.55354495376E-01  0.40522668167E-01  0.70790009142E-01  0.51100000000E-03 0.  1.
</event>
<event>
 8    1  0.1132255E+005  0.1043930E+01  0.7957747E-01            NaN
         13   -1    0    0    0    0  0.00000000000E+00  0.00000000000E+00  0.74505805969E-08  0.10566000000E+00  0.10566000000E+00 0.  1.
     999900   -1    0    0    0    0 -0.00000000000E+00 -0.00000000000E+00 -0.74505805969E-08  0.93827000000E+00  0.93827000000E+00 0. -1.
     999902    2    1    2    0    0 -0.16001432315E-01 -0.15889229155E-01  0.10023797951E-01  0.10192522780E+01  0.10189534907E+01 0.  0.
     999903    2    3    3    0    0  0.10530102134E+00 -0.64415688940E-03 -0.68564787196E-01  0.12733139403E+00  0.20577507843E-01 0.  0.
         14    1    1    2    0    0  0.16001432315E-01  0.15889229155E-01 -0.10023797951E-01  0.24677722030E-01  0.00000000000E+00 0. -1.
     999901    1    3    3    0    0 -0.12130245366E+00 -0.15245072265E-01  0.78588585147E-01  0.89192088394E+00  0.88000000000E+00 0. -1.
        -11    1    4    4    0    0  0.58082270700E-01 -0.56552316571E-03 -0.49819531254E-01  0.76525269039E-01  0.51100000000E-03 0.  1.
         11    1    4    4    0    0  0.47218750641E-01 -0.78633723691E-04 -0.18745255942E-01  0.50806124992E-01  0.51100000000E-03 0. -1.
</event>
<event>
 8    1  0.1132255E+005  0.1043930E+01  0.7957747E-01            NaN
         13   -1    0    0    0    0  0.00000000000E+00  0.00000000000E+00  0.74505805969E-08  0.10566000000E+00  0.10566000000E+00 0. -1.
     999900   -1    0    0    0    0 -0.00000000000E+00 -0.00000000000E+00 -0.74505805969E-08  0.93827000000E+00  0.93827000000E+00 0.  1.
     999902    2    1    2    0    0  0.17335951271E-01  0.15462557633E-01 -0.25050898347E-02  0.10205654677E+01  0.10202979822E+01 0.  0.
     999903    2    3    3    0    0 -0.19266730726E-02  0.75898487952E-01 -0.10635301676E+00  0.13219170496E+00  0.19984747803E-01 0.  0.
         14    1    1    2    0    0 -0.17335951271E-01 -0.15462557633E-01  0.25050898347E-02  0.23364532311E-01  0.00000000000E+00 0.  1.
     999901    1    3    3    0    0  0.19262624343E-01 -0.60435930319E-01  0.10384792693E+00  0.88837376272E+00  0.88000000000E+00 0. -1.
        -11    1    4    4    0    0 -0.74371684003E-02  0.28826596316E-01 -0.29603439573E-01  0.41987008521E-01  0.51100000000E-03 0.  1.
         11    1    4    4    0    0  0.55104953277E-02  0.47071891636E-01 -0.76749577188E-01  0.90204696444E-01  0.51100000000E-03 0. -1.
</event>
<event>
 8    1  0.1132255E+005  0.1043930E+01  0.7957747E-01            NaN
         13   -1    0    0    0    0  0.00000000000E+00  0.00000000000E+00  0.74505805969E-08  0.10566000000E+00  0.10566000000E+00 0.  1.
     999900   -1    0    0    0    0 -0.00000000000E+00 -0.00000000000E+00 -0.74505805969E-08  0.93827000000E+00  0.93827000000E+00 0. -1.
     999902    2    1    2    0    0 -0.17160389616E-01 -0.16011782815E-01  0.58778545576E-02  0.10197348489E+01  0.10194477705E+01 0.  0.
     999903    2    3    3    0    0  0.35483767984E-01  0.94318650789E-01 -0.75708848098E-01  0.12754619066E+00  0.19521664758E-01 0.  0.
         14    1    1    2    0    0  0.17160389616E-01  0.16011782815E-01 -0.58778545576E-02  0.24195151061E-01  0.00000000000E+00 0.  1.
     999901    1    3    3    0    0 -0.52644157599E-01 -0.11033043360E+00  0.81586702656E-01  0.89218865828E+00  0.88000000000E+00 0.  1.
        -11    1    4    4    0    0  0.24213806064E-01  0.83331775361E-01 -0.61807953452E-01  0.10654096592E+00  0.51100000000E-03 0. -1.
         11    1    4    4    0    0  0.11269961920E-01  0.10986875428E-01 -0.13900894646E-01  0.21005224739E-01  0.51100000000E-03 0.  1.
</event>
<event>
 8    1  0.1132255E+005  0.1043930E+01  0.7957747E-01            NaN
         13   -1    0    0    0    0  0.00000000000E+00  0.00000000000E+00  0.74505805969E-08  0.10566000000E+00  0.10566000000E+00 0. -1.
     999900   -1    0    0    0    0 -0.00000000000E+00 -0.00000000000E+00 -0.74505805969E-08  0.93827000000E+00  0.93827000000E+00 0.  1.
     999902    2    1    2    0    0 -0.17327874337E-01 -0.14879221098E-01  0.77294070439E-02  0.10198179660E+01  0.10195328801E+01 0.  0.
     999903    2    3    3    0    0  0.41577186768E-01 -0.12268520559E+00  0.62366548863E-02  0.13128312437E+00  0.20397076961E-01 0.  0.
         14    1    1    2    0    0  0.17327874337E-01  0.14879221098E-01 -0.77294070439E-02  0.24112033982E-01  0.00000000000E+00 0.  1.
     999901    1    3    3    0    0 -0.58905061105E-01  0.10780598450E+00  0.14927521576E-02  0.88853484165E+00  0.88000000000E+00 0.  1.
        -11    1    4    4    0    0  0.39839797147E-01 -0.95548202830E-01  0.68470065839E-03  0.10352486869E+00  0.51100000000E-03 0. -1.
         11    1    4    4    0    0  0.17373896214E-02 -0.27137002763E-01  0.55519542280E-02  0.27758255680E-01  0.51100000000E-03 0.  1.
</event>
<event>
 8    1  0.1132255E+005  0.1043930E+01  0.7957747E-01            NaN
         13   -1    0    0    0    0  0.00000000000E+00  0.00000000000E+00  0.74505805969E-08  0.10566000000E+00  0.10566000000E+00 0. -1.
     999900   -1    0    0    0    0 -0.00000000000E+00 -0.00000000000E+00 -0.74505805969E-08  0.93827000000E+00  0.93827000000E+00 0.  1.
     999902    2    1    2    0    0  0.21008243773E-02  0.47292352334E-02  0.23609363562E-01  0.10197601598E+01  0.10194736889E+01 0.  0.
     999903    2    3    3    0    0  0.21786629900E-02 -0.11514998571E+00  0.55918504559E-01  0.13104484300E+00  0.27957216279E-01 0.  0.
         14    1    1    2    0    0 -0.21008243773E-02 -0.47292352334E-02 -0.23609363562E-01  0.24169840230E-01  0.00000000000E+00 0.  1.
     999901    1    3    3    0    0 -0.77838612753E-04  0.11987922095E+00 -0.32309140997E-01  0.88871531677E+00  0.88000000000E+00 0.  1.
        -11    1    4    4    0    0  0.71359499071E-03 -0.91168823000E-01  0.30683052158E-01  0.96197579574E-01  0.51100000000E-03 0.  1.
         11    1    4    4    0    0  0.14650679993E-02 -0.23981162713E-01  0.25235452401E-01  0.34847263424E-01  0.51100000000E-03 0. -1.
</event>
<event>
 8    1  0.1132255E+005  0.1043930E+01  0.7957747E-01            NaN
         13   -1    0    0    0    0  0.00000000000E+00  0.00000000000E+00  0.74505805969E-08  0.10566000000E+00  0.10566000000E+00 0.  1.
     999900   -1    0    0    0    0 -0.00000000000E+00 -0.00000000000E+00 -0.74505805969E-08  0.93827000000E+00  0.93827000000E+00 0. -1.
     999902    2    1    2    0    0  0.23479840661E-01  0.28595638803E-02  0.18474936668E-02  0.10202046284E+01  0.10199287184E+01 0.  0.
     999903    2    3    3    0    0 -0.87566264656E-01  0.92364245948E-01 -0.41322733400E-02  0.12870135686E+00  0.18653657520E-01 0.  0.
         14    1    1    2    0    0 -0.23479840661E-01 -0.28595638803E-02 -0.18474936668E-02  0.23725371565E-01  0.00000000000E+00 0.  1.
     999901    1    3    3    0    0  0.11104610532E+00 -0.89504682068E-01  0.59797670068E-02  0.89150327158E+00  0.88000000000E+00 0.  1.
        -11    1    4    4    0    0 -0.71181556068E-01  0.66715581747E-01 -0.85861740013E-02  0.97937563157E-01  0.51100000000E-03 0. -1.
         11    1    4    4    0    0 -0.16384708588E-01  0.25648664201E-01  0.44539006613E-02  0.30763793701E-01  0.51100000000E-03 0.  1.
</event>
<event>
 8    1  0.1132255E+005  0.1043930E+01  0.7957747E-01            NaN
         13   -1    0    0    0    0  0.00000000000E+00  0.00000000000E+00  0.74505805969E-08  0.10566000000E+00  0.10566000000E+00 0. -1.
     999900   -1    0    0    0    0 -0.00000000000E+00 -0.00000000000E+00 -0.74505805969E-08  0.93827000000E+00  0.93827000000E+00 0. -1.
     999902    2    1    2    0    0  0.80284201888E-02 -0.15911911624E-01  0.14954337418E-01  0.10206646466E+01  0.10203994532E+01 0.  0.
     999903    2    3    3    0    0 -0.69590002364E-01  0.23131737526E-01 -0.10342110035E+00  0.12849775057E+00  0.20926112741E-01 0.  0.
         14    1    1    2    0    0 -0.80284201888E-02  0.15911911624E-01 -0.14954337418E-01  0.23265353422E-01  0.00000000000E+00 0.  1.
     999901    1    3    3    0    0  0.77618422553E-01 -0.39043649150E-01  0.11837543777E+00  0.89216689600E+00  0.88000000000E+00 0.  1.
        -11    1    4    4    0    0 -0.45906660316E-01  0.17389435686E-01 -0.84157324793E-01  0.97429617530E-01  0.51100000000E-03 0. -1.
         11    1    4    4    0    0 -0.23683342048E-01  0.57423018395E-02 -0.19263775559E-01  0.31068133043E-01  0.51100000000E-03 0.  1.
</event>
<event>
 8    1  0.1132255E+005  0.1043930E+01  0.7957747E-01            NaN
         13   -1    0    0    0    0  0.00000000000E+00  0.00000000000E+00  0.74505805969E-08  0.10566000000E+00  0.10566000000E+00 0.  1.
     999900   -1    0    0    0    0 -0.00000000000E+00 -0.00000000000E+00 -0.74505805969E-08  0.93827000000E+00  0.93827000000E+00 0.  1.
     999902    2    1    2    0    0 -0.36239839883E-02 -0.18096617278E-01 -0.16269191340E-01  0.10193270042E+01  0.10190300457E+01 0.  0.
     999903    2    3    3    0    0  0.50381066701E-02 -0.64526551596E-01  0.10989042908E+00  0.12907590452E+00  0.19890307804E-01 0.  0.
         14    1    1    2    0    0  0.36239839883E-02  0.18096617278E-01  0.16269191340E-01  0.24602995828E-01  0.00000000000E+00 0. -1.
     999901    1    3    3    0    0 -0.86620906583E-02  0.46429934319E-01 -0.12615962042E+00  0.89025109966E+00  0.88000000000E+00 0.  1.
        -11    1    4    4    0    0 -0.49536814264E-02 -0.12848246543E-01  0.34293446731E-01  0.36958328000E-01  0.51100000000E-03 0. -1.
         11    1    4    4    0    0  0.99917880965E-02 -0.51678305053E-01  0.75596982345E-01  0.92117576516E-01  0.51100000000E-03 0.  1.
</event>
<event>
 8    1  0.1132255E+005  0.1043930E+01  0.7957747E-01            NaN
         13   -1    0    0    0    0  0.00000000000E+00  0.00000000000E+00  0.74505805969E-08  0.10566000000E+00  0.10566000000E+00 0. -1.
     999900   -1    0    0    0    0 -0.00000000000E+00 -0.00000000000E+00 -0.74505805969E-08  0.93827000000E+00  0.93827000000E+00 0.  1.
     999902    2    1    2    0    0 -0.11775236499E-01  0.65982145382E-03  0.20181287137E-01  0.10205553148E+01  0.10202875941E+01 0.  0.
     999903    2    3    3    0    0  0.45946538161E-01 -0.12647905919E-03 -0.11769362944E+00  0.12795130730E+00  0.20215000945E-01 0.  0.
         14    1    1    2    0    0  0.11775236499E-01 -0.65982145382E-03 -0.20181287137E-01  0.23374685227E-01  0.00000000000E+00 0.  1.
     999901    1    3    3    0    0 -0.57721774660E-01  0.78630051301E-03  0.13787491658E+00  0.89260400747E+00  0.88000000000E+00 0. -1.
        -11    1    4    4    0    0  0.42589974075E-01  0.33346907334E-02 -0.87525996397E-01  0.97396546244E-01  0.51100000000E-03 0.  1.
         11    1    4    4    0    0  0.33565640859E-02 -0.34611697926E-02 -0.30167633041E-01  0.30554761054E-01  0.51100000000E-03 0. -1.
</event>
<event>
 8    1  0.1132255E+005  0.1043930E+01  0.7957747E-01            NaN
         13   -1    0    0    0    0  0.00000000000E+00  0.00000000000E+00  0.74505805969E-08  0.10566000000E+00  0.10566000000E+00 0.  1.
     999900   -1    0    0    0    0 -0.00000000000E+00 -0.00000000000E+00 -0.74505805969E-08  0.93827000000E+00  0.93827000000E+00 0.  1.
     999902    2    1    2    0    0  0.59564062774E-02 -0.19415833136E-01  0.94413963223E-02  0.10215337209E+01  0.10212881815E+01 0.  0.
     999903    2    3    3    0    0  0.49125718828E-01 -0.35462424883E-01 -0.11488061726E+00  0.13160279904E+00  0.21232537905E-01 0.  0.
         14    1    1    2    0    0 -0.59564062774E-02  0.19415833136E-01 -0.94413963223E-02  0.22396279079E-01  0.00000000000E+00 0. -1.
     999901    1    3    3    0    0 -0.43169312551E-01  0.16046591747E-01  0.12432201358E+00  0.88993092188E+00  0.88000000000E+00 0. -1.
        -11    1    4    4    0    0  0.38871116071E-01 -0.16727449441E-01 -0.83911269422E-01  0.93979431188E-01  0.51100000000E-03 0.  1.
         11    1    4    4    0    0  0.10254602758E-01 -0.18734975442E-01 -0.30969347834E-01  0.37623367856E-01  0.51100000000E-03 0. -1.
</event>
<event>
 8    1  0.1132255E+005  0.1043930E+01  0.7957747E-01            NaN
         13   -1    0    0    0    0  0.00000000000E+00  0.00000000000E+00  0.74505805969E-08  0.10566000000E+00  0.10566000000E+00 0. -1.
     999900   -1    0    0    0    0 -0.00000000000E+00 -0.00000000000E+00 -0.74505805969E-08  0.93827000000E+00  0.93827000000E+00 0. -1.
     999902    2    1    2    0    0  0.23388623832E-01 -0.14259224079E-02 -0.94445467499E-02  0.10186661831E+01  0.10183528525E+01 0.  0.
     999903    2    3    3    0    0  0.77485748271E-01 -0.74695670580E-01  0.70644954993E-01  0.13034795009E+00  0.20405735401E-01 0.  0.
         14    1    1    2    0    0 -0.23388623832E-01  0.14259224079E-02  0.94445467499E-02  0.25263816869E-01  0.00000000000E+00 0.  1.
     999901    1    3    3    0    0 -0.54097124438E-01  0.73269748172E-01 -0.80089501743E-01  0.88831823304E+00  0.88000000000E+00 0. -1.
        -11    1    4    4    0    0  0.58366169532E-01 -0.59176500020E-01  0.63807126872E-01  0.10478586957E+00  0.51100000000E-03 0. -1.
         11    1    4    4    0    0  0.19119578739E-01 -0.15519170560E-01  0.68378281212E-02  0.25562080518E-01  0.51100000000E-03 0.  1.
</event>
<event>
 8    1  0.1132255E+005  0.1043930E+01  0.7957747E-01            NaN
         13   -1    0    0    0    0  0.00000000000E+00  0.00000000000E+00  0.74505805969E-08  0.10566000000E+00  0.10566000000E+00 0. -1.
     999900   -1    0    0    0    0 -0.00000000000E+00 -0.00000000000E+00 -0.74505805969E-08  0.93827000000E+00  0.93827000000E+00 0.  1.
     999902    2    1    2    0    0  0.17158931616E-01 -0.27406736470E-03 -0.12104050007E-01  0.10229297125E+01  0.10227141266E+01 0.  0.
     999903    2    3    3    0    0 -0.24211038263E-01 -0.12567136934E+00 -0.30113328829E-01  0.13289584134E+00  0.19365552580E-01 0.  0.
         14    1    1    2    0    0 -0.17158931616E-01  0.27406736470E-03  0.12104050007E-01  0.21000287467E-01  0.00000000000E+00 0.  1.
     999901    1    3    3    0    0  0.41369969879E-01  0.12539730197E+00  0.18009278823E-01  0.89003387119E+00  0.88000000000E+00 0. -1.
        -11    1    4    4    0    0 -0.18841269561E-01 -0.62565025323E-01 -0.22478922766E-01  0.69100932859E-01  0.51100000000E-03 0. -1.
         11    1    4    4    0    0 -0.53697687020E-02 -0.63106344016E-01 -0.76344060635E-02  0.63794908479E-01  0.51100000000E-03 0.  1.
</event>
<event>
 8    1  0.1132255E+005  0.1043930E+01  0.7957747E-01            NaN
         13   -1    0    0    0    0  0.00000000000E+00  0.00000000000E+00  0.74505805969E-08  0.10566000000E+00  0.10566000000E+00 0.  1.
     999900   -1    0    0    0    0 -0.00000000000E+00 -0.00000000000E+00 -0.74505805969E-08  0.93827000000E+00  0.93827000000E+00 0. -1.
     999902    2    1    2    0    0  0.32774121166E-03 -0.20221724161E-01  0.11715059015E-01  0.10205576199E+01  0.10202899526E+01 0.  0.
     999903    2    3    3    0    0  0.59637781260E-01 -0.11536381679E-02  0.11613882790E+00  0.13219643423E+00  0.20728580310E-01 0.  0.
         14    1    1    2    0    0 -0.32774121166E-03  0.20221724161E-01 -0.11715059015E-01  0.23372380068E-01  0.00000000000E+00 0. -1.
     999901    1    3    3    0    0 -0.59310040048E-01 -0.19068085993E-01 -0.10442376889E+00  0.88836118570E+00  0.88000000000E+00 0. -1.
        -11    1    4    4    0    0  0.14147755743E-02 -0.29431753683E-02  0.16076751462E-01  0.16413010989E-01  0.51100000000E-03 0.  1.
         11    1    4    4    0    0  0.58223005686E-01  0.17895372004E-02  0.10006207644E+00  0.11578342324E+00  0.51100000000E-03 0. -1.
</event>
<event>
 8    1  0.1132255E+005  0.1043930E+01  0.7957747E-01            NaN
         13   -1    0    0    0    0  0.00000000000E+00  0.00000000000E+00  0.74505805969E-08  0.10566000000E+00  0.10566000000E+00 0.  1.
     999900   -1    0    0    0    0 -0.00000000000E+00 -0.00000000000E+00 -0.74505805969E-08  0.93827000000E+00  0.93827000000E+00 0.  1.
     999902    2    1    2    0    0  0.17721950482E-01 -0.78240009405E-02 -0.20108124422E-01  0.10160083384E+01  0.10156245982E+01 0.  0.
     999903    2    3    3    0    0 -0.10661949706E+00 -0.62789178237E-01 -0.74644145350E-02  0.12547937777E+00  0.19471997967E-01 0.  0.
         14    1    1    2    0    0 -0.17721950482E-01  0.78240009405E-02  0.20108124422E-01  0.27921661615E-01  0.00000000000E+00 0.  1.
     999901    1    3    3    0    0  0.12434144754E+00  0.54965177296E-01 -0.12643709887E-01  0.89052896061E+00  0.88000000000E+00 0. -1.
        -11    1    4    4    0    0 -0.32565839827E-01 -0.18533859915E-01 -0.11246466401E-01  0.39125209450E-01  0.51100000000E-03 0. -1.
         11    1    4    4    0    0 -0.74053657232E-01 -0.44255318322E-01  0.37820518665E-02  0.86354168321E-01  0.51100000000E-03 0.  1.
</event>
<event>
 7    1  0.1132255E+005  0.1043930E+01  0.7957747E-01            NaN
         13   -1    0    0    0    0  0.00000000000E+00  0.00000000000E+00  0.74505805969E-08  0.10566000000E+00  0.10566000000E+00 0.  1.
     999900   -1    0    0    0    0 -0.00000000000E+00 -0.00000000000E+00 -0.74505805969E-08  0.93827000000E+00  0.93827000000E+00 0. -1.
     999903    2    1    2    0    0  0.10754351328E+00  0.74274735378E-02  0.33640645405E-01  0.11465544532E+00  0.19834402057E-01 0.  0.
         14    1    1    2    0    0  0.28740760123E-01 -0.17682889115E-01 -0.18742228565E-01  0.38600349629E-01  0.00000000000E+00 0. -1.
     999901    1    1    2    0    0 -0.13628427341E+00  0.10255415577E-01 -0.14898416840E-01  0.89067420506E+00  0.88000000000E+00 0.  1.
        -11    1    3    3    0    0  0.75160470587E-01 -0.30215695422E-02  0.18846710074E-01  0.77547958213E-01  0.51100000000E-03 0. -1.
         11    1    3    3    0    0  0.32383042695E-01  0.10449043080E-01  0.14793935331E-01  0.37107487103E-01  0.51100000000E-03 0.  1.
</event>
<event>
 8    1  0.1132255E+005  0.1043930E+01  0.7957747E-01            NaN
         13   -1    0    0    0    0  0.00000000000E+00  0.00000000000E+00  0.74505805969E-08  0.10566000000E+00  0.10566000000E+00 0.  1.
     999900   -1    0    0    0    0 -0.00000000000E+00 -0.00000000000E+00 -0.74505805969E-08  0.93827000000E+00  0.93827000000E+00 0. -1.
     999902    2    1    2    0    0 -0.89433554079E-02  0.21821260846E-01  0.61048365025E-02  0.10195697853E+01  0.10192787288E+01 0.  0.
     999903    2    3    3    0    0 -0.42099899803E-01  0.57557163837E-01  0.10933115730E+00  0.13219608472E+00  0.20911101963E-01 0.  0.
         14    1    1    2    0    0  0.89433554079E-02 -0.21821260846E-01 -0.61048365025E-02  0.24360214687E-01  0.00000000000E+00 0.  1.
     999901    1    3    3    0    0  0.33156544395E-01 -0.35735902991E-01 -0.10322632080E+00  0.88737370059E+00  0.88000000000E+00 0.  1.
        -11    1    4    4    0    0 -0.40620623794E-01  0.41351919712E-01  0.87592345268E-01  0.10503664319E+00  0.51100000000E-03 0.  1.
         11    1    4    4    0    0 -0.14792760096E-02  0.16205244125E-01  0.21738812036E-01  0.27159441534E-01  0.51100000000E-03 0. -1.
</event>
<event>
 8    1  0.1132255E+005  0.1043930E+01  0.7957747E-01            NaN
         13   -1    0    0    0    0  0.00000000000E+00  0.00000000000E+00  0.74505805969E-08  0.10566000000E+00  0.10566000000E+00 0.  1.
     999900   -1    0    0    0    0 -0.00000000000E+00 -0.00000000000E+00 -0.74505805969E-08  0.93827000000E+00  0.93827000000E+00 0. -1.
     999902    2    1    2    0    0  0.14321022735E-01  0.47987193420E-02 -0.18143148221E-01  0.10203229412E+01  0.10200498081E+01 0.  0.
     999903    2    3    3    0    0 -0.23591949104E-01  0.29975134949E-01 -0.12547941563E+00  0.13263362635E+00  0.19786518488E-01 0.  0.
         14    1    1    2    0    0 -0.14321022735E-01 -0.47987193420E-02  0.18143148221E-01  0.23607058836E-01  0.00000000000E+00 0.  1.
     999901    1    3    3    0    0  0.37912971839E-01 -0.25176415607E-01  0.10733626741E+00  0.88768931482E+00  0.88000000000E+00 0.  1.
        -11    1    4    4    0    0 -0.16331953613E-01  0.64394331197E-02 -0.40243266569E-01  0.43908776262E-01  0.51100000000E-03 0.  1.
         11    1    4    4    0    0 -0.72599954916E-02  0.23535701829E-01 -0.85236149061E-01  0.88724850087E-01  0.51100000000E-03 0. -1.
</event>
<event>
 8    1  0.1132255E+005  0.1043930E+01  0.7957747E-01            NaN
         13   -1    0    0    0    0  0.00000000000E+00  0.00000000000E+00  0.74505805969E-08  0.10566000000E+00  0.10566000000E+00 0.  1.
     999900   -1    0    0    0    0 -0.00000000000E+00 -0.00000000000E+00 -0.74505805969E-08  0.93827000000E+00  0.93827000000E+00 0. -1.
     999902    2    1    2    0    0 -0.86137272800E-02 -0.21668588402E-01 -0.29465907318E-02  0.10204266722E+01  0.10201559621E+01 0.  0.
     999903    2    3    3    0    0  0.10743232510E+00  0.60366985728E-01  0.29919181036E-01  0.12841956423E+00  0.20262024624E-01 0.  0.
         14    1    1    2    0    0  0.86137272800E-02  0.21668588402E-01  0.29465907318E-02  0.23503327806E-01  0.00000000000E+00 0.  1.
     999901    1    3    3    0    0 -0.11604605238E+00 -0.82035574131E-01 -0.32865771768E-01  0.89200710796E+00  0.88000000000E+00 0.  1.
        -11    1    4    4    0    0  0.38792873993E-01  0.20276514496E-01  0.20611483767E-01  0.48385106147E-01  0.51100000000E-03 0.  1.
         11    1    4    4    0    0  0.68639451108E-01  0.40090471232E-01  0.93076972695E-02  0.80034458088E-01  0.51100000000E-03 0. -1.
</event>
<event>
 8    1  0.1132255E+005  0.1043930E+01  0.7957747E-01            NaN
         13   -1    0    0    0    0  0.00000000000E+00  0.00000000000E+00  0.74505805969E-08  0.10566000000E+00  0.10566000000E+00 0. -1.
     999900   -1    0    0    0    0 -0.00000000000E+00 -0.00000000000E+00 -0.74505805969E-08  0.93827000000E+00  0.93827000000E+00 0.  1.
     999902    2    1    2    0    0  0.79082605704E-02 -0.16600595617E-01  0.15503370515E-01  0.10198784957E+01  0.10195948564E+01 0.  0.
     999903    2    3    3    0    0  0.85907485085E-01 -0.80615072599E-01 -0.54569453229E-01  0.13134491004E+00  0.19868926562E-01 0.  0.
         14    1    1    2    0    0 -0.79082605704E-02  0.16600595617E-01 -0.15503370515E-01  0.24051504266E-01  0.00000000000E+00 0.  1.
     999901    1    3    3    0    0 -0.77999224514E-01  0.64014476982E-01  0.70072823745E-01  0.88853358570E+00  0.88000000000E+00 0. -1.
        -11    1    4    4    0    0  0.17211793685E-01 -0.72756580006E-02 -0.11983632036E-01  0.22204720196E-01  0.51100000000E-03 0.  1.
         11    1    4    4    0    0  0.68695691400E-01 -0.73339414598E-01 -0.42585821193E-01  0.10914018984E+00  0.51100000000E-03 0. -1.
</event>
<event>
 8    1  0.1132255E+005  0.1043930E+01  0.7957747E-01            NaN
         13   -1    0    0    0    0  0.00000000000E+00  0.00000000000E+00  0.74505805969E-08  0.10566000000E+00  0.10566000000E+00 0.  1.
     999900   -1    0    0    0    0 -0.00000000000E+00 -0.00000000000E+00 -0.74505805969E-08  0.93827000000E+00  0.93827000000E+00 0.  1.
     999902    2    1    2    0    0  0.47512485212E-02 -0.22291378090E-01  0.35891648421E-02  0.10208570287E+01  0.10205962527E+01 0.  0.
     999903    2    3    3    0    0  0.98217437174E-01 -0.32523677397E-01  0.80451579622E-01  0.13251674528E+00  0.19590215898E-01 0.  0.
         14    1    1    2    0    0 -0.47512485212E-02  0.22291378090E-01 -0.35891648421E-02  0.23072971285E-01  0.00000000000E+00 0. -1.
     999901    1    3    3    0    0 -0.93466188653E-01  0.10232299306E-01 -0.76862414780E-01  0.88834028344E+00  0.88000000000E+00 0.  1.
        -11    1    4    4    0    0  0.66661514579E-01 -0.15975372766E-01  0.61798684836E-01  0.92294683647E-01  0.51100000000E-03 0. -1.
         11    1    4    4    0    0  0.31555922595E-01 -0.16548304630E-01  0.18652894786E-01  0.40222061631E-01  0.51100000000E-03 0.  1.
</event>
<event>
 8    1  0.1132255E+005  0.1043930E+01  0.7957747E-01            NaN
         13   -1    0    0    0    0  0.00000000000E+00  0.00000000000E+00  0.74505805969E-08  0.10566000000E+00  0.10566000000E+00 0.  1.
     999900   -1    0    0    0    0 -0.00000000000E+00 -0.00000000000E+00 -0.74505805969E-08  0.93827000000E+00  0.93827000000E+00 0. -1.
     999902    2    1    2    0    0 -0.12471253516E-01 -0.20275299545E-01  0.81790514775E-03  0.10201121725E+01  0.10198340824E+01 0.  0.
     999903    2    3    3    0    0 -0.90219883111E-01  0.89685358598E-01 -0.15496499277E-01  0.12971767821E+00  0.20085907886E-01 0.  0.
         14    1    1    2    0    0  0.12471253516E-01  0.20275299545E-01 -0.81790514775E-03  0.23817827456E-01  0.00000000000E+00 0.  1.
     999901    1    3    3    0    0  0.77748629595E-01 -0.10996065814E+00  0.16314404425E-01  0.89039449433E+00  0.88000000000E+00 0. -1.
        -11    1    4    4    0    0 -0.61011402214E-01  0.52938707098E-01 -0.17297890655E-02  0.80796975194E-01  0.51100000000E-03 0.  1.
         11    1    4    4    0    0 -0.29208480897E-01  0.36746651500E-01 -0.13766710211E-01  0.48920703019E-01  0.51100000000E-03 0. -1.
</event>
<event>
 8    1  0.1132255E+005  0.1043930E+01  0.7957747E-01            NaN
         13   -1    0    0    0    0  0.00000000000E+00  0.00000000000E+00  0.74505805969E-08  0.10566000000E+00  0.10566000000E+00 0.  1.
     999900   -1    0    0    0    0 -0.00000000000E+00 -0.00000000000E+00 -0.74505805969E-08  0.93827000000E+00  0.93827000000E+00 0. -1.
     999902    2    1    2    0    0  0.10580467084E-01  0.19317267070E-01  0.67570737847E-02  0.10208917462E+01  0.10206317634E+01 0.  0.
     999903    2    3    3    0    0 -0.83357447559E-01 -0.46787250719E-01 -0.84003325770E-01  0.12879781103E+00  0.19869738138E-01 0.  0.
         14    1    1    2    0    0 -0.10580467084E-01 -0.19317267070E-01 -0.67570737847E-02  0.23038253773E-01  0.00000000000E+00 0. -1.
     999901    1    3    3    0    0  0.93937914643E-01  0.66104517789E-01  0.90760399554E-01  0.89209393519E+00  0.88000000000E+00 0.  1.
        -11    1    4    4    0    0 -0.32158534736E-01 -0.27658167676E-01 -0.43575662958E-01  0.60813198557E-01  0.51100000000E-03 0. -1.
         11    1    4    4    0    0 -0.51198912823E-01 -0.19129083044E-01 -0.40427662812E-01  0.67984612478E-01  0.51100000000E-03 0.  1.
</event>
<event>
 8    1  0.1132255E+005  0.1043930E+01  0.7957747E-01            NaN
         13   -1    0    0    0    0  0.00000000000E+00  0.00000000000E+00  0.74505805969E-08  0.10566000000E+00  0.10566000000E+00 0.  1.
     999900   -1    0    0    0    0 -0.00000000000E+00 -0.00000000000E+00 -0.74505805969E-08  0.93827000000E+00  0.93827000000E+00 0.  1.
     999902    2    1    2    0    0 -0.10755958744E-01  0.22931567808E-01 -0.22999393215E-02  0.10184970062E+01  0.10181794118E+01 0.  0.
     999903    2    3    3    0    0 -0.39918779016E-02  0.12880584596E+00  0.17820913492E-01  0.13189677825E+00  0.21732328721E-01 0.  0.
         14    1    1    2    0    0  0.10755958744E-01 -0.22931567808E-01  0.22999393215E-02  0.25432993758E-01  0.00000000000E+00 0.  1.
     999901    1    3    3    0    0 -0.67640808424E-02 -0.10587427815E+00 -0.20120852814E-01  0.88660022800E+00  0.88000000000E+00 0. -1.
        -11    1    4    4    0    0  0.46084616384E-02  0.64323699215E-01  0.17475494191E-03  0.64490835470E-01  0.51100000000E-03 0.  1.
         11    1    4    4    0    0 -0.86003395400E-02  0.64482146744E-01  0.17646158550E-01  0.67405942776E-01  0.51100000000E-03 0. -1.
</event>
<event>
 8    1  0.1132255E+005  0.1043930E+01  0.7957747E-01            NaN
         13   -1    0    0    0    0  0.00000000000E+00  0.00000000000E+00  0.74505805969E-08  0.10566000000E+00  0.10566000000E+00 0.  1.
     999900   -1    0    0    0    0 -0.00000000000E+00 -0.00000000000E+00 -0.74505805969E-08  0.93827000000E+00  0.93827000000E+00 0.  1.
     999902    2    1    2    0    0 -0.16068061903E-01 -0.10979467380E-01 -0.13257019266E-01  0.10203826036E+01  0.10201108655E+01 0.  0.
     999903    2    3    3    0    0  0.11847550813E+00  0.44051298271E-01  0.77179209342E-02  0.12821092420E+00  0.20037761265E-01 0.  0.
         14    1    1    2    0    0  0.16068061903E-01  0.10979467380E-01  0.13257019266E-01  0.23547396398E-01  0.00000000000E+00 0.  1.
     999901    1    3    3    0    0 -0.13454357003E+00 -0.55030765651E-01 -0.20974940201E-01  0.89217167940E+00  0.88000000000E+00 0. -1.
        -11    1    4    4    0    0  0.38086218834E-01  0.18091943510E-01 -0.61100349541E-02  0.42608357551E-01  0.51100000000E-03 0.  1.
         11    1    4    4    0    0  0.80389289293E-01  0.25959354761E-01  0.13827955888E-01  0.85602566653E-01  0.51100000000E-03 0. -1.
</event>
<event>
 8    1  0.1132255E+005  0.1043930E+01  0.7957747E-01            NaN
         13   -1    0    0    0    0  0.00000000000E+00  0.00000000000E+00  0.74505805969E-08  0.10566000000E+00  0.10566000000E+00 0. -1.
     999900   -1    0    0    0    0 -0.00000000000E+00 -0.00000000000E+00 -0.74505805969E-08  0.93827000000E+00  0.93827000000E+00 0.  1.
     999902    2    1    2    0    0 -0.19591725246E-01  0.12037033277E-01  0.27652660156E-02  0.10207702814E+01  0.10205075183E+01 0.  0.
     999903    2    3    3    0    0 -0.12556923195E+00  0.36268426905E-01  0.20808980641E-01  0.13389714055E+00  0.20307628390E-01 0.  0.
         14    1    1    2    0    0  0.19591725246E-01 -0.12037033277E-01 -0.27652660156E-02  0.23159718572E-01  0.00000000000E+00 0. -1.
     999901    1    3    3    0    0  0.10597750670E+00 -0.24231393627E-01 -0.18043714625E-01  0.88687314087E+00  0.88000000000E+00 0.  1.
        -11    1    4    4    0    0 -0.60008710519E-01  0.13957147304E-01  0.19518211086E-01  0.64630248213E-01  0.51100000000E-03 0. -1.
         11    1    4    4    0    0 -0.65560521431E-01  0.22311279600E-01  0.12907695549E-02  0.69266892342E-01  0.51100000000E-03 0.  1.
</event>
<event>
 8    1  0.1132255E+005  0.1043930E+01  0.7957747E-01            NaN
         13   -1    0    0    0    0  0.00000000000E+00  0.00000000000E+00  0.74505805969E-08  0.10566000000E+00  0.10566000000E+00 0.  1.
     999900   -1    0    0    0    0 -0.00000000000E+00 -0.00000000000E+00 -0.74505805969E-08  0.93827000000E+00  0.93827000000E+00 0. -1.
     999902    2    1    2    0    0  0.21657684414E-01  0.86325438679E-02 -0.32446387478E-02  0.10203905907E+01  0.10201190391E+01 0.  0.
     999903    2    3    3    0    0  0.86492104437E-01  0.69522092965E-01  0.70208551883E-01  0.13286233179E+00  0.20222584215E-01 0.  0.
         14    1    1    2    0    0 -0.21657684414E-01 -0.86325438679E-02  0.32446387478E-02  0.23539409262E-01  0.00000000000E+00 0.  1.
     999901    1    3    3    0    0 -0.64834420023E-01 -0.60889549097E-01 -0.73453190631E-01  0.88752825894E+00  0.88000000000E+00 0. -1.
        -11    1    4    4    0    0  0.25121272964E-01  0.20356514213E-01  0.10085104538E-01  0.33873831799E-01  0.51100000000E-03 0. -1.
         11    1    4    4    0    0  0.61370831472E-01  0.49165578753E-01  0.60123447345E-01  0.98988499996E-01  0.51100000000E-03 0.  1.
</event>
<event>
 8    1  0.1132255E+005  0.1043930E+01  0.7957747E-01            NaN
         13   -1    0    0    0    0  0.00000000000E+00  0.00000000000E+00  0.74505805969E-08  0.10566000000E+00  0.10566000000E+00 0.  1.
     999900   -1    0    0    0    0 -0.00000000000E+00 -0.00000000000E+00 -0.74505805969E-08  0.93827000000E+00  0.93827000000E+00 0.  1.
     999902    2    1    2    0    0 -0.74023015399E-02  0.23865843859E-01 -0.80571319244E-02  0.10176756681E+01  0.10173369527E+01 0.  0.
     999903    2    3    3    0    0 -0.11979489382E+00  0.12137918095E-01  0.41660753694E-01  0.12905791716E+00  0.20547066547E-01 0.  0.
         14    1    1    2    0    0  0.74023015399E-02 -0.23865843859E-01  0.80571319244E-02  0.26254331948E-01  0.00000000000E+00 0.  1.
     999901    1    3    3    0    0  0.11239259228E+00  0.11727925764E-01 -0.49717885618E-01  0.88861775089E+00  0.88000000000E+00 0.  1.
        -11    1    4    4    0    0 -0.54616498510E-01  0.15785739787E-01  0.20298916775E-01  0.60369351772E-01  0.51100000000E-03 0. -1.
         11    1    4    4    0    0 -0.65178395309E-01 -0.36478216914E-02  0.21361836918E-01  0.68688565392E-01  0.51100000000E-03 0.  1.
</event>
<event>
 8    1  0.1132255E+005  0.1043930E+01  0.7957747E-01            NaN
         13   -1    0    0    0    0  0.00000000000E+00  0.00000000000E+00  0.74505805969E-08  0.10566000000E+00  0.10566000000E+00 0.  1.
     999900   -1    0    0    0    0 -0.00000000000E+00 -0.00000000000E+00 -0.74505805969E-08  0.93827000000E+00  0.93827000000E+00 0.  1.
     999902    2    1    2    0    0  0.23258201824E-01  0.28233244539E-02 -0.88035674840E-02  0.10189016578E+01  0.10185942128E+01 0.  0.
     999903    2    3    3    0    0 -0.69484863357E-01  0.17213650905E-01  0.10230124974E+00  0.12696408260E+00  0.23019047754E-01 0.  0.
         14    1    1    2    0    0 -0.23258201824E-01 -0.28233244539E-02  0.88035674840E-02  0.25028342204E-01  0.00000000000E+00 0.  1.
     999901    1    3    3    0    0  0.92743065180E-01 -0.14390326451E-01 -0.11110481722E+00  0.89193757519E+00  0.88000000000E+00 0.  1.
        -11    1    4    4    0    0 -0.36964094301E-01 -0.20669448241E-02  0.56822099555E-01  0.67820562127E-01  0.51100000000E-03 0. -1.
         11    1    4    4    0    0 -0.32520769056E-01  0.19280595729E-01  0.45479150183E-01  0.59143520474E-01  0.51100000000E-03 0.  1.
</event>
<event>
 8    1  0.1132255E+005  0.1043930E+01  0.7957747E-01            NaN
         13   -1    0    0    0    0  0.00000000000E+00  0.00000000000E+00  0.74505805969E-08  0.10566000000E+00  0.10566000000E+00 0. -1.
     999900   -1    0    0    0    0 -0.00000000000E+00 -0.00000000000E+00 -0.74505805969E-08  0.93827000000E+00  0.93827000000E+00 0. -1.
     999902    2    1    2    0    0 -0.65408177693E-02  0.21023350642E-01 -0.83559721028E-02  0.10203803537E+01  0.10201085631E+01 0.  0.
     999903    2    3    3    0    0 -0.51202439373E-01 -0.84848200456E-01 -0.81488240181E-01  0.12990195736E+00  0.20329247908E-01 0.  0.
         14    1    1    2    0    0  0.65408177693E-02 -0.21023350642E-01  0.83559721028E-02  0.23549646262E-01  0.00000000000E+00 0. -1.
     999901    1    3    3    0    0  0.44661621603E-01  0.10587155110E+00  0.73132268078E-01  0.89047839637E+00  0.88000000000E+00 0.  1.
        -11    1    4    4    0    0 -0.20883504085E-01 -0.49219050964E-01 -0.52081899268E-01  0.74641952500E-01  0.51100000000E-03 0.  1.
         11    1    4    4    0    0 -0.30318935288E-01 -0.35629149492E-01 -0.29406340913E-01  0.55260004862E-01  0.51100000000E-03 0. -1.
</event>
<event>
 8    1  0.1132255E+005  0.1043930E+01  0.7957747E-01            NaN
         13   -1    0    0    0    0  0.00000000000E+00  0.00000000000E+00  0.74505805969E-08  0.10566000000E+00  0.10566000000E+00 0. -1.
     999900   -1    0    0    0    0 -0.00000000000E+00 -0.00000000000E+00 -0.74505805969E-08  0.93827000000E+00  0.93827000000E+00 0. -1.
     999902    2    1    2    0    0  0.18242410967E-02  0.24314218966E-01  0.12338968028E-01  0.10166031042E+01  0.10162357563E+01 0.  0.
     999903    2    3    3    0    0  0.11260696338E+00 -0.51251030844E-01 -0.13487775395E-01  0.12606959044E+00  0.20115297268E-01 0.  0.
         14    1    1    2    0    0 -0.18242410967E-02 -0.24314218966E-01 -0.12338968028E-01  0.27326895753E-01  0.00000000000E+00 0. -1.
     999901    1    3    3    0    0 -0.11078272229E+00  0.75565249811E-01  0.25826743422E-01  0.89053351381E+00  0.88000000000E+00 0.  1.
        -11    1    4    4    0    0  0.67329757144E-01 -0.19822545951E-01 -0.60003783106E-02  0.70444979849E-01  0.51100000000E-03 0. -1.
         11    1    4    4    0    0  0.45277206237E-01 -0.31428484894E-01 -0.74873970841E-02  0.55624610592E-01  0.51100000000E-03 0.  1.
</event>
<event>
 8    1  0.1132255E+005  0.1043930E+01  0.7957747E-01            NaN
         13   -1    0    0    0    0  0.00000000000E+00  0.00000000000E+00  0.74505805969E-08  0.10566000000E+00  0.10566000000E+00 0. -1.
     999900   -1    0    0    0    0 -0.00000000000E+00 -0.00000000000E+00 -0.74505805969E-08  0.93827000000E+00  0.93827000000E+00 0.  1.
     999902    2    1    2    0    0 -0.19178391288E-01  0.74228176937E-02  0.11929862773E-01  0.10201554224E+01  0.10198783532E+01 0.  0.
     999903    2    3    3    0    0  0.10201280256E+00  0.16410685960E-01 -0.72685387192E-01  0.12778339920E+00  0.19222619456E-01 0.  0.
         14    1    1    2    0    0  0.19178391288E-01 -0.74228176937E-02 -0.11929862773E-01  0.23774577613E-01  0.00000000000E+00 0.  1.
     999901    1    3    3    0    0 -0.12119119385E+00 -0.89878682660E-02  0.84615249965E-01  0.89237202319E+00  0.88000000000E+00 0. -1.
        -11    1    4    4    0    0  0.40773548133E-01  0.44684775070E-02 -0.40215157955E-01  0.57445361596E-01  0.51100000000E-03 0.  1.
         11    1    4    4    0    0  0.61239254431E-01  0.11942208453E-01 -0.32470229237E-01  0.70338037602E-01  0.51100000000E-03 0. -1.
</event>
<event>
 8    1  0.1132255E+005  0.1043930E+01  0.7957747E-01            NaN
         13   -1    0    0    0    0  0.00000000000E+00  0.00000000000E+00  0.74505805969E-08  0.10566000000E+00  0.10566000000E+00 0. -1.
     999900   -1    0    0    0    0 -0.00000000000E+00 -0.00000000000E+00 -0.74505805969E-08  0.93827000000E+00  0.93827000000E+00 0.  1.
     999902    2    1    2    0    0  0.41124390800E-02  0.14705887599E-01  0.16898839132E-01  0.10211540028E+01  0.10208999713E+01 0.  0.
     999903    2    3    3    0    0  0.79092137906E-01 -0.71106999363E-01 -0.71483088978E-01  0.12941571605E+00  0.18078271879E-01 0.  0.
         14    1    1    2    0    0 -0.41124390800E-02 -0.14705887599E-01 -0.16898839132E-01  0.22775997218E-01  0.00000000000E+00 0.  1.
     999901    1    3    3    0    0 -0.74979698826E-01  0.85812886962E-01  0.88381928111E-01  0.89173828673E+00  0.88000000000E+00 0.  1.
        -11    1    4    4    0    0  0.38460665126E-01 -0.43024370966E-01 -0.46204635219E-01  0.73928673028E-01  0.51100000000E-03 0.  1.
         11    1    4    4    0    0  0.40631472781E-01 -0.28082628397E-01 -0.25278453759E-01  0.55487043023E-01  0.51100000000E-03 0. -1.
</event>
<event>
 8    1  0.1132255E+005  0.1043930E+01  0.7957747E-01            NaN
         13   -1    0    0    0    0  0.00000000000E+00  0.00000000000E+00  0.74505805969E-08  0.10566000000E+00  0.10566000000E+00 0.  1.
     999900   -1    0    0    0    0 -0.00000000000E+00 -0.00000000000E+00 -0.74505805969E-08  0.93827000000E+00  0.93827000000E+00 0. -1.
     999902    2    1    2    0    0 -0.11909850979E-01 -0.18008892906E-01 -0.89183039303E-02  0.10205697577E+01  0.10203023716E+01 0.  0.
     999903    2    3    3    0    0  0.16944784190E-01  0.12662499348E+00  0.59070612615E-02  0.12817335337E+00  0.85147199955E-02 0.  0.
         14    1    1    2    0    0  0.11909850979E-01  0.18008892906E-01  0.89183039303E-02  0.23360242273E-01  0.00000000000E+00 0.  1.
     999901    1    3    3    0    0 -0.28854635169E-01 -0.14463388638E+00 -0.14825365192E-01  0.89239640436E+00  0.88000000000E+00 0. -1.
        -11    1    4    4    0    0  0.96676292245E-02  0.57679232996E-01 -0.10420747201E-02  0.58495333272E-01  0.51100000000E-03 0. -1.
         11    1    4    4    0    0  0.72771549659E-02  0.68945760480E-01  0.69491359816E-02  0.69678020096E-01  0.51100000000E-03 0.  1.
</event>
<event>
 8    1  0.1132255E+005  0.1043930E+01  0.7957747E-01            NaN
         13   -1    0    0    0    0  0.00000000000E+00  0.00000000000E+00  0.74505805969E-08  0.10566000000E+00  0.10566000000E+00 0. -1.
     999900   -1    0    0    0    0 -0.00000000000E+00 -0.00000000000E+00 -0.74505805969E-08  0.93827000000E+00  0.93827000000E+00 0.  1.
     999902    2    1    2    0    0 -0.32998588993E-01  0.34964524273E-02  0.16015153526E-01  0.10070841427E+01  0.10064098834E+01 0.  0.
     999903    2    3    3    0    0 -0.88221849448E-01 -0.67093121316E-01 -0.42915162168E-01  0.12057115438E+00  0.20275859451E-01 0.  0.
         14    1    1    2    0    0  0.32998588993E-01 -0.34964524273E-02 -0.16015153526E-01  0.36845857264E-01  0.00000000000E+00 0.  1.
     999901    1    3    3    0    0  0.55223260456E-01  0.70589573743E-01  0.58930315695E-01  0.88651298836E+00  0.88000000000E+00 0. -1.
        -11    1    4    4    0    0 -0.30909127989E-01 -0.33818408035E-01 -0.23605354492E-01  0.51541563779E-01  0.51100000000E-03 0. -1.
         11    1    4    4    0    0 -0.57312721460E-01 -0.33274713280E-01 -0.19309807676E-01  0.69029590601E-01  0.51100000000E-03 0.  1.
</event>
<event>
 8    1  0.1132255E+005  0.1043930E+01  0.7957747E-01            NaN
         13   -1    0    0    0    0  0.00000000000E+00  0.00000000000E+00  0.74505805969E-08  0.10566000000E+00  0.10566000000E+00 0.  1.
     999900   -1    0    0    0    0 -0.00000000000E+00 -0.00000000000E+00 -0.74505805969E-08  0.93827000000E+00  0.93827000000E+00 0.  1.
     999902    2    1    2    0    0  0.18518163933E-01  0.17301377178E-02 -0.15366055165E-01  0.10198046726E+01  0.10195192685E+01 0.  0.
     999903    2    3    3    0    0 -0.39050197662E-01  0.67484095595E-01  0.99677583755E-01  0.12802401676E+00  0.19378004755E-01 0.  0.
         14    1    1    2    0    0 -0.18518163933E-01 -0.17301377178E-02  0.15366055165E-01  0.24125327423E-01  0.00000000000E+00 0.  1.
     999901    1    3    3    0    0  0.57568361595E-01 -0.65753957877E-01 -0.11504363892E+00  0.89178065582E+00  0.88000000000E+00 0.  1.
        -11    1    4    4    0    0 -0.26013906219E-01  0.25720147570E-01  0.45256417508E-01  0.58194963308E-01  0.51100000000E-03 0.  1.
         11    1    4    4    0    0 -0.13036291443E-01  0.41763948025E-01  0.54421166247E-01  0.69829053451E-01  0.51100000000E-03 0. -1.
</event>
<event>
 8    1  0.1132255E+005  0.1043930E+01  0.7957747E-01            NaN
         13   -1    0    0    0    0  0.00000000000E+00  0.00000000000E+00  0.74505805969E-08  0.10566000000E+00  0.10566000000E+00 0. -1.
     999900   -1    0    0    0    0 -0.00000000000E+00 -0.00000000000E+00 -0.74505805969E-08  0.93827000000E+00  0.93827000000E+00 0.  1.
     999902    2    1    2    0    0  0.18577293238E-02  0.22108273932E-01  0.81231572408E-02  0.10203034764E+01  0.10200298875E+01 0.  0.
     999903    2    3    3    0    0  0.43080464448E-01  0.95008365457E-02 -0.12052562834E+00  0.12990537924E+00  0.20069582848E-01 0.  0.
         14    1    1    2    0    0 -0.18577293238E-02 -0.22108273932E-01 -0.81231572408E-02  0.23626523613E-01  0.00000000000E+00 0.  1.
     999901    1    3    3    0    0 -0.41222735124E-01  0.12607437386E-01  0.12864878559E+00  0.89039809715E+00  0.88000000000E+00 0. -1.
        -11    1    4    4    0    0  0.19429976473E-01  0.13958910771E-01 -0.51120576383E-01  0.56444216944E-01  0.51100000000E-03 0. -1.
         11    1    4    4    0    0  0.23650487975E-01 -0.44580742250E-02 -0.69405051962E-01  0.73461162297E-01  0.51100000000E-03 0.  1.
</event>
<event>
 8    1  0.1132255E+005  0.1043930E+01  0.7957747E-01            NaN
         13   -1    0    0    0    0  0.00000000000E+00  0.00000000000E+00  0.74505805969E-08  0.10566000000E+00  0.10566000000E+00 0. -1.
     999900   -1    0    0    0    0 -0.00000000000E+00 -0.00000000000E+00 -0.74505805969E-08  0.93827000000E+00  0.93827000000E+00 0.  1.
     999902    2    1    2    0    0 -0.19796210673E-01 -0.11028631051E-01  0.39750592620E-03  0.10212655196E+01  0.10210139974E+01 0.  0.
     999903    2    3    3    0    0  0.25833307430E-02  0.11522355132E+00 -0.57011267303E-01  0.13012230741E+00  0.19959707161E-01 0.  0.
         14    1    1    2    0    0  0.19796210673E-01  0.11028631051E-01 -0.39750592620E-03  0.22664480378E-01  0.00000000000E+00 0. -1.
     999901    1    3    3    0    0 -0.22379541416E-01 -0.12625218237E+00  0.57408773229E-01  0.89114321221E+00  0.88000000000E+00 0. -1.
        -11    1    4    4    0    0 -0.81302616754E-02  0.30858301442E-01 -0.14869172175E-01  0.35209222157E-01  0.51100000000E-03 0. -1.
         11    1    4    4    0    0  0.10713592418E-01  0.84365249877E-01 -0.42142095128E-01  0.94913085253E-01  0.51100000000E-03 0.  1.
</event>
<event>
 8    1  0.1132255E+005  0.1043930E+01  0.7957747E-01            NaN
         13   -1    0    0    0    0  0.00000000000E+00  0.00000000000E+00  0.74505805969E-08  0.10566000000E+00  0.10566000000E+00 0. -1.
     999900   -1    0    0    0    0 -0.00000000000E+00 -0.00000000000E+00 -0.74505805969E-08  0.93827000000E+00  0.93827000000E+00 0. -1.
     999902    2    1    2    0    0  0.13654718528E-01 -0.19488618866E-01  0.16213181956E-02  0.10200786630E+01  0.10197997806E+01 0.  0.
     999903    2    3    3    0    0  0.92845248423E-01 -0.50793077180E-01 -0.77257788553E-01  0.13245654600E+00  0.19385402789E-01 0.  0.
         14    1    1    2    0    0 -0.13654718528E-01  0.19488618866E-01 -0.16213181956E-02  0.23851336987E-01  0.00000000000E+00 0.  1.
     999901    1    3    3    0    0 -0.79190529895E-01  0.31304458314E-01  0.78879106748E-01  0.88762211702E+00  0.88000000000E+00 0. -1.
        -11    1    4    4    0    0  0.31079194348E-01 -0.27472551682E-01 -0.27279941875E-01  0.49649912054E-01  0.51100000000E-03 0. -1.
         11    1    4    4    0    0  0.61766054075E-01 -0.23320525498E-01 -0.49977846678E-01  0.82806633943E-01  0.51100000000E-03 0.  1.
</event>
<event>
 8    1  0.1132255E+005  0.1043930E+01  0.7957747E-01            NaN
         13   -1    0    0    0    0  0.00000000000E+00  0.00000000000E+00  0.74505805969E-08  0.10566000000E+00  0.10566000000E+00 0.  1.
     999900   -1    0    0    0    0 -0.00000000000E+00 -0.00000000000E+00 -0.74505805969E-08  0.93827000000E+00  0.93827000000E+00 0.  1.
     999902    2    1    2    0    0  0.92150755027E-02 -0.91845016383E-02  0.19861662475E-01  0.10201864046E+01  0.10199100655E+01 0.  0.
     999903    2    3    3    0    0 -0.10117995755E+00 -0.47981451523E-01  0.65596748405E-01  0.13126348063E+00  0.19686656562E-01 0.  0.
         14    1    1    2    0    0 -0.92150755027E-02  0.91845016383E-02 -0.19861662475E-01  0.23743595413E-01  0.00000000000E+00 0.  1.
     999901    1    3    3    0    0  0.11039503305E+00  0.38796949885E-01 -0.45735085930E-01  0.88892292395E+00  0.88000000000E+00 0.  1.
        -11    1    4    4    0    0 -0.82343300686E-01 -0.35410897865E-01  0.43555644864E-01  0.99657945875E-01  0.51100000000E-03 0. -1.
         11    1    4    4    0    0 -0.18836656865E-01 -0.12570553658E-01  0.22041103541E-01  0.31605534760E-01  0.51100000000E-03 0.  1.
</event>
<event>
 8    1  0.1132255E+005  0.1043930E+01  0.7957747E-01            NaN
         13   -1    0    0    0    0  0.00000000000E+00  0.00000000000E+00  0.74505805969E-08  0.10566000000E+00  0.10566000000E+00 0. -1.
     999900   -1    0    0    0    0 -0.00000000000E+00 -0.00000000000E+00 -0.74505805969E-08  0.93827000000E+00  0.93827000000E+00 0. -1.
     999902    2    1    2    0    0 -0.16166349335E-01  0.14088195927E-01 -0.82567765757E-02  0.10209516956E+01  0.10206930793E+01 0.  0.
     999903    2    3    3    0    0 -0.10151284649E-01  0.12300803397E+00 -0.46310994860E-01  0.13340009951E+00  0.20416985653E-01 0.  0.
         14    1    1    2    0    0  0.16166349335E-01 -0.14088195927E-01  0.82567765757E-02  0.22978304435E-01  0.00000000000E+00 0. -1.
     999901    1    3    3    0    0 -0.60150646867E-02 -0.10891983805E+00  0.38054218285E-01  0.88755159605E+00  0.88000000000E+00 0. -1.
        -11    1    4    4    0    0 -0.12865222393E-01  0.40347641023E-01 -0.17377998060E-01  0.45778838134E-01  0.51100000000E-03 0.  1.
         11    1    4    4    0    0  0.27139377445E-02  0.82660392951E-01 -0.28932996800E-01  0.87621261379E-01  0.51100000000E-03 0. -1.
</event>
<event>
 8    1  0.1132255E+005  0.1043930E+01  0.7957747E-01            NaN
         13   -1    0    0    0    0  0.00000000000E+00  0.00000000000E+00  0.74505805969E-08  0.10566000000E+00  0.10566000000E+00 0. -1.
     999900   -1    0    0    0    0 -0.00000000000E+00 -0.00000000000E+00 -0.74505805969E-08  0.93827000000E+00  0.93827000000E+00 0.  1.
     999902    2    1    2    0    0  0.19520297248E-01  0.35299067279E-04  0.12793997706E-01  0.10205905564E+01  0.10203236517E+01 0.  0.
     999903    2    3    3    0    0 -0.57384897258E-01 -0.61341160366E-01 -0.95299837247E-01  0.12853352017E+00  0.19571470052E-01 0.  0.
         14    1    1    2    0    0 -0.19520297248E-01 -0.35299067279E-04 -0.12793997706E-01  0.23339443609E-01  0.00000000000E+00 0.  1.
     999901    1    3    3    0    0  0.76905194506E-01  0.61376459433E-01  0.10809383495E+00  0.89205703622E+00  0.88000000000E+00 0. -1.
        -11    1    4    4    0    0 -0.26190690974E-01 -0.14469804901E-01 -0.34295390226E-01  0.45516617397E-01  0.51100000000E-03 0. -1.
         11    1    4    4    0    0 -0.31194206285E-01 -0.46871355465E-01 -0.61004447021E-01  0.83016902774E-01  0.51100000000E-03 0.  1.
</event>
<event>
 8    1  0.1132255E+005  0.1043930E+01  0.7957747E-01            NaN
         13   -1    0    0    0    0  0.00000000000E+00  0.00000000000E+00  0.74505805969E-08  0.10566000000E+00  0.10566000000E+00 0.  1.
     999900   -1    0    0    0    0 -0.00000000000E+00 -0.00000000000E+00 -0.74505805969E-08  0.93827000000E+00  0.93827000000E+00 0.  1.
     999902    2    1    2    0    0  0.76935013274E-02 -0.12415597209E-01  0.20170986050E-01  0.10190260707E+01  0.10187217123E+01 0.  0.
     999903    2    3    3    0    0  0.25660786761E-01  0.10324067620E+00  0.71563472588E-01  0.12979022762E+00  0.20175712568E-01 0.  0.
         14    1    1    2    0    0 -0.76935013274E-02  0.12415597209E-01 -0.20170986050E-01  0.24903929308E-01  0.00000000000E+00 0. -1.
     999901    1    3    3    0    0 -0.17967285433E-01 -0.11565627341E+00 -0.51392486538E-01  0.88923584307E+00  0.88000000000E+00 0.  1.
        -11    1    4    4    0    0  0.62662347781E-02  0.65867859602E-01  0.44149492603E-01  0.79544198060E-01  0.51100000000E-03 0.  1.
         11    1    4    4    0    0  0.19394551983E-01  0.37372816601E-01  0.27413979985E-01  0.50246029564E-01  0.51100000000E-03 0. -1.
</event>
<event>
 8    1  0.1132255E+005  0.1043930E+01  0.7957747E-01            NaN
         13   -1    0    0    0    0  0.00000000000E+00  0.00000000000E+00  0.74505805969E-08  0.10566000000E+00  0.10566000000E+00 0. -1.
     999900   -1    0    0    0    0 -0.00000000000E+00 -0.00000000000E+00 -0.74505805969E-08  0.93827000000E+00  0.93827000000E+00 0. -1.
     999902    2    1    2    0    0 -0.31283812482E-03  0.10373399440E-01  0.21139780566E-01  0.10203801464E+01  0.10201083509E+01 0.  0.
     999903    2    3    3    0    0  0.78065370192E-01 -0.90973870975E-01  0.47514554005E-01  0.13071164550E+00  0.21388179083E-01 0.  0.
         14    1    1    2    0    0  0.31283812482E-03 -0.10373399440E-01 -0.21139780566E-01  0.23549853631E-01  0.00000000000E+00 0.  1.
     999901    1    3    3    0    0 -0.78378208316E-01  0.10134727042E+00 -0.26374773439E-01  0.88966850087E+00  0.88000000000E+00 0.  1.
        -11    1    4    4    0    0  0.41070660046E-01 -0.40326635240E-01  0.32935840773E-01  0.66317926346E-01  0.51100000000E-03 0.  1.
         11    1    4    4    0    0  0.36994710145E-01 -0.50647235736E-01  0.14578713232E-01  0.64393719157E-01  0.51100000000E-03 0. -1.
</event>
<event>
 8    1  0.1132255E+005  0.1043930E+01  0.7957747E-01            NaN
         13   -1    0    0    0    0  0.00000000000E+00  0.00000000000E+00  0.74505805969E-08  0.10566000000E+00  0.10566000000E+00 0. -1.
     999900   -1    0    0    0    0 -0.00000000000E+00 -0.00000000000E+00 -0.74505805969E-08  0.93827000000E+00  0.93827000000E+00 0. -1.
     999902    2    1    2    0    0 -0.87160824366E-02 -0.22294465612E-01 -0.73814727842E-03  0.10199809259E+01  0.10196997259E+01 0.  0.
     999903    2    3    3    0    0  0.10281904922E+00  0.12146703156E-01  0.74350517534E-01  0.12910237788E+00  0.20496956754E-01 0.  0.
         14    1    1    2    0    0  0.87160824366E-02  0.22294465612E-01  0.73814727842E-03  0.23949074124E-01  0.00000000000E+00 0.  1.
     999901    1    3    3    0    0 -0.11153513166E+00 -0.34441168768E-01 -0.75088664812E-01  0.89087854800E+00  0.88000000000E+00 0.  1.
        -11    1    4    4    0    0  0.56889688824E-01  0.10449338999E-01  0.52877373966E-01  0.78370295256E-01  0.51100000000E-03 0.  1.
         11    1    4    4    0    0  0.45929360396E-01  0.16973641571E-02  0.21473143568E-01  0.50732082622E-01  0.51100000000E-03 0. -1.
</event>
<event>
 8    1  0.1132255E+005  0.1043930E+01  0.7957747E-01            NaN
         13   -1    0    0    0    0  0.00000000000E+00  0.00000000000E+00  0.74505805969E-08  0.10566000000E+00  0.10566000000E+00 0. -1.
     999900   -1    0    0    0    0 -0.00000000000E+00 -0.00000000000E+00 -0.74505805969E-08  0.93827000000E+00  0.93827000000E+00 0. -1.
     999902    2    1    2    0    0 -0.40196396474E-02 -0.23187975090E-01  0.52008738786E-02  0.10198283656E+01  0.10195435285E+01 0.  0.
     999903    2    3    3    0    0  0.17075641136E-01  0.10250119620E+00  0.71889274253E-01  0.12815010446E+00  0.21361385177E-01 0.  0.
         14    1    1    2    0    0  0.40196396474E-02  0.23187975090E-01 -0.52008738786E-02  0.24101634400E-01  0.00000000000E+00 0.  1.
     999901    1    3    3    0    0 -0.21095280783E-01 -0.12568917129E+00 -0.66688400375E-01  0.89167826114E+00  0.88000000000E+00 0. -1.
        -11    1    4    4    0    0 -0.38375230488E-02  0.31085729442E-01  0.16677431255E-01  0.35488688232E-01  0.51100000000E-03 0. -1.
         11    1    4    4    0    0  0.20913164185E-01  0.71415466759E-01  0.55211842998E-01  0.92661416225E-01  0.51100000000E-03 0.  1.
</event>
<event>
 8    1  0.1132255E+005  0.1043930E+01  0.7957747E-01            NaN
         13   -1    0    0    0    0  0.00000000000E+00  0.00000000000E+00  0.74505805969E-08  0.10566000000E+00  0.10566000000E+00 0. -1.
     999900   -1    0    0    0    0 -0.00000000000E+00 -0.00000000000E+00 -0.74505805969E-08  0.93827000000E+00  0.93827000000E+00 0. -1.
     999902    2    1    2    0    0  0.19010810298E-01 -0.28451368153E-02 -0.11391713566E-01  0.10215854962E+01  0.10213411033E+01 0.  0.
     999903    2    3    3    0    0 -0.10780326054E+00  0.66702485363E-01  0.12328832280E-01  0.12946367459E+00  0.23196516895E-01 0.  0.
         14    1    1    2    0    0 -0.19010810298E-01  0.28451368153E-02  0.11391713566E-01  0.22344503790E-01  0.00000000000E+00 0. -1.
     999901    1    3    3    0    0  0.12681407084E+00 -0.69547622179E-01 -0.23720545846E-01  0.89212182162E+00  0.88000000000E+00 0. -1.
        -11    1    4    4    0    0 -0.74290664524E-01  0.56649240911E-01  0.13804592831E-01  0.94440813398E-01  0.51100000000E-03 0. -1.
         11    1    4    4    0    0 -0.33512596018E-01  0.10053244453E-01 -0.14757605511E-02  0.35022861192E-01  0.51100000000E-03 0.  1.
</event>
<event>
 8    1  0.1132255E+005  0.1043930E+01  0.7957747E-01            NaN
         13   -1    0    0    0    0  0.00000000000E+00  0.00000000000E+00  0.74505805969E-08  0.10566000000E+00  0.10566000000E+00 0. -1.
     999900   -1    0    0    0    0 -0.00000000000E+00 -0.00000000000E+00 -0.74505805969E-08  0.93827000000E+00  0.93827000000E+00 0.  1.
     999902    2    1    2    0    0 -0.13838396519E-01  0.15277819951E-01  0.10801818799E-01  0.10206578645E+01  0.10203925147E+01 0.  0.
     999903    2    3    3    0    0  0.10445073787E+00  0.56655325859E-01 -0.48151921554E-01  0.12982681386E+00  0.20411062161E-01 0.  0.
         14    1    1    2    0    0  0.13838396519E-01 -0.15277819951E-01 -0.10801818799E-01  0.23272135485E-01  0.00000000000E+00 0.  1.
     999901    1    3    3    0    0 -0.11828913439E+00 -0.41377505908E-01  0.58953740354E-01  0.89083105065E+00  0.88000000000E+00 0. -1.
        -11    1    4    4    0    0  0.35298394042E-01  0.27175128385E-01 -0.10600372563E-01  0.45794030661E-01  0.51100000000E-03 0.  1.
         11    1    4    4    0    0  0.69152343825E-01  0.29480197474E-01 -0.37551548991E-01  0.84032783199E-01  0.51100000000E-03 0. -1.
</event>
<event>
 8    1  0.1132255E+005  0.1043930E+01  0.7957747E-01            NaN
         13   -1    0    0    0    0  0.00000000000E+00  0.00000000000E+00  0.74505805969E-08  0.10566000000E+00  0.10566000000E+00 0.  1.
     999900   -1    0    0    0    0 -0.00000000000E+00 -0.00000000000E+00 -0.74505805969E-08  0.93827000000E+00  0.93827000000E+00 0.  1.
     999902    2    1    2    0    0 -0.85448373085E-02  0.97104805385E-02 -0.18730284296E-01  0.10211675039E+01  0.10209137769E+01 0.  0.
     999903    2    3    3    0    0 -0.80110327812E-01 -0.52961168367E-01 -0.90463005382E-01  0.13313882294E+00  0.17884095021E-01 0.  0.
         14    1    1    2    0    0  0.85448373085E-02 -0.97104805385E-02  0.18730284296E-01  0.22762496057E-01  0.00000000000E+00 0.  1.
     999901    1    3    3    0    0  0.71565490503E-01  0.62671648905E-01  0.71732721085E-01  0.88802868100E+00  0.88000000000E+00 0. -1.
        -11    1    4    4    0    0 -0.14106304024E-01 -0.29045325447E-02 -0.92146813647E-02  0.17105425928E-01  0.51100000000E-03 0.  1.
         11    1    4    4    0    0 -0.66004023788E-01 -0.50056635822E-01 -0.81248324017E-01  0.11603339701E+00  0.51100000000E-03 0. -1.
</event>
<event>
 8    1  0.1132255E+005  0.1043930E+01  0.7957747E-01            NaN
         13   -1    0    0    0    0  0.00000000000E+00  0.00000000000E+00  0.74505805969E-08  0.10566000000E+00  0.10566000000E+00 0. -1.
     999900   -1    0    0    0    0 -0.00000000000E+00 -0.00000000000E+00 -0.74505805969E-08  0.93827000000E+00  0.93827000000E+00 0. -1.
     999902    2    1    2    0    0  0.63319294898E-02  0.19931189566E-01  0.10446874462E-01  0.10205530277E+01  0.10202852540E+01 0.  0.
     999903    2    3    3    0    0  0.67725233072E-01  0.62641132944E-01  0.94223341218E-01  0.13341618741E+00  0.20278616868E-01 0.  0.
         14    1    1    2    0    0 -0.63319294898E-02 -0.19931189566E-01 -0.10446874462E-01  0.23376972315E-01  0.00000000000E+00 0.  1.
     999901    1    3    3    0    0 -0.61393303582E-01 -0.42709943378E-01 -0.83776466756E-01  0.88713684027E+00  0.88000000000E+00 0. -1.
        -11    1    4    4    0    0  0.34859882861E-01  0.18707811481E-01  0.40881499598E-01  0.56892457970E-01  0.51100000000E-03 0. -1.
         11    1    4    4    0    0  0.32865350211E-01  0.43933321463E-01  0.53341841620E-01  0.76523729442E-01  0.51100000000E-03 0.  1.
</event>
<event>
 8    1  0.1132255E+005  0.1043930E+01  0.7957747E-01            NaN
         13   -1    0    0    0    0  0.00000000000E+00  0.00000000000E+00  0.74505805969E-08  0.10566000000E+00  0.10566000000E+00 0. -1.
     999900   -1    0    0    0    0 -0.00000000000E+00 -0.00000000000E+00 -0.74505805969E-08  0.93827000000E+00  0.93827000000E+00 0.  1.
     999902    2    1    2    0    0 -0.79546048412E-02 -0.12649999342E-01  0.18846691962E-01  0.10198780558E+01  0.10195944060E+01 0.  0.
     999903    2    3    3    0    0 -0.35928226494E-01  0.11929201869E+00  0.29585430570E-01  0.12953736813E+00  0.19575721125E-01 0.  0.
         14    1    1    2    0    0  0.79546048412E-02  0.12649999342E-01 -0.18846691962E-01  0.24051944192E-01  0.00000000000E+00 0.  1.
     999901    1    3    3    0    0  0.27973621653E-01 -0.13194201803E+00 -0.10738738608E-01  0.89034068768E+00  0.88000000000E+00 0.  1.
        -11    1    4    4    0    0 -0.22494654652E-01  0.88875593947E-01  0.13750642813E-01  0.92705026758E-01  0.51100000000E-03 0. -1.
         11    1    4    4    0    0 -0.13433571842E-01  0.30416424743E-01  0.15834787757E-01  0.36832341371E-01  0.51100000000E-03 0.  1.
</event>
<event>
 8    1  0.1132255E+005  0.1043930E+01  0.7957747E-01            NaN
         13   -1    0    0    0    0  0.00000000000E+00  0.00000000000E+00  0.74505805969E-08  0.10566000000E+00  0.10566000000E+00 0.  1.
     999900   -1    0    0    0    0 -0.00000000000E+00 -0.00000000000E+00 -0.74505805969E-08  0.93827000000E+00  0.93827000000E+00 0.  1.
     999902    2    1    2    0    0  0.15825792855E-01 -0.21455959381E-01 -0.94441636405E-02  0.10156456202E+01  0.10152517027E+01 0.  0.
     999903    2    3    3    0    0  0.47300032432E-01 -0.11561439605E+00  0.29020691887E-01  0.12922812036E+00  0.15928744174E-01 0.  0.
         14    1    1    2    0    0 -0.15825792855E-01  0.21455959381E-01  0.94441636405E-02  0.28284379776E-01  0.00000000000E+00 0.  1.
     999901    1    3    3    0    0 -0.31474239577E-01  0.94158436674E-01 -0.38464855528E-01  0.88641749986E+00  0.88000000000E+00 0. -1.
        -11    1    4    4    0    0  0.21410167422E-01 -0.34515679134E-01  0.62047550066E-02  0.41091209288E-01  0.51100000000E-03 0.  1.
         11    1    4    4    0    0  0.25889865010E-01 -0.81098716921E-01  0.22815936881E-01  0.88136911072E-01  0.51100000000E-03 0. -1.
</event>
<event>
 8    1  0.1132255E+005  0.1043930E+01  0.7957747E-01            NaN
         13   -1    0    0    0    0  0.00000000000E+00  0.00000000000E+00  0.74505805969E-08  0.10566000000E+00  0.10566000000E+00 0. -1.
     999900   -1    0    0    0    0 -0.00000000000E+00 -0.00000000000E+00 -0.74505805969E-08  0.93827000000E+00  0.93827000000E+00 0.  1.
     999902    2    1    2    0    0 -0.21345868648E-01  0.10641689818E-01  0.49900282160E-02  0.10195621513E+01  0.10192709101E+01 0.  0.
     999903    2    3    3    0    0  0.71545654519E-01 -0.46378990083E-02  0.10523107996E+00  0.12888231576E+00  0.19919345844E-01 0.  0.
         14    1    1    2    0    0  0.21345868648E-01 -0.10641689818E-01 -0.49900282160E-02  0.24367848738E-01  0.00000000000E+00 0.  1.
     999901    1    3    3    0    0 -0.92891523167E-01  0.15279588826E-01 -0.10024105174E+00  0.89067983550E+00  0.88000000000E+00 0.  1.
        -11    1    4    4    0    0  0.57909268296E-01  0.43242093410E-02  0.81133492163E-01  0.99775181346E-01  0.51100000000E-03 0. -1.
         11    1    4    4    0    0  0.13636386223E-01 -0.89621083493E-02  0.24097587797E-01  0.29107134416E-01  0.51100000000E-03 0.  1.
</event>
<event>
 8    1  0.1132255E+005  0.1043930E+01  0.7957747E-01            NaN
         13   -1    0    0    0    0  0.00000000000E+00  0.00000000000E+00  0.74505805969E-08  0.10566000000E+00  0.10566000000E+00 0. -1.
     999900   -1    0    0    0    0 -0.00000000000E+00 -0.00000000000E+00 -0.74505805969E-08  0.93827000000E+00  0.93827000000E+00 0. -1.
     999902    2    1    2    0    0 -0.25394134179E-02  0.97475252747E-02 -0.21454820866E-01  0.10202282657E+01  0.10199529116E+01 0.  0.
     999903    2    3    3    0    0 -0.85600454021E-01  0.60179530604E-01  0.73951564143E-01  0.12975372822E+00  0.20449511401E-01 0.  0.
         14    1    1    2    0    0  0.25394134179E-02 -0.97475252747E-02  0.21454820866E-01  0.23701734280E-01  0.00000000000E+00 0. -1.
     999901    1    3    3    0    0  0.83061040603E-01 -0.50432005329E-01 -0.95406385009E-01  0.89047453750E+00  0.88000000000E+00 0. -1.
        -11    1    4    4    0    0 -0.17782547273E-01  0.20117826390E-01  0.11422417417E-01  0.29183534173E-01  0.51100000000E-03 0.  1.
         11    1    4    4    0    0 -0.67817906748E-01  0.40061704214E-01  0.62529146727E-01  0.10057019405E+00  0.51100000000E-03 0. -1.
</event>
<event>
 8    1  0.1132255E+005  0.1043930E+01  0.7957747E-01            NaN
         13   -1    0    0    0    0  0.00000000000E+00  0.00000000000E+00  0.74505805969E-08  0.10566000000E+00  0.10566000000E+00 0.  1.
     999900   -1    0    0    0    0 -0.00000000000E+00 -0.00000000000E+00 -0.74505805969E-08  0.93827000000E+00  0.93827000000E+00 0.  1.
     999902    2    1    2    0    0 -0.21994762978E-01  0.15316914906E-02 -0.83402057460E-02  0.10203572465E+01  0.10200849159E+01 0.  0.
     999903    2    3    3    0    0  0.77275426847E-01 -0.84371197038E-01  0.54428836370E-01  0.12840779190E+00  0.20882344434E-01 0.  0.
         14    1    1    2    0    0  0.21994762978E-01 -0.15316914906E-02  0.83402057460E-02  0.23572753534E-01  0.00000000000E+00 0.  1.
     999901    1    3    3    0    0 -0.99270189825E-01  0.85902888529E-01 -0.62769042116E-01  0.89194945456E+00  0.88000000000E+00 0.  1.
        -11    1    4    4    0    0  0.24278441210E-01 -0.27195145266E-01  0.69180288366E-02  0.37109821848E-01  0.51100000000E-03 0. -1.
         11    1    4    4    0    0  0.52996985637E-01 -0.57176051772E-01  0.47510807533E-01  0.91297970056E-01  0.51100000000E-03 0.  1.
</event>
<event>
 8    1  0.1132255E+005  0.1043930E+01  0.7957747E-01            NaN
         13   -1    0    0    0    0  0.00000000000E+00  0.00000000000E+00  0.74505805969E-08  0.10566000000E+00  0.10566000000E+00 0.  1.
     999900   -1    0    0    0    0 -0.00000000000E+00 -0.00000000000E+00 -0.74505805969E-08  0.93827000000E+00  0.93827000000E+00 0. -1.
     999902    2    1    2    0    0 -0.67747953668E-02 -0.87577919423E-02 -0.20988175703E-01  0.10202002657E+01  0.10199242530E+01 0.  0.
     999903    2    3    3    0    0  0.46563292065E-01 -0.11758827888E+00 -0.31482799020E-01  0.13183144385E+00  0.19829761882E-01 0.  0.
         14    1    1    2    0    0  0.67747953668E-02  0.87577919423E-02  0.20988175703E-01  0.23729734329E-01  0.00000000000E+00 0.  1.
     999901    1    3    3    0    0 -0.53338087432E-01  0.10883048694E+00  0.10494623317E-01  0.88836882182E+00  0.88000000000E+00 0. -1.
        -11    1    4    4    0    0  0.16330736153E-01 -0.41289273874E-01 -0.20909489112E-01  0.49081207567E-01  0.51100000000E-03 0.  1.
         11    1    4    4    0    0  0.30232555913E-01 -0.76299005008E-01 -0.10573309908E-01  0.82750236287E-01  0.51100000000E-03 0. -1.
</event>
<event>
 8    1  0.1132255E+005  0.1043930E+01  0.7957747E-01            NaN
         13   -1    0    0    0    0  0.00000000000E+00  0.00000000000E+00  0.74505805969E-08  0.10566000000E+00  0.10566000000E+00 0.  1.
     999900   -1    0    0    0    0 -0.00000000000E+00 -0.00000000000E+00 -0.74505805969E-08  0.93827000000E+00  0.93827000000E+00 0. -1.
     999902    2    1    2    0    0  0.42576962892E-03 -0.41083550910E-02  0.23032563774E-01  0.10205300245E+01  0.10202617174E+01 0.  0.
     999903    2    3    3    0    0 -0.46898417259E-02 -0.43166341557E-01 -0.11898766108E+00  0.12827364872E+00  0.20266667411E-01 0.  0.
         14    1    1    2    0    0 -0.42576962892E-03  0.41083550910E-02 -0.23032563774E-01  0.23399975541E-01  0.00000000000E+00 0. -1.
     999901    1    3    3    0    0  0.51156113548E-02  0.39057986466E-01  0.14202022485E+00  0.89225637574E+00  0.88000000000E+00 0.  1.
        -11    1    4    4    0    0  0.45650135723E-02 -0.41163143139E-02 -0.30384599058E-01  0.31004328301E-01  0.51100000000E-03 0. -1.
         11    1    4    4    0    0 -0.92548552982E-02 -0.39050027244E-01 -0.88603062017E-01  0.97269320416E-01  0.51100000000E-03 0.  1.
</event>
<event>
 8    1  0.1132255E+005  0.1043930E+01  0.7957747E-01            NaN
         13   -1    0    0    0    0  0.00000000000E+00  0.00000000000E+00  0.74505805969E-08  0.10566000000E+00  0.10566000000E+00 0.  1.
     999900   -1    0    0    0    0 -0.00000000000E+00 -0.00000000000E+00 -0.74505805969E-08  0.93827000000E+00  0.93827000000E+00 0. -1.
     999902    2    1    2    0    0  0.18281914730E-01 -0.14988207532E-01  0.46196578556E-02  0.10198423266E+01  0.10195578233E+01 0.  0.
     999903    2    3    3    0    0 -0.66755195747E-01  0.10620107420E+00 -0.10638211989E-01  0.12734529313E+00  0.19202286466E-01 0.  0.
         14    1    1    2    0    0 -0.18281914730E-01  0.14988207532E-01 -0.46196578556E-02  0.24087673402E-01  0.00000000000E+00 0.  1.
     999901    1    3    3    0    0  0.85037110476E-01 -0.12118928174E+00  0.15257869844E-01  0.89249703347E+00  0.88000000000E+00 0. -1.
        -11    1    4    4    0    0 -0.14546842837E-01  0.25893987653E-01  0.54955380769E-02  0.30208794958E-01  0.51100000000E-03 0. -1.
         11    1    4    4    0    0 -0.52208352910E-01  0.80307086551E-01 -0.16133750066E-01  0.97136498167E-01  0.51100000000E-03 0.  1.
</event>
<event>
 8    1  0.1132255E+005  0.1043930E+01  0.7957747E-01            NaN
         13   -1    0    0    0    0  0.00000000000E+00  0.00000000000E+00  0.74505805969E-08  0.10566000000E+00  0.10566000000E+00 0. -1.
     999900   -1    0    0    0    0 -0.00000000000E+00 -0.00000000000E+00 -0.74505805969E-08  0.93827000000E+00  0.93827000000E+00 0. -1.
     999902    2    1    2    0    0 -0.22161277082E-01 -0.78417564532E-03 -0.60616051341E-02  0.10209413030E+01  0.10206824501E+01 0.  0.
     999903    2    3    3    0    0  0.69136747516E-01 -0.10519332761E+00 -0.25161105797E-01  0.12987374594E+00  0.19712498771E-01 0.  0.
         14    1    1    2    0    0  0.22161277082E-01  0.78417564532E-03  0.60616051341E-02  0.22988697009E-01  0.00000000000E+00 0. -1.
     999901    1    3    3    0    0 -0.91298024598E-01  0.10440915197E+00  0.19099500663E-01  0.89106755705E+00  0.88000000000E+00 0. -1.
        -11    1    4    4    0    0  0.17077862840E-01 -0.40604911480E-01 -0.13658978074E-01  0.46122023357E-01  0.51100000000E-03 0.  1.
         11    1    4    4    0    0  0.52058884676E-01 -0.64588416131E-01 -0.11502127723E-01  0.83751722580E-01  0.51100000000E-03 0. -1.
</event>
<event>
 8    1  0.1132255E+005  0.1043930E+01  0.7957747E-01            NaN
         13   -1    0    0    0    0  0.00000000000E+00  0.00000000000E+00  0.74505805969E-08  0.10566000000E+00  0.10566000000E+00 0.  1.
     999900   -1    0    0    0    0 -0.00000000000E+00 -0.00000000000E+00 -0.74505805969E-08  0.93827000000E+00  0.93827000000E+00 0.  1.
     999902    2    1    2    0    0 -0.15962702345E-01  0.12911408271E-01 -0.11445959214E-01  0.10204242068E+01  0.10201534392E+01 0.  0.
     999903    2    3    3    0    0 -0.81420277658E-01  0.57003613875E-01  0.84189646467E-01  0.13173135448E+00  0.19661626908E-01 0.  0.
         14    1    1    2    0    0  0.15962702345E-01 -0.12911408271E-01  0.11445959214E-01  0.23505793159E-01  0.00000000000E+00 0.  1.
     999901    1    3    3    0    0  0.65457575313E-01 -0.44092205603E-01 -0.95635605681E-01  0.88869285236E+00  0.88000000000E+00 0.  1.
        -11    1    4    4    0    0 -0.60748947544E-01  0.31408465773E-01  0.58165471304E-01  0.89779783486E-01  0.51100000000E-03 0.  1.
         11    1    4    4    0    0 -0.20671330114E-01  0.25595148102E-01  0.26024175163E-01  0.41951570995E-01  0.51100000000E-03 0. -1.
</event>
<event>
 8    1  0.1132255E+005  0.1043930E+01  0.7957747E-01            NaN
         13   -1    0    0    0    0  0.00000000000E+00  0.00000000000E+00  0.74505805969E-08  0.10566000000E+00  0.10566000000E+00 0. -1.
     999900   -1    0    0    0    0 -0.00000000000E+00 -0.00000000000E+00 -0.74505805969E-08  0.93827000000E+00  0.93827000000E+00 0. -1.
     999902    2    1    2    0    0 -0.12575302259E-01 -0.23157986725E-02  0.24113046310E-01  0.10166364082E+01  0.10162699673E+01 0.  0.
     999903    2    3    3    0    0 -0.12305298826E-01 -0.42127795060E-01  0.12118750714E+00  0.13040364031E+00  0.19812269502E-01 0.  0.
         14    1    1    2    0    0  0.12575302259E-01  0.23157986725E-02 -0.24113046310E-01  0.27293591789E-01  0.00000000000E+00 0.  1.
     999901    1    3    3    0    0 -0.27000343346E-03  0.39811996388E-01 -0.97074460831E-01  0.88623276790E+00  0.88000000000E+00 0. -1.
        -11    1    4    4    0    0 -0.10076774069E-01 -0.73061581151E-02  0.22359694058E-01  0.25595670755E-01  0.51100000000E-03 0.  1.
         11    1    4    4    0    0 -0.22285247571E-02 -0.34821636945E-01  0.98827813083E-01  0.10480796955E+00  0.51100000000E-03 0. -1.
</event>
<event>
 8    1  0.1132255E+005  0.1043930E+01  0.7957747E-01            NaN
         13   -1    0    0    0    0  0.00000000000E+00  0.00000000000E+00  0.74505805969E-08  0.10566000000E+00  0.10566000000E+00 0.  1.
     999900   -1    0    0    0    0 -0.00000000000E+00 -0.00000000000E+00 -0.74505805969E-08  0.93827000000E+00  0.93827000000E+00 0. -1.
     999902    2    1    2    0    0 -0.14987833436E-01  0.63444473194E-02 -0.10519593617E-01  0.10245509130E+01  0.10243676217E+01 0.  0.
     999903    2    3    3    0    0  0.10563444997E+00 -0.41489942219E-02 -0.79252051658E-01  0.13360534881E+00  0.19840624095E-01 0.  0.
         14    1    1    2    0    0  0.14987833436E-01 -0.63444473194E-02  0.10519593617E-01  0.19379086995E-01  0.00000000000E+00 0.  1.
     999901    1    3    3    0    0 -0.12062228341E+00  0.10493441541E-01  0.68732458042E-01  0.89094556419E+00  0.88000000000E+00 0.  1.
        -11    1    4    4    0    0  0.37163603336E-01 -0.13243719125E-02 -0.16508389347E-01  0.40689991567E-01  0.51100000000E-03 0.  1.
         11    1    4    4    0    0  0.68470846636E-01 -0.28246223094E-02 -0.62743662312E-01  0.92915357243E-01  0.51100000000E-03 0. -1.
</event>
<event>
 8    1  0.1132255E+005  0.1043930E+01  0.7957747E-01            NaN
         13   -1    0    0    0    0  0.00000000000E+00  0.00000000000E+00  0.74505805969E-08  0.10566000000E+00  0.10566000000E+00 0.  1.
     999900   -1    0    0    0    0 -0.00000000000E+00 -0.00000000000E+00 -0.74505805969E-08  0.93827000000E+00  0.93827000000E+00 0. -1.
     999902    2    1    2    0    0 -0.67952691406E-02 -0.11192136464E-01  0.23064117916E-01  0.10174084402E+01  0.10170627026E+01 0.  0.
     999903    2    3    3    0    0  0.14319291411E-01 -0.10256300302E+00  0.77102613885E-01  0.13077739007E+00  0.20825489020E-01 0.  0.
         14    1    1    2    0    0  0.67952691406E-02  0.11192136464E-01 -0.23064117916E-01  0.26521559844E-01  0.00000000000E+00 0. -1.
     999901    1    3    3    0    0 -0.21114560552E-01  0.91370866551E-01 -0.54038495969E-01  0.88663105008E+00  0.88000000000E+00 0. -1.
        -11    1    4    4    0    0  0.28035466105E-03 -0.71839629316E-01  0.51779070544E-01  0.88557011052E-01  0.51100000000E-03 0. -1.
         11    1    4    4    0    0  0.14038936750E-01 -0.30723373699E-01  0.25323543341E-01  0.42220379023E-01  0.51100000000E-03 0.  1.
</event>
<event>
 8    1  0.1132255E+005  0.1043930E+01  0.7957747E-01            NaN
         13   -1    0    0    0    0  0.00000000000E+00  0.00000000000E+00  0.74505805969E-08  0.10566000000E+00  0.10566000000E+00 0.  1.
     999900   -1    0    0    0    0 -0.00000000000E+00 -0.00000000000E+00 -0.74505805969E-08  0.93827000000E+00  0.93827000000E+00 0. -1.
     999902    2    1    2    0    0 -0.14705631214E-02  0.19446733763E-01  0.11546262429E-01  0.10212660598E+01  0.10210145497E+01 0.  0.
     999903    2    3    3    0    0  0.12115550656E+00  0.48222476754E-01  0.82415522494E-02  0.13229130342E+00  0.20712357251E-01 0.  0.
         14    1    1    2    0    0  0.14705631214E-02 -0.19446733763E-01 -0.11546262429E-01  0.22663940214E-01  0.00000000000E+00 0. -1.
     999901    1    3    3    0    0 -0.12262606968E+00 -0.28775742992E-01  0.33047101799E-02  0.88897475637E+00  0.88000000000E+00 0. -1.
        -11    1    4    4    0    0  0.51101378429E-01  0.23733700643E-01  0.13339022419E-01  0.57903627379E-01  0.51100000000E-03 0.  1.
         11    1    4    4    0    0  0.70054128130E-01  0.24488776111E-01 -0.50974701694E-02  0.74387676039E-01  0.51100000000E-03 0. -1.
</event>
<event>
 8    1  0.1132255E+005  0.1043930E+01  0.7957747E-01            NaN
         13   -1    0    0    0    0  0.00000000000E+00  0.00000000000E+00  0.74505805969E-08  0.10566000000E+00  0.10566000000E+00 0. -1.
     999900   -1    0    0    0    0 -0.00000000000E+00 -0.00000000000E+00 -0.74505805969E-08  0.93827000000E+00  0.93827000000E+00 0. -1.
     999902    2    1    2    0    0  0.11063123147E-01 -0.17900692263E-01  0.10436619435E-01  0.10204406300E+01  0.10201702450E+01 0.  0.
     999903    2    3    3    0    0 -0.11480284151E+00  0.33885506991E-01  0.44589166916E-01  0.12932310241E+00  0.20207696772E-01 0.  0.
         14    1    1    2    0    0 -0.11063123147E-01  0.17900692263E-01 -0.10436619435E-01  0.23489369989E-01  0.00000000000E+00 0.  1.
     999901    1    3    3    0    0  0.12586596466E+00 -0.51786199254E-01 -0.34152547481E-01  0.89111752760E+00  0.88000000000E+00 0. -1.
        -11    1    4    4    0    0 -0.59553859644E-01  0.18696351430E-01  0.33901645007E-01  0.71033783586E-01  0.51100000000E-03 0.  1.
         11    1    4    4    0    0 -0.55248981866E-01  0.15189155561E-01  0.10687521908E-01  0.58289318827E-01  0.51100000000E-03 0. -1.
</event>
<event>
 8    1  0.1132255E+005  0.1043930E+01  0.7957747E-01            NaN
         13   -1    0    0    0    0  0.00000000000E+00  0.00000000000E+00  0.74505805969E-08  0.10566000000E+00  0.10566000000E+00 0. -1.
     999900   -1    0    0    0    0 -0.00000000000E+00 -0.00000000000E+00 -0.74505805969E-08  0.93827000000E+00  0.93827000000E+00 0.  1.
     999902    2    1    2    0    0 -0.13993978867E-01  0.20075041099E-02 -0.18839263475E-01  0.10203762452E+01  0.10201043586E+01 0.  0.
     999903    2    3    3    0    0 -0.12738259539E+00 -0.26465542065E-01 -0.16019659836E-01  0.13263999896E+00  0.20248192468E-01 0.  0.
         14    1    1    2    0    0  0.13993978867E-01 -0.20075041099E-02  0.18839263475E-01  0.23553754808E-01  0.00000000000E+00 0. -1.
     999901    1    3    3    0    0  0.11338861652E+00  0.28473046175E-01 -0.28196036389E-02  0.88773624623E+00  0.88000000000E+00 0.  1.
        -11    1    4    4    0    0 -0.12458847808E+00 -0.28572518233E-01 -0.17050966256E-01  0.12895609423E+00  0.51100000000E-03 0. -1.
         11    1    4    4    0    0 -0.27941173047E-02  0.21069761679E-02  0.10313064199E-02  0.36839047241E-02  0.51100000000E-03 0.  1.
</event>
<event>
 8    1  0.1132255E+005  0.1043930E+01  0.7957747E-01            NaN
         13   -1    0    0    0    0  0.00000000000E+00  0.00000000000E+00  0.74505805969E-08  0.10566000000E+00  0.10566000000E+00 0. -1.
     999900   -1    0    0    0    0 -0.00000000000E+00 -0.00000000000E+00 -0.74505805969E-08  0.93827000000E+00  0.93827000000E+00 0. -1.
     999902    2    1    2    0    0  0.72526155418E-02 -0.20637997790E-01  0.94926931595E-02  0.10200838555E+01  0.10198050959E+01 0.  0.
     999903    2    3    3    0    0  0.14826784004E-01 -0.81802141563E-01  0.10200786969E+00  0.13309035021E+00  0.19900049020E-01 0.  0.
         14    1    1    2    0    0 -0.72526155418E-02  0.20637997790E-01 -0.94926931595E-02  0.23846144519E-01  0.00000000000E+00 0.  1.
     999901    1    3    3    0    0 -0.75741684619E-02  0.61164143773E-01 -0.92515176531E-01  0.88699350527E+00  0.88000000000E+00 0. -1.
        -11    1    4    4    0    0  0.59167500403E-02 -0.51277878787E-01  0.48416020747E-01  0.70772883013E-01  0.51100000000E-03 0.  1.
         11    1    4    4    0    0  0.89100339634E-02 -0.30524262776E-01  0.53591848943E-01  0.62317467193E-01  0.51100000000E-03 0. -1.
</event>
<event>
 8    1  0.1132255E+005  0.1043930E+01  0.7957747E-01            NaN
         13   -1    0    0    0    0  0.00000000000E+00  0.00000000000E+00  0.74505805969E-08  0.10566000000E+00  0.10566000000E+00 0.  1.
     999900   -1    0    0    0    0 -0.00000000000E+00 -0.00000000000E+00 -0.74505805969E-08  0.93827000000E+00  0.93827000000E+00 0.  1.
     999902    2    1    2    0    0  0.17036183126E-02  0.17922635164E-01 -0.17560672338E-01  0.10187804398E+01  0.10184699721E+01 0.  0.
     999903    2    3    3    0    0  0.89743729001E-01  0.48188399275E-01 -0.80793608804E-01  0.13161332935E+00  0.20454889856E-01 0.  0.
         14    1    1    2    0    0 -0.17036183126E-02 -0.17922635164E-01  0.17560672338E-01  0.25149560225E-01  0.00000000000E+00 0.  1.
     999901    1    3    3    0    0 -0.88040110688E-01 -0.30265764111E-01  0.63232936466E-01  0.88716711043E+00  0.88000000000E+00 0.  1.
        -11    1    4    4    0    0  0.44850185644E-01  0.15910299344E-01 -0.46557726306E-01  0.66577471995E-01  0.51100000000E-03 0.  1.
         11    1    4    4    0    0  0.44893543357E-01  0.32278099931E-01 -0.34235882498E-01  0.65035857354E-01  0.51100000000E-03 0. -1.
</event>
<event>
 8    1  0.1132255E+005  0.1043930E+01  0.7957747E-01            NaN
         13   -1    0    0    0    0  0.00000000000E+00  0.00000000000E+00  0.74505805969E-08  0.10566000000E+00  0.10566000000E+00 0. -1.
     999900   -1    0    0    0    0 -0.00000000000E+00 -0.00000000000E+00 -0.74505805969E-08  0.93827000000E+00  0.93827000000E+00 0.  1.
     999902    2    1    2    0    0 -0.38373104498E-02 -0.20625349688E-01 -0.11452270610E-01  0.10200284414E+01  0.10197483693E+01 0.  0.
     999903    2    3    3    0    0 -0.11136608371E+00  0.26544626009E-01 -0.60017297545E-01  0.13090190062E+00  0.20644849466E-01 0.  0.
         14    1    1    2    0    0  0.38373104498E-02  0.20625349688E-01  0.11452270610E-01  0.23901558597E-01  0.00000000000E+00 0. -1.
     999901    1    3    3    0    0  0.10752877326E+00 -0.47169975697E-01  0.48565026935E-01  0.88912654078E+00  0.88000000000E+00 0. -1.
        -11    1    4    4    0    0 -0.57427386569E-01  0.23561379748E-01 -0.36219617329E-01  0.71869083368E-01  0.51100000000E-03 0. -1.
         11    1    4    4    0    0 -0.53938697144E-01  0.29832462612E-02 -0.23797680216E-01  0.59032817250E-01  0.51100000000E-03 0.  1.
</event>
<event>
 8    1  0.1132255E+005  0.1043930E+01  0.7957747E-01            NaN
         13   -1    0    0    0    0  0.00000000000E+00  0.00000000000E+00  0.74505805969E-08  0.10566000000E+00  0.10566000000E+00 0. -1.
     999900   -1    0    0    0    0 -0.00000000000E+00 -0.00000000000E+00 -0.74505805969E-08  0.93827000000E+00  0.93827000000E+00 0. -1.
     999902    2    1    2    0    0 -0.50595985530E-02  0.51928382741E-02 -0.23032201387E-01  0.10197836254E+01  0.10194977171E+01 0.  0.
     999903    2    3    3    0    0  0.43203052658E-02 -0.31230825029E-01 -0.12734939587E+00  0.13282435748E+00  0.20746369343E-01 0.  0.
         14    1    1    2    0    0  0.50595985530E-02 -0.51928382741E-02  0.23032201387E-01  0.24146374626E-01  0.00000000000E+00 0. -1.
     999901    1    3    3    0    0 -0.93799038188E-02  0.36423663303E-01  0.10431719448E+00  0.88695926790E+00  0.88000000000E+00 0.  1.
        -11    1    4    4    0    0 -0.76943251510E-02 -0.87690020016E-02 -0.29900877654E-01  0.32100181325E-01  0.51100000000E-03 0.  1.
         11    1    4    4    0    0  0.12014630417E-01 -0.22461823027E-01 -0.97448518217E-01  0.10072417615E+00  0.51100000000E-03 0. -1.
</event>
<event>
 8    1  0.1132255E+005  0.1043930E+01  0.7957747E-01            NaN
         13   -1    0    0    0    0  0.00000000000E+00  0.00000000000E+00  0.74505805969E-08  0.10566000000E+00  0.10566000000E+00 0. -1.
     999900   -1    0    0    0    0 -0.00000000000E+00 -0.00000000000E+00 -0.74505805969E-08  0.93827000000E+00  0.93827000000E+00 0. -1.
     999902    2    1    2    0    0 -0.13412140047E-02 -0.25550395320E-01  0.23881585316E-02  0.10182332131E+01  0.10179089111E+01 0.  0.
     999903    2    3    3    0    0  0.24653295896E-01 -0.30955818810E-01 -0.12130638659E+00  0.12918581636E+00  0.20191285393E-01 0.  0.
         14    1    1    2    0    0  0.13412140047E-02  0.25550395320E-01 -0.23881585316E-02  0.25696786904E-01  0.00000000000E+00 0. -1.
     999901    1    3    3    0    0 -0.25994509901E-01  0.54054234905E-02  0.12369454512E+00  0.88904739673E+00  0.88000000000E+00 0.  1.
        -11    1    4    4    0    0  0.16954194360E-01 -0.55125299592E-02 -0.49555265020E-01  0.52667049520E-01  0.51100000000E-03 0. -1.
         11    1    4    4    0    0  0.76991015359E-02 -0.25443288851E-01 -0.71751121566E-01  0.76518766842E-01  0.51100000000E-03 0.  1.
</event>
<event>
 8    1  0.1132255E+005  0.1043930E+01  0.7957747E-01            NaN
         13   -1    0    0    0    0  0.00000000000E+00  0.00000000000E+00  0.74505805969E-08  0.10566000000E+00  0.10566000000E+00 0.  1.
     999900   -1    0    0    0    0 -0.00000000000E+00 -0.00000000000E+00 -0.74505805969E-08  0.93827000000E+00  0.93827000000E+00 0. -1.
     999902    2    1    2    0    0 -0.71995303155E-02 -0.81438970048E-02  0.21174206787E-01  0.10201286696E+01  0.10198509691E+01 0.  0.
     999903    2    3    3    0    0 -0.79232256411E-01 -0.22201036362E-01 -0.97393882480E-01  0.12914903540E+00  0.20573490894E-01 0.  0.
         14    1    1    2    0    0  0.71995303155E-02  0.81438970048E-02 -0.21174206787E-01  0.23801330389E-01  0.00000000000E+00 0. -1.
     999901    1    3    3    0    0  0.72032726095E-01  0.14057139358E-01  0.11856808927E+00  0.89097963422E+00  0.88000000000E+00 0.  1.
        -11    1    4    4    0    0 -0.23141689873E-01 -0.16387957246E-01 -0.34949450873E-01  0.45009201173E-01  0.51100000000E-03 0.  1.
         11    1    4    4    0    0 -0.56090566537E-01 -0.58130791161E-02 -0.62444431607E-01  0.84139834223E-01  0.51100000000E-03 0. -1.
</event>
<event>
 8    1  0.1132255E+005  0.1043930E+01  0.7957747E-01            NaN
         13   -1    0    0    0    0  0.00000000000E+00  0.00000000000E+00  0.74505805969E-08  0.10566000000E+00  0.10566000000E+00 0. -1.
     999900   -1    0    0    0    0 -0.00000000000E+00 -0.00000000000E+00 -0.74505805969E-08  0.93827000000E+00  0.93827000000E+00 0.  1.
     999902    2    1    2    0    0 -0.26210025295E-02 -0.21547138928E-01 -0.86393863564E-02  0.10205678972E+01  0.10203004680E+01 0.  0.
     999903    2    3    3    0    0 -0.65506633845E-01 -0.30801608599E-02  0.11041490787E+00  0.13013566684E+00  0.21053109885E-01 0.  0.
         14    1    1    2    0    0  0.26210025295E-02  0.21547138928E-01  0.86393863564E-02  0.23362102792E-01  0.00000000000E+00 0.  1.
     999901    1    3    3    0    0  0.62885631316E-01 -0.18466978068E-01 -0.11905429422E+00  0.89043223037E+00  0.88000000000E+00 0. -1.
        -11    1    4    4    0    0 -0.15956362989E-01 -0.83639860685E-02  0.39976483106E-01  0.43851363779E-01  0.51100000000E-03 0.  1.
         11    1    4    4    0    0 -0.49550270857E-01  0.52838252085E-02  0.70438424762E-01  0.86284303061E-01  0.51100000000E-03 0. -1.
</event>
<event>
 8    1  0.1132255E+005  0.1043930E+01  0.7957747E-01            NaN
         13   -1    0    0    0    0  0.00000000000E+00  0.00000000000E+00  0.74505805969E-08  0.10566000000E+00  0.10566000000E+00 0. -1.
     999900   -1    0    0    0    0 -0.00000000000E+00 -0.00000000000E+00 -0.74505805969E-08  0.93827000000E+00  0.93827000000E+00 0. -1.
     999902    2    1    2    0    0  0.13625402236E-01  0.15285712992E-01  0.39148020286E-02  0.10230822116E+01  0.10228697773E+01 0.  0.
     999903    2    3    3    0    0  0.82216657502E-01 -0.33798732840E-01  0.98391564239E-01  0.13401534022E+00  0.19423655392E-01 0.  0.
         14    1    1    2    0    0 -0.13625402236E-01 -0.15285712992E-01 -0.39148020286E-02  0.20847788436E-01  0.00000000000E+00 0.  1.
     999901    1    3    3    0    0 -0.68591255265E-01  0.49084445831E-01 -0.94476762211E-01  0.88906687134E+00  0.88000000000E+00 0. -1.
        -11    1    4    4    0    0  0.75633088149E-01 -0.27091476411E-01  0.80124183902E-01  0.11346566919E+00  0.51100000000E-03 0.  1.
         11    1    4    4    0    0  0.65835693521E-02 -0.67072564281E-02  0.18267380337E-01  0.20549671033E-01  0.51100000000E-03 0. -1.
</event>
<event>
 8    1  0.1132255E+005  0.1043930E+01  0.7957747E-01            NaN
         13   -1    0    0    0    0  0.00000000000E+00  0.00000000000E+00  0.74505805969E-08  0.10566000000E+00  0.10566000000E+00 0. -1.
     999900   -1    0    0    0    0 -0.00000000000E+00 -0.00000000000E+00 -0.74505805969E-08  0.93827000000E+00  0.93827000000E+00 0. -1.
     999902    2    1    2    0    0  0.19484960158E-02 -0.37752717057E-02 -0.22296135112E-01  0.10212327104E+01  0.10209804513E+01 0.  0.
     999903    2    3    3    0    0  0.23470686600E-01 -0.45186776444E-02  0.12491742933E+00  0.12874428423E+00  0.19985869874E-01 0.  0.
         14    1    1    2    0    0 -0.19484960158E-02  0.37752717057E-02  0.22296135112E-01  0.22697289576E-01  0.00000000000E+00 0. -1.
     999901    1    3    3    0    0 -0.21522190584E-01  0.74340593865E-03 -0.14721356444E+00  0.89248842620E+00  0.88000000000E+00 0. -1.
        -11    1    4    4    0    0  0.24327707702E-01  0.29165597457E-03  0.81660485369E-01  0.85209262507E-01  0.51100000000E-03 0.  1.
         11    1    4    4    0    0 -0.85702110204E-03 -0.48103336189E-02  0.43256943958E-01  0.43535021721E-01  0.51100000000E-03 0. -1.
</event>
<event>
 8    1  0.1132255E+005  0.1043930E+01  0.7957747E-01            NaN
         13   -1    0    0    0    0  0.00000000000E+00  0.00000000000E+00  0.74505805969E-08  0.10566000000E+00  0.10566000000E+00 0.  1.
     999900   -1    0    0    0    0 -0.00000000000E+00 -0.00000000000E+00 -0.74505805969E-08  0.93827000000E+00  0.93827000000E+00 0. -1.
     999902    2    1    2    0    0  0.23115713189E-01  0.43435750925E-02 -0.22577042308E-02  0.10203016258E+01  0.10200279935E+01 0.  0.
     999903    2    3    3    0    0  0.64248213992E-01  0.10622407633E+00  0.40362111015E-01  0.13244579974E+00  0.22392017978E-01 0.  0.
         14    1    1    2    0    0 -0.23115713189E-01 -0.43435750925E-02  0.22577042308E-02  0.23628374239E-01  0.00000000000E+00 0. -1.
     999901    1    3    3    0    0 -0.41132500804E-01 -0.10188050124E+00 -0.42619815246E-01  0.88785582602E+00  0.88000000000E+00 0.  1.
        -11    1    4    4    0    0  0.25307261908E-01  0.48080974688E-01  0.28862258159E-01  0.61526650317E-01  0.51100000000E-03 0. -1.
         11    1    4    4    0    0  0.38940952084E-01  0.58143101640E-01  0.11499852856E-01  0.70919149419E-01  0.51100000000E-03 0.  1.
</event>
<event>
 8    1  0.1132255E+005  0.1043930E+01  0.7957747E-01            NaN
         13   -1    0    0    0    0  0.00000000000E+00  0.00000000000E+00  0.74505805969E-08  0.10566000000E+00  0.10566000000E+00 0. -1.
     999900   -1    0    0    0    0 -0.00000000000E+00 -0.00000000000E+00 -0.74505805969E-08  0.93827000000E+00  0.93827000000E+00 0. -1.
     999902    2    1    2    0    0  0.62209973363E-02  0.39460497172E-02 -0.22696604376E-01  0.10200677292E+01  0.10197885880E+01 0.  0.
     999903    2    3    3    0    0  0.57241904046E-01  0.69942134562E-01 -0.95535357218E-01  0.13312686307E+00  0.20669287054E-01 0.  0.
         14    1    1    2    0    0 -0.62209973363E-02 -0.39460497172E-02  0.22696604376E-01  0.23862270772E-01  0.00000000000E+00 0. -1.
     999901    1    3    3    0    0 -0.51020906710E-01 -0.65996084845E-01  0.72838752843E-01  0.88694086615E+00  0.88000000000E+00 0.  1.
        -11    1    4    4    0    0  0.14484791011E-01  0.33601416814E-01 -0.37223907629E-01  0.52199088140E-01  0.51100000000E-03 0.  1.
         11    1    4    4    0    0  0.42757113036E-01  0.36340717749E-01 -0.58311449590E-01  0.80927774935E-01  0.51100000000E-03 0. -1.
</event>
<event>
 8    1  0.1132255E+005  0.1043930E+01  0.7957747E-01            NaN
         13   -1    0    0    0    0  0.00000000000E+00  0.00000000000E+00  0.74505805969E-08  0.10566000000E+00  0.10566000000E+00 0. -1.
     999900   -1    0    0    0    0 -0.00000000000E+00 -0.00000000000E+00 -0.74505805969E-08  0.93827000000E+00  0.93827000000E+00 0.  1.
     999902    2    1    2    0    0 -0.29275899033E-02 -0.70122794935E-02  0.22236455240E-01  0.10204310045E+01  0.10201603953E+01 0.  0.
     999903    2    3    3    0    0  0.81683058397E-01  0.98228176835E-01  0.14103578266E-01  0.13009361953E+00  0.20113233655E-01 0.  0.
         14    1    1    2    0    0  0.29275899033E-02  0.70122794935E-02 -0.22236455240E-01  0.23498995467E-01  0.00000000000E+00 0.  1.
     999901    1    3    3    0    0 -0.84610648300E-01 -0.10524045633E+00  0.81328769740E-02  0.89033738501E+00  0.88000000000E+00 0. -1.
        -11    1    4    4    0    0  0.24608096936E-01  0.43182641560E-01  0.94680039845E-03  0.49713745774E-01  0.51100000000E-03 0.  1.
         11    1    4    4    0    0  0.57074961461E-01  0.55045535274E-01  0.13156777867E-01  0.80379873751E-01  0.51100000000E-03 0. -1.
</event>
<event>
 8    1  0.1132255E+005  0.1043930E+01  0.7957747E-01            NaN
         13   -1    0    0    0    0  0.00000000000E+00  0.00000000000E+00  0.74505805969E-08  0.10566000000E+00  0.10566000000E+00 0.  1.
     999900   -1    0    0    0    0 -0.00000000000E+00 -0.00000000000E+00 -0.74505805969E-08  0.93827000000E+00  0.93827000000E+00 0.  1.
     999902    2    1    2    0    0 -0.14250473721E-01 -0.14477752029E-01 -0.13035990630E-01  0.10197925114E+01  0.10195068160E+01 0.  0.
     999903    2    3    3    0    0  0.90178080407E-01  0.66869876624E-01  0.56625638623E-01  0.12716968947E+00  0.19026307718E-01 0.  0.
         14    1    1    2    0    0  0.14250473721E-01  0.14477752029E-01  0.13035990630E-01  0.24137488618E-01  0.00000000000E+00 0.  1.
     999901    1    3    3    0    0 -0.10442855413E+00 -0.81347628653E-01 -0.69661629252E-01  0.89262282191E+00  0.88000000000E+00 0.  1.
        -11    1    4    4    0    0  0.48538902531E-01  0.25644578585E-01  0.22273101401E-01  0.59245435578E-01  0.51100000000E-03 0. -1.
         11    1    4    4    0    0  0.41639177875E-01  0.41225298039E-01  0.34352537222E-01  0.67924253894E-01  0.51100000000E-03 0.  1.
</event>
<event>
 8    1  0.1132255E+005  0.1043930E+01  0.7957747E-01            NaN
         13   -1    0    0    0    0  0.00000000000E+00  0.00000000000E+00  0.74505805969E-08  0.10566000000E+00  0.10566000000E+00 0.  1.
     999900   -1    0    0    0    0 -0.00000000000E+00 -0.00000000000E+00 -0.74505805969E-08  0.93827000000E+00  0.93827000000E+00 0.  1.
     999902    2    1    2    0    0 -0.23603407467E-02  0.21663602831E-01 -0.85590237407E-02  0.10205176147E+01  0.10202490197E+01 0.  0.
     999903    2    3    3    0    0 -0.57990270304E-02 -0.11437199765E+00  0.53559677046E-01  0.12789437835E+00  0.19332626479E-01 0.  0.
         14    1    1    2    0    0  0.23603407467E-02 -0.21663602831E-01  0.85590237407E-02  0.23412385258E-01  0.00000000000E+00 0. -1.
     999901    1    3    3    0    0  0.34386862837E-02  0.13603560048E+00 -0.62118700787E-01  0.89262323639E+00  0.88000000000E+00 0. -1.
        -11    1    4    4    0    0 -0.66705367034E-02 -0.81985646233E-01  0.28941487558E-01  0.87200992375E-01  0.51100000000E-03 0. -1.
         11    1    4    4    0    0  0.87150967307E-03 -0.32386351419E-01  0.24618189488E-01  0.40693385973E-01  0.51100000000E-03 0.  1.
</event>
<event>
 7    1  0.1132255E+005  0.1043930E+01  0.7957747E-01            NaN
         13   -1    0    0    0    0  0.00000000000E+00  0.00000000000E+00  0.74505805969E-08  0.10566000000E+00  0.10566000000E+00 0.  1.
     999900   -1    0    0    0    0 -0.00000000000E+00 -0.00000000000E+00 -0.74505805969E-08  0.93827000000E+00  0.93827000000E+00 0.  1.
     999903    2    1    2    0    0 -0.80009805505E-01  0.77506269681E-01 -0.26010877166E-02  0.11227062830E+00  0.13752727196E-01 0.  0.
         14    1    1    2    0    0 -0.25032336366E-01  0.29780702455E-02 -0.32430666528E-01  0.41075964965E-01  0.00000000000E+00 0. -1.
     999901    1    1    2    0    0  0.10504214187E+00 -0.80484339927E-01  0.35031754245E-01  0.89058340673E+00  0.88000000000E+00 0. -1.
        -11    1    3    3    0    0 -0.19607601820E-01  0.26327944645E-01  0.25720378106E-02  0.32931674993E-01  0.51100000000E-03 0. -1.
         11    1    3    3    0    0 -0.60402203685E-01  0.51178325036E-01 -0.51731255271E-02  0.79338953309E-01  0.51100000000E-03 0.  1.
</event>
<event>
 8    1  0.1132255E+005  0.1043930E+01  0.7957747E-01            NaN
         13   -1    0    0    0    0  0.00000000000E+00  0.00000000000E+00  0.74505805969E-08  0.10566000000E+00  0.10566000000E+00 0.  1.
     999900   -1    0    0    0    0 -0.00000000000E+00 -0.00000000000E+00 -0.74505805969E-08  0.93827000000E+00  0.93827000000E+00 0.  1.
     999902    2    1    2    0    0  0.14636416335E-01  0.70894482781E-02  0.17375988419E-01  0.10201306317E+01  0.10198529775E+01 0.  0.
     999903    2    3    3    0    0 -0.11638589309E+00  0.50814497620E-01 -0.82767148436E-02  0.12898710411E+00  0.21009039476E-01 0.  0.
         14    1    1    2    0    0 -0.14636416335E-01 -0.70894482781E-02 -0.17375988419E-01  0.23799368343E-01  0.00000000000E+00 0. -1.
     999901    1    3    3    0    0  0.13102230942E+00 -0.43725049342E-01  0.25652703262E-01  0.89114352755E+00  0.88000000000E+00 0. -1.
        -11    1    4    4    0    0 -0.78543226354E-01  0.44294239666E-01 -0.30086272094E-02  0.90223783075E-01  0.51100000000E-03 0.  1.
         11    1    4    4    0    0 -0.37842666733E-01  0.65202579545E-02 -0.52680876342E-02  0.38763321034E-01  0.51100000000E-03 0. -1.
</event>
<event>
 8    1  0.1132255E+005  0.1043930E+01  0.7957747E-01            NaN
         13   -1    0    0    0    0  0.00000000000E+00  0.00000000000E+00  0.74505805969E-08  0.10566000000E+00  0.10566000000E+00 0.  1.
     999900   -1    0    0    0    0 -0.00000000000E+00 -0.00000000000E+00 -0.74505805969E-08  0.93827000000E+00  0.93827000000E+00 0. -1.
     999902    2    1    2    0    0 -0.52386749994E-04 -0.22713266784E-01  0.66492260132E-02  0.10202634109E+01  0.10199888824E+01 0.  0.
     999903    2    3    3    0    0 -0.87934276156E-01 -0.59862744680E-02 -0.93543342648E-01  0.13007153858E+00  0.19999394729E-01 0.  0.
         14    1    1    2    0    0  0.52386749994E-04  0.22713266784E-01 -0.66492260132E-02  0.23666589086E-01  0.00000000000E+00 0.  1.
     999901    1    3    3    0    0  0.87881889406E-01 -0.16726992316E-01  0.10019256866E+00  0.89019187234E+00  0.88000000000E+00 0.  1.
        -11    1    4    4    0    0 -0.24365653199E-01  0.40500079959E-02 -0.36482959636E-01  0.44060811220E-01  0.51100000000E-03 0. -1.
         11    1    4    4    0    0 -0.63568622957E-01 -0.10036282464E-01 -0.57060383012E-01  0.86010727359E-01  0.51100000000E-03 0.  1.
</event>
<event>
 8    1  0.1132255E+005  0.1043930E+01  0.7957747E-01            NaN
         13   -1    0    0    0    0  0.00000000000E+00  0.00000000000E+00  0.74505805969E-08  0.10566000000E+00  0.10566000000E+00 0. -1.
     999900   -1    0    0    0    0 -0.00000000000E+00 -0.00000000000E+00 -0.74505805969E-08  0.93827000000E+00  0.93827000000E+00 0.  1.
     999902    2    1    2    0    0  0.24723153698E-02  0.15718708146E-01  0.17743405309E-01  0.10200968600E+01  0.10198184080E+01 0.  0.
     999903    2    3    3    0    0 -0.10011213323E+00  0.30903113173E-01  0.78464891049E-01  0.13192951426E+00  0.16468636325E-01 0.  0.
         14    1    1    2    0    0 -0.24723153698E-02 -0.15718708146E-01 -0.17743405309E-01  0.23833139974E-01  0.00000000000E+00 0.  1.
     999901    1    3    3    0    0  0.10258444860E+00 -0.15184405027E-01 -0.60721485740E-01  0.88816734576E+00  0.88000000000E+00 0. -1.
        -11    1    4    4    0    0 -0.52048996307E-01  0.22425469186E-01  0.48968900385E-01  0.74901361875E-01  0.51100000000E-03 0.  1.
         11    1    4    4    0    0 -0.48063136923E-01  0.84776439879E-02  0.29495990664E-01  0.57028152387E-01  0.51100000000E-03 0. -1.
</event>
<event>
 8    1  0.1132255E+005  0.1043930E+01  0.7957747E-01            NaN
         13   -1    0    0    0    0  0.00000000000E+00  0.00000000000E+00  0.74505805969E-08  0.10566000000E+00  0.10566000000E+00 0.  1.
     999900   -1    0    0    0    0 -0.00000000000E+00 -0.00000000000E+00 -0.74505805969E-08  0.93827000000E+00  0.93827000000E+00 0. -1.
     999902    2    1    2    0    0  0.16253500677E-01  0.19886645734E-02 -0.17002685717E-01  0.10203244415E+01  0.10200513436E+01 0.  0.
     999903    2    3    3    0    0  0.12532314108E+00 -0.24688616033E-01  0.28398497422E-01  0.13202880872E+00  0.17598699531E-01 0.  0.
         14    1    1    2    0    0 -0.16253500677E-01 -0.19886645734E-02  0.17002685717E-01  0.23605558511E-01  0.00000000000E+00 0.  1.
     999901    1    3    3    0    0 -0.10906964040E+00  0.26677280606E-01 -0.45401183139E-01  0.88829563276E+00  0.88000000000E+00 0. -1.
        -11    1    4    4    0    0  0.41378872221E-01 -0.43167771738E-02  0.18054840245E-02  0.41645726372E-01  0.51100000000E-03 0.  1.
         11    1    4    4    0    0  0.83944268861E-01 -0.20371838859E-01  0.26593013397E-01  0.90383082353E-01  0.51100000000E-03 0. -1.
</event>
<event>
 8    1  0.1132255E+005  0.1043930E+01  0.7957747E-01            NaN
         13   -1    0    0    0    0  0.00000000000E+00  0.00000000000E+00  0.74505805969E-08  0.10566000000E+00  0.10566000000E+00 0. -1.
     999900   -1    0    0    0    0 -0.00000000000E+00 -0.00000000000E+00 -0.74505805969E-08  0.93827000000E+00  0.93827000000E+00 0.  1.
     999902    2    1    2    0    0 -0.23250474895E-02 -0.11920905579E-01  0.21445641198E-01  0.10192839179E+01  0.10189859057E+01 0.  0.
     999903    2    3    3    0    0  0.64128551502E-02  0.54277769616E-03  0.13008797214E+00  0.13247229733E+00  0.24178704387E-01 0.  0.
         14    1    1    2    0    0  0.23250474895E-02  0.11920905579E-01 -0.21445641198E-01  0.24646082083E-01  0.00000000000E+00 0.  1.
     999901    1    3    3    0    0 -0.87379026397E-02 -0.12463683275E-01 -0.10864233094E+00  0.88681162059E+00  0.88000000000E+00 0.  1.
        -11    1    4    4    0    0 -0.80920515583E-02  0.50886255192E-02  0.59424515360E-01  0.60190610188E-01  0.51100000000E-03 0. -1.
         11    1    4    4    0    0  0.14504906708E-01 -0.45458478231E-02  0.70663456775E-01  0.72281687138E-01  0.51100000000E-03 0.  1.
</event>
<event>
 8    1  0.1132255E+005  0.1043930E+01  0.7957747E-01            NaN
         13   -1    0    0    0    0  0.00000000000E+00  0.00000000000E+00  0.74505805969E-08  0.10566000000E+00  0.10566000000E+00 0. -1.
     999900   -1    0    0    0    0 -0.00000000000E+00 -0.00000000000E+00 -0.74505805969E-08  0.93827000000E+00  0.93827000000E+00 0.  1.
     999902    2    1    2    0    0 -0.93290565337E-02  0.12883968705E-01 -0.15547456640E-01  0.10216869932E+01  0.10214448397E+01 0.  0.
     999903    2    3    3    0    0  0.53684513542E-02  0.50279004694E-02 -0.13209413246E+00  0.13384643191E+00  0.20295503227E-01 0.  0.
         14    1    1    2    0    0  0.93290565337E-02 -0.12883968705E-01  0.15547456640E-01  0.22243006842E-01  0.00000000000E+00 0. -1.
     999901    1    3    3    0    0 -0.14697507888E-01  0.78560682360E-02  0.11654667582E+00  0.88784056124E+00  0.88000000000E+00 0. -1.
        -11    1    4    4    0    0  0.12161921054E-01  0.71248161290E-02 -0.98473805474E-01  0.99478775697E-01  0.51100000000E-03 0. -1.
         11    1    4    4    0    0 -0.67934697003E-02 -0.20969156596E-02 -0.33620326990E-01  0.34367656215E-01  0.51100000000E-03 0.  1.
</event>
<event>
 8    1  0.1132255E+005  0.1043930E+01  0.7957747E-01            NaN
         13   -1    0    0    0    0  0.00000000000E+00  0.00000000000E+00  0.74505805969E-08  0.10566000000E+00  0.10566000000E+00 0.  1.
     999900   -1    0    0    0    0 -0.00000000000E+00 -0.00000000000E+00 -0.74505805969E-08  0.93827000000E+00  0.93827000000E+00 0.  1.
     999902    2    1    2    0    0 -0.20630165068E-01  0.10053512558E-01 -0.45743981086E-02  0.10205291038E+01  0.10202607754E+01 0.  0.
     999903    2    3    3    0    0  0.17238596334E-01  0.12868413135E+00  0.45600158183E-02  0.13171489130E+00  0.21708154672E-01 0.  0.
         14    1    1    2    0    0  0.20630165068E-01 -0.10053512558E-01  0.45743981086E-02  0.23400896212E-01  0.00000000000E+00 0.  1.
     999901    1    3    3    0    0 -0.37868761401E-01 -0.11863061880E+00 -0.91344139269E-02  0.88881421249E+00  0.88000000000E+00 0. -1.
        -11    1    4    4    0    0  0.11580982214E-01  0.46457726349E-01  0.10703372837E-01  0.49063864480E-01  0.51100000000E-03 0. -1.
         11    1    4    4    0    0  0.56576141196E-02  0.82226405005E-01 -0.61433570187E-02  0.82651026818E-01  0.51100000000E-03 0.  1.
</event>
<event>
 8    1  0.1132255E+005  0.1043930E+01  0.7957747E-01            NaN
         13   -1    0    0    0    0  0.00000000000E+00  0.00000000000E+00  0.74505805969E-08  0.10566000000E+00  0.10566000000E+00 0. -1.
     999900   -1    0    0    0    0 -0.00000000000E+00 -0.00000000000E+00 -0.74505805969E-08  0.93827000000E+00  0.93827000000E+00 0.  1.
     999902    2    1    2    0    0  0.38683688408E-02  0.20289036268E-01 -0.11306852447E-01  0.10203831492E+01  0.10201114238E+01 0.  0.
     999903    2    3    3    0    0 -0.12712854126E+00  0.16339905332E-01  0.12550865148E-01  0.13035788171E+00  0.20174107132E-01 0.  0.
         14    1    1    2    0    0 -0.38683688408E-02 -0.20289036268E-01  0.11306852447E-01  0.23546850796E-01  0.00000000000E+00 0.  1.
     999901    1    3    3    0    0  0.13099691010E+00  0.39491309362E-02 -0.23857717595E-01  0.89002526750E+00  0.88000000000E+00 0. -1.
        -11    1    4    4    0    0 -0.33867625402E-01  0.13363959395E-01  0.47829660656E-02  0.36725322960E-01  0.51100000000E-03 0.  1.
         11    1    4    4    0    0 -0.93260915857E-01  0.29759459370E-02  0.77678990824E-02  0.93632558749E-01  0.51100000000E-03 0. -1.
</event>
<event>
 8    1  0.1132255E+005  0.1043930E+01  0.7957747E-01            NaN
         13   -1    0    0    0    0  0.00000000000E+00  0.00000000000E+00  0.74505805969E-08  0.10566000000E+00  0.10566000000E+00 0.  1.
     999900   -1    0    0    0    0 -0.00000000000E+00 -0.00000000000E+00 -0.74505805969E-08  0.93827000000E+00  0.93827000000E+00 0.  1.
     999902    2    1    2    0    0  0.17737253069E-01  0.94978175165E-02  0.99700786080E-02  0.10214751308E+01  0.10212282907E+01 0.  0.
     999903    2    3    3    0    0 -0.57966401865E-01  0.94943875318E-01  0.68516567838E-01  0.13217216578E+00  0.20012949140E-01 0.  0.
         14    1    1    2    0    0 -0.17737253069E-01 -0.94978175165E-02 -0.99700786080E-02  0.22454869215E-01  0.00000000000E+00 0. -1.
     999901    1    3    3    0    0  0.75703654934E-01 -0.85446057802E-01 -0.58546489230E-01  0.88930296500E+00  0.88000000000E+00 0. -1.
        -11    1    4    4    0    0 -0.18784702991E-01  0.15453933617E-01  0.16735170577E-01  0.29529920181E-01  0.51100000000E-03 0.  1.
         11    1    4    4    0    0 -0.39181698874E-01  0.79489941702E-01  0.51781397261E-01  0.10264224560E+00  0.51100000000E-03 0. -1.
</event>
<event>
 8    1  0.1132255E+005  0.1043930E+01  0.7957747E-01            NaN
         13   -1    0    0    0    0  0.00000000000E+00  0.00000000000E+00  0.74505805969E-08  0.10566000000E+00  0.10566000000E+00 0.  1.
     999900   -1    0    0    0    0 -0.00000000000E+00 -0.00000000000E+00 -0.74505805969E-08  0.93827000000E+00  0.93827000000E+00 0.  1.
     999902    2    1    2    0    0 -0.22984567667E-01 -0.51262398805E-02  0.13411902455E-02  0.10203425568E+01  0.10200698828E+01 0.  0.
     999903    2    3    3    0    0 -0.36504322587E-01  0.18277564214E-02  0.12480717518E+00  0.13159344074E+00  0.20102149372E-01 0.  0.
         14    1    1    2    0    0  0.22984567667E-01  0.51262398805E-02 -0.13411902455E-02  0.23587443215E-01  0.00000000000E+00 0.  1.
     999901    1    3    3    0    0  0.13519754921E-01 -0.69539963019E-02 -0.12346598493E+00  0.88874911605E+00  0.88000000000E+00 0.  1.
        -11    1    4    4    0    0 -0.11205354916E-01  0.20664296699E-03  0.73624108754E-01  0.74473976602E-01  0.51100000000E-03 0. -1.
         11    1    4    4    0    0 -0.25298967671E-01  0.16211134544E-02  0.51183066421E-01  0.57119464137E-01  0.51100000000E-03 0.  1.
</event>
<event>
 8    1  0.1132255E+005  0.1043930E+01  0.7957747E-01            NaN
         13   -1    0    0    0    0  0.00000000000E+00  0.00000000000E+00  0.74505805969E-08  0.10566000000E+00  0.10566000000E+00 0. -1.
     999900   -1    0    0    0    0 -0.00000000000E+00 -0.00000000000E+00 -0.74505805969E-08  0.93827000000E+00  0.93827000000E+00 0.  1.
     999902    2    1    2    0    0  0.22246008669E-01 -0.55695746495E-02 -0.93872831654E-02  0.10191504490E+01  0.10188491603E+01 0.  0.
     999903    2    3    3    0    0 -0.69881126798E-01  0.23220859979E-01  0.10282954908E+00  0.12678902240E+00  0.88859335794E-02 0.  0.
         14    1    1    2    0    0 -0.22246008669E-01  0.55695746495E-02  0.93872831654E-02  0.24779551019E-01  0.00000000000E+00 0. -1.
     999901    1    3    3    0    0  0.92127135467E-01 -0.28790434629E-01 -0.11221683225E+00  0.89236142658E+00  0.88000000000E+00 0.  1.
        -11    1    4    4    0    0 -0.24643198058E-01  0.10022567160E-01  0.30669493201E-01  0.40603177181E-01  0.51100000000E-03 0. -1.
         11    1    4    4    0    0 -0.45237928740E-01  0.13198292819E-01  0.72160055880E-01  0.86185845216E-01  0.51100000000E-03 0.  1.
</event>
<event>
 8    1  0.1132255E+005  0.1043930E+01  0.7957747E-01            NaN
         13   -1    0    0    0    0  0.00000000000E+00  0.00000000000E+00  0.74505805969E-08  0.10566000000E+00  0.10566000000E+00 0.  1.
     999900   -1    0    0    0    0 -0.00000000000E+00 -0.00000000000E+00 -0.74505805969E-08  0.93827000000E+00  0.93827000000E+00 0.  1.
     999902    2    1    2    0    0 -0.14600754070E-01  0.46823729322E-02 -0.17536464252E-01  0.10206354896E+01  0.10203696234E+01 0.  0.
     999903    2    3    3    0    0 -0.35038478919E-01  0.79735860196E-01  0.94560670290E-01  0.13012075413E+00  0.20104424451E-01 0.  0.
         14    1    1    2    0    0  0.14600754070E-01 -0.46823729322E-02  0.17536464252E-01  0.23294510387E-01  0.00000000000E+00 0.  1.
     999901    1    3    3    0    0  0.20437724849E-01 -0.75053487264E-01 -0.11209713454E+00  0.89051473549E+00  0.88000000000E+00 0.  1.
        -11    1    4    4    0    0 -0.17969738649E-01  0.62781244849E-01  0.70216718762E-01  0.95890796882E-01  0.51100000000E-03 0. -1.
         11    1    4    4    0    0 -0.17068740270E-01  0.16954615347E-01  0.24343951528E-01  0.34229957245E-01  0.51100000000E-03 0.  1.
</event>
<event>
 8    1  0.1132255E+005  0.1043930E+01  0.7957747E-01            NaN
         13   -1    0    0    0    0  0.00000000000E+00  0.00000000000E+00  0.74505805969E-08  0.10566000000E+00  0.10566000000E+00 0.  1.
     999900   -1    0    0    0    0 -0.00000000000E+00 -0.00000000000E+00 -0.74505805969E-08  0.93827000000E+00  0.93827000000E+00 0. -1.
     999902    2    1    2    0    0  0.22595488060E-01  0.24340605265E-02  0.66855663067E-02  0.10202408141E+01  0.10199657549E+01 0.  0.
     999903    2    3    3    0    0 -0.35331548824E-01 -0.73805591775E-01 -0.97882797346E-01  0.12889207828E+00  0.18345084020E-01 0.  0.
         14    1    1    2    0    0 -0.22595488060E-01 -0.24340605265E-02 -0.66855663067E-02  0.23689185891E-01  0.00000000000E+00 0. -1.
     999901    1    3    3    0    0  0.57927036884E-01  0.76239652302E-01  0.10456836365E+00  0.89134873583E+00  0.88000000000E+00 0. -1.
        -11    1    4    4    0    0 -0.23546285062E-01 -0.41317158072E-01 -0.43481778863E-01  0.64439594237E-01  0.51100000000E-03 0.  1.
         11    1    4    4    0    0 -0.11785263762E-01 -0.32488433704E-01 -0.54401018483E-01  0.64452484044E-01  0.51100000000E-03 0. -1.
</event>
<event>
 8    1  0.1132255E+005  0.1043930E+01  0.7957747E-01            NaN
         13   -1    0    0    0    0  0.00000000000E+00  0.00000000000E+00  0.74505805969E-08  0.10566000000E+00  0.10566000000E+00 0. -1.
     999900   -1    0    0    0    0 -0.00000000000E+00 -0.00000000000E+00 -0.74505805969E-08  0.93827000000E+00  0.93827000000E+00 0. -1.
     999902    2    1    2    0    0 -0.21407415577E-01 -0.19931500578E-02  0.10617823999E-01  0.10199510869E+01  0.10196691774E+01 0.  0.
     999903    2    3    3    0    0  0.31293574226E-01  0.11031808824E+00 -0.55176082624E-01  0.12881695177E+00  0.20000964714E-01 0.  0.
         14    1    1    2    0    0  0.21407415577E-01  0.19931500578E-02 -0.10617823999E-01  0.23978913139E-01  0.00000000000E+00 0. -1.
     999901    1    3    3    0    0 -0.52700989803E-01 -0.11231123830E+00  0.65793906622E-01  0.89113413509E+00  0.88000000000E+00 0.  1.
        -11    1    4    4    0    0 -0.20557710290E-02  0.11329637300E-01 -0.89320731433E-02  0.14581835533E-01  0.51100000000E-03 0. -1.
         11    1    4    4    0    0  0.33349345255E-01  0.98988450938E-01 -0.46244009480E-01  0.11423511624E+00  0.51100000000E-03 0.  1.
</event>
<event>
 8    1  0.1132255E+005  0.1043930E+01  0.7957747E-01            NaN
         13   -1    0    0    0    0  0.00000000000E+00  0.00000000000E+00  0.74505805969E-08  0.10566000000E+00  0.10566000000E+00 0. -1.
     999900   -1    0    0    0    0 -0.00000000000E+00 -0.00000000000E+00 -0.74505805969E-08  0.93827000000E+00  0.93827000000E+00 0.  1.
     999902    2    1    2    0    0  0.18076027181E-01 -0.84336470188E-02 -0.14222250981E-01  0.10194322127E+01  0.10191378193E+01 0.  0.
     999903    2    3    3    0    0 -0.22018849879E-01  0.78300506863E-01 -0.99680244084E-01  0.13014402474E+00  0.19634586591E-01 0.  0.
         14    1    1    2    0    0 -0.18076027181E-01  0.84336470188E-02  0.14222250981E-01  0.24497787322E-01  0.00000000000E+00 0. -1.
     999901    1    3    3    0    0  0.40094877061E-01 -0.86734153882E-01  0.85457993103E-01  0.88928818794E+00  0.88000000000E+00 0. -1.
        -11    1    4    4    0    0 -0.13088355411E-01  0.22994381938E-01 -0.42693328677E-01  0.50229752962E-01  0.51100000000E-03 0.  1.
         11    1    4    4    0    0 -0.89304944678E-02  0.55306124925E-01 -0.56986915407E-01  0.79914271781E-01  0.51100000000E-03 0. -1.
</event>
<event>
 8    1  0.1132255E+005  0.1043930E+01  0.7957747E-01            NaN
         13   -1    0    0    0    0  0.00000000000E+00  0.00000000000E+00  0.74505805969E-08  0.10566000000E+00  0.10566000000E+00 0.  1.
     999900   -1    0    0    0    0 -0.00000000000E+00 -0.00000000000E+00 -0.74505805969E-08  0.93827000000E+00  0.93827000000E+00 0. -1.
     999902    2    1    2    0    0 -0.50630466350E-02 -0.16848967310E-01 -0.14304066027E-01  0.10212555993E+01  0.10210038544E+01 0.  0.
     999903    2    3    3    0    0 -0.10426551344E+00  0.72635677918E-01 -0.25822548228E-01  0.13109757596E+00  0.19301073138E-01 0.  0.
         14    1    1    2    0    0  0.50630466350E-02  0.16848967310E-01  0.14304066027E-01  0.22674400666E-01  0.00000000000E+00 0. -1.
     999901    1    3    3    0    0  0.99202466808E-01 -0.89484645228E-01  0.11518482201E-01  0.89015802338E+00  0.88000000000E+00 0.  1.
        -11    1    4    4    0    0 -0.89290801905E-01  0.56057480960E-01 -0.26614373715E-01  0.10873764061E+00  0.51100000000E-03 0.  1.
         11    1    4    4    0    0 -0.14974711539E-01  0.16578196958E-01  0.79182548605E-03  0.22359935345E-01  0.51100000000E-03 0. -1.
</event>
<event>
 8    1  0.1132255E+005  0.1043930E+01  0.7957747E-01            NaN
         13   -1    0    0    0    0  0.00000000000E+00  0.00000000000E+00  0.74505805969E-08  0.10566000000E+00  0.10566000000E+00 0.  1.
     999900   -1    0    0    0    0 -0.00000000000E+00 -0.00000000000E+00 -0.74505805969E-08  0.93827000000E+00  0.93827000000E+00 0. -1.
     999902    2    1    2    0    0  0.44691817695E-02 -0.23196013564E-01 -0.19973944678E-02  0.10202230766E+01  0.10199476006E+01 0.  0.
     999903    2    3    3    0    0 -0.47421398377E-01 -0.97442059712E-01  0.73245814397E-01  0.13237925694E+00  0.20385639979E-01 0.  0.
         14    1    1    2    0    0 -0.44691817695E-02  0.23196013564E-01  0.19973944678E-02  0.23706923369E-01  0.00000000000E+00 0.  1.
     999901    1    3    3    0    0  0.51890580147E-01  0.74246046147E-01 -0.75243208865E-01  0.88784381969E+00  0.88000000000E+00 0.  1.
        -11    1    4    4    0    0 -0.33402320816E-01 -0.82821436845E-01  0.65222385984E-01  0.11058628392E+00  0.51100000000E-03 0.  1.
         11    1    4    4    0    0 -0.14019077561E-01 -0.14620622867E-01  0.80234284130E-02  0.21792973023E-01  0.51100000000E-03 0. -1.
</event>
<event>
 8    1  0.1132255E+005  0.1043930E+01  0.7957747E-01            NaN
         13   -1    0    0    0    0  0.00000000000E+00  0.00000000000E+00  0.74505805969E-08  0.10566000000E+00  0.10566000000E+00 0.  1.
     999900   -1    0    0    0    0 -0.00000000000E+00 -0.00000000000E+00 -0.74505805969E-08  0.93827000000E+00  0.93827000000E+00 0.  1.
     999902    2    1    2    0    0  0.18427379562E-02 -0.11981164098E-01  0.20605954002E-01  0.10200229024E+01  0.10197426990E+01 0.  0.
     999903    2    3    3    0    0 -0.93459698720E-01  0.86686715325E-01 -0.64862099457E-02  0.12898312200E+00  0.18581521558E-01 0.  0.
         14    1    1    2    0    0 -0.18427379562E-02  0.11981164098E-01 -0.20605954002E-01  0.23907097620E-01  0.00000000000E+00 0. -1.
     999901    1    3    3    0    0  0.95302436676E-01 -0.98667879423E-01  0.27092163947E-01  0.89103978038E+00  0.88000000000E+00 0.  1.
        -11    1    4    4    0    0 -0.41644321733E-01  0.51141884676E-01 -0.19760927473E-02  0.65984149342E-01  0.51100000000E-03 0. -1.
         11    1    4    4    0    0 -0.51815376987E-01  0.35544830649E-01 -0.45101171984E-02  0.62998972661E-01  0.51100000000E-03 0.  1.
</event>
<event>
 8    1  0.1132255E+005  0.1043930E+01  0.7957747E-01            NaN
         13   -1    0    0    0    0  0.00000000000E+00  0.00000000000E+00  0.74505805969E-08  0.10566000000E+00  0.10566000000E+00 0.  1.
     999900   -1    0    0    0    0 -0.00000000000E+00 -0.00000000000E+00 -0.74505805969E-08  0.93827000000E+00  0.93827000000E+00 0.  1.
     999902    2    1    2    0    0  0.18578948883E-01  0.14411926654E-02  0.16616301847E-01  0.10189629044E+01  0.10186569808E+01 0.  0.
     999903    2    3    3    0    0 -0.94552570531E-01  0.80405339867E-01 -0.20746264649E-01  0.12743049406E+00  0.20072768782E-01 0.  0.
         14    1    1    2    0    0 -0.18578948883E-01 -0.14411926654E-02 -0.16616301847E-01  0.24967095646E-01  0.00000000000E+00 0. -1.
     999901    1    3    3    0    0  0.11313151941E+00 -0.78964147201E-01  0.37362566496E-01  0.89153241029E+00  0.88000000000E+00 0. -1.
        -11    1    4    4    0    0 -0.46785702882E-01  0.32929846863E-01 -0.91301044342E-03  0.57222124372E-01  0.51100000000E-03 0.  1.
         11    1    4    4    0    0 -0.47766867650E-01  0.47475493004E-01 -0.19833254206E-01  0.70208369689E-01  0.51100000000E-03 0. -1.
</event>
<event>
 8    1  0.1132255E+005  0.1043930E+01  0.7957747E-01            NaN
         13   -1    0    0    0    0  0.00000000000E+00  0.00000000000E+00  0.74505805969E-08  0.10566000000E+00  0.10566000000E+00 0. -1.
     999900   -1    0    0    0    0 -0.00000000000E+00 -0.00000000000E+00 -0.74505805969E-08  0.93827000000E+00  0.93827000000E+00 0. -1.
     999902    2    1    2    0    0 -0.12169810336E-03  0.22475655280E-01 -0.84041519888E-02  0.10199341741E+01  0.10196518621E+01 0.  0.
     999903    2    3    3    0    0  0.11473696856E+00  0.27180113340E-01  0.51970317993E-01  0.13040636572E+00  0.20039355075E-01 0.  0.
         14    1    1    2    0    0  0.12169810336E-03 -0.22475655280E-01  0.84041519888E-02  0.23995825915E-01  0.00000000000E+00 0. -1.
     999901    1    3    3    0    0 -0.11485866666E+00 -0.47044580599E-02 -0.60374469982E-01  0.88952780837E+00  0.88000000000E+00 0. -1.
        -11    1    4    4    0    0  0.32719219471E-01  0.14116120707E-01  0.23139610138E-01  0.42491350472E-01  0.51100000000E-03 0. -1.
         11    1    4    4    0    0  0.82017749090E-01  0.13063992632E-01  0.28830707855E-01  0.87915015246E-01  0.51100000000E-03 0.  1.
</event>
<event>
 8    1  0.1132255E+005  0.1043930E+01  0.7957747E-01            NaN
         13   -1    0    0    0    0  0.00000000000E+00  0.00000000000E+00  0.74505805969E-08  0.10566000000E+00  0.10566000000E+00 0.  1.
     999900   -1    0    0    0    0 -0.00000000000E+00 -0.00000000000E+00 -0.74505805969E-08  0.93827000000E+00  0.93827000000E+00 0.  1.
     999902    2    1    2    0    0 -0.12490764539E-01  0.55645410921E-02  0.19208853364E-01  0.10203511246E+01  0.10200786510E+01 0.  0.
     999903    2    3    3    0    0 -0.12551547499E+00 -0.63037253812E-02  0.37825733004E-01  0.13284786878E+00  0.20588801516E-01 0.  0.
         14    1    1    2    0    0  0.12490764539E-01 -0.55645410921E-02 -0.19208853364E-01  0.23578875374E-01  0.00000000000E+00 0. -1.
     999901    1    3    3    0    0  0.11302471045E+00  0.11868266473E-01 -0.18616879640E-01  0.88750325584E+00  0.88000000000E+00 0. -1.
        -11    1    4    4    0    0 -0.94265100467E-01  0.14152425579E-03  0.35921664628E-01  0.10087891904E+00  0.51100000000E-03 0.  1.
         11    1    4    4    0    0 -0.31250374522E-01 -0.64452496370E-02  0.19040683760E-02  0.31968949749E-01  0.51100000000E-03 0. -1.
</event>
<event>
 8    1  0.1132255E+005  0.1043930E+01  0.7957747E-01            NaN
         13   -1    0    0    0    0  0.00000000000E+00  0.00000000000E+00  0.74505805969E-08  0.10566000000E+00  0.10566000000E+00 0.  1.
     999900   -1    0    0    0    0 -0.00000000000E+00 -0.00000000000E+00 -0.74505805969E-08  0.93827000000E+00  0.93827000000E+00 0. -1.
     999902    2    1    2    0    0  0.55034633109E-02  0.87276330182E-02  0.20664667437E-01  0.10208326372E+01  0.10205713033E+01 0.  0.
     999903    2    3    3    0    0  0.73845978581E-01 -0.67455461576E-01  0.82155851876E-01  0.13276972896E+00  0.29576157296E-01 0.  0.
         14    1    1    2    0    0 -0.55034633109E-02 -0.87276330182E-02 -0.20664667437E-01  0.23097362767E-01  0.00000000000E+00 0. -1.
     999901    1    3    3    0    0 -0.68342515270E-01  0.76183094595E-01 -0.61491184440E-01  0.88806290828E+00  0.88000000000E+00 0. -1.
        -11    1    4    4    0    0  0.40867183376E-01 -0.22679176648E-01  0.50362735529E-01  0.68710537631E-01  0.51100000000E-03 0. -1.
         11    1    4    4    0    0  0.32978795204E-01 -0.44776284928E-01  0.31793116347E-01  0.64059191325E-01  0.51100000000E-03 0.  1.
</event>
<event>
 8    1  0.1132255E+005  0.1043930E+01  0.7957747E-01            NaN
         13   -1    0    0    0    0  0.00000000000E+00  0.00000000000E+00  0.74505805969E-08  0.10566000000E+00  0.10566000000E+00 0. -1.
     999900   -1    0    0    0    0 -0.00000000000E+00 -0.00000000000E+00 -0.74505805969E-08  0.93827000000E+00  0.93827000000E+00 0.  1.
     999902    2    1    2    0    0  0.18972072637E-01 -0.38099997521E-02  0.12887453617E-01  0.10206804387E+01  0.10204156094E+01 0.  0.
     999903    2    3    3    0    0 -0.12256854780E+00  0.31628477866E-01 -0.45967355385E-02  0.12849473508E+00  0.21595310721E-01 0.  0.
         14    1    1    2    0    0 -0.18972072637E-01  0.38099997521E-02 -0.12887453617E-01  0.23249561265E-01  0.00000000000E+00 0.  1.
     999901    1    3    3    0    0  0.14154062044E+00 -0.35438477618E-01  0.17484189156E-01  0.89218570365E+00  0.88000000000E+00 0. -1.
        -11    1    4    4    0    0 -0.58464457897E-01  0.43710013264E-02  0.69159152316E-03  0.58633931385E-01  0.51100000000E-03 0. -1.
         11    1    4    4    0    0 -0.64104089902E-01  0.27257476539E-01 -0.52883270617E-02  0.69860803699E-01  0.51100000000E-03 0.  1.
</event>
<event>
 8    1  0.1132255E+005  0.1043930E+01  0.7957747E-01            NaN
         13   -1    0    0    0    0  0.00000000000E+00  0.00000000000E+00  0.74505805969E-08  0.10566000000E+00  0.10566000000E+00 0. -1.
     999900   -1    0    0    0    0 -0.00000000000E+00 -0.00000000000E+00 -0.74505805969E-08  0.93827000000E+00  0.93827000000E+00 0.  1.
     999902    2    1    2    0    0  0.21914648998E-01 -0.10866465068E-01  0.11397082629E-02  0.10194426392E+01  0.10191484994E+01 0.  0.
     999903    2    3    3    0    0  0.89936747138E-02 -0.62603316943E-02  0.12823936684E+00  0.13020561161E+00  0.19699953001E-01 0.  0.
         14    1    1    2    0    0 -0.21914648998E-01  0.10866465068E-01 -0.11397082629E-02  0.24487360795E-01  0.00000000000E+00 0. -1.
     999901    1    3    3    0    0  0.12920974284E-01 -0.46061333737E-02 -0.12709965858E+00  0.88923702760E+00  0.88000000000E+00 0.  1.
        -11    1    4    4    0    0  0.33678000020E-02 -0.12038026781E-01  0.49650893739E-01  0.51202817654E-01  0.51100000000E-03 0. -1.
         11    1    4    4    0    0  0.56258747118E-02  0.57776950865E-02  0.78588473102E-01  0.79002793952E-01  0.51100000000E-03 0.  1.
</event>
<event>
 8    1  0.1132255E+005  0.1043930E+01  0.7957747E-01            NaN
         13   -1    0    0    0    0  0.00000000000E+00  0.00000000000E+00  0.74505805969E-08  0.10566000000E+00  0.10566000000E+00 0.  1.
     999900   -1    0    0    0    0 -0.00000000000E+00 -0.00000000000E+00 -0.74505805969E-08  0.93827000000E+00  0.93827000000E+00 0.  1.
     999902    2    1    2    0    0  0.19042392097E-01  0.17677187529E-01  0.15036613509E-02  0.10179039236E+01  0.10175711479E+01 0.  0.
     999903    2    3    3    0    0  0.75413251212E-01  0.98752910915E-01 -0.37916006051E-01  0.13150398177E+00  0.20405338383E-01 0.  0.
         14    1    1    2    0    0 -0.19042392097E-01 -0.17677187529E-01 -0.15036613509E-02  0.26026076408E-01  0.00000000000E+00 0.  1.
     999901    1    3    3    0    0 -0.56370859115E-01 -0.81075723386E-01  0.39419667402E-01  0.88639994182E+00  0.88000000000E+00 0. -1.
        -11    1    4    4    0    0  0.34013574943E-01  0.61183573887E-01 -0.20370935423E-01  0.72908086829E-01  0.51100000000E-03 0.  1.
         11    1    4    4    0    0  0.41399676269E-01  0.37569337028E-01 -0.17545070628E-01  0.58595894944E-01  0.51100000000E-03 0. -1.
</event>
<event>
 8    1  0.1132255E+005  0.1043930E+01  0.7957747E-01            NaN
         13   -1    0    0    0    0  0.00000000000E+00  0.00000000000E+00  0.74505805969E-08  0.10566000000E+00  0.10566000000E+00 0. -1.
     999900   -1    0    0    0    0 -0.00000000000E+00 -0.00000000000E+00 -0.74505805969E-08  0.93827000000E+00  0.93827000000E+00 0.  1.
     999902    2    1    2    0    0 -0.66277223399E-02 -0.12123372450E-01  0.18940805207E-01  0.10204852359E+01  0.10202158888E+01 0.  0.
     999903    2    3    3    0    0  0.12544879049E+00 -0.24904862738E-01  0.16448252154E-01  0.13053367284E+00  0.20269275310E-01 0.  0.
         14    1    1    2    0    0  0.66277223399E-02  0.12123372450E-01 -0.18940805207E-01  0.23444764125E-01  0.00000000000E+00 0.  1.
     999901    1    3    3    0    0 -0.13207651283E+00  0.12781490288E-01  0.24925530533E-02  0.88995156304E+00  0.88000000000E+00 0.  1.
        -11    1    4    4    0    0  0.80971182383E-01 -0.21576480603E-01  0.18746932941E-01  0.85869584297E-01  0.51100000000E-03 0. -1.
         11    1    4    4    0    0  0.44477608108E-01 -0.33283821348E-02 -0.22986807877E-02  0.44664088539E-01  0.51100000000E-03 0.  1.
</event>
<event>
 8    1  0.1132255E+005  0.1043930E+01  0.7957747E-01            NaN
         13   -1    0    0    0    0  0.00000000000E+00  0.00000000000E+00  0.74505805969E-08  0.10566000000E+00  0.10566000000E+00 0.  1.
     999900   -1    0    0    0    0 -0.00000000000E+00 -0.00000000000E+00 -0.74505805969E-08  0.93827000000E+00  0.93827000000E+00 0.  1.
     999902    2    1    2    0    0 -0.73911135740E-02 -0.67368047064E-02  0.20339655764E-01  0.10212647249E+01  0.10210131849E+01 0.  0.
     999903    2    3    3    0    0 -0.79067456679E-01 -0.10387210659E+00 -0.11100812171E-01  0.13246707188E+00  0.19576002398E-01 0.  0.
         14    1    1    2    0    0  0.73911135740E-02  0.67368047064E-02 -0.20339655764E-01  0.22665275072E-01  0.00000000000E+00 0. -1.
     999901    1    3    3    0    0  0.71676343105E-01  0.97135301881E-01  0.31440467935E-01  0.88879765304E+00  0.88000000000E+00 0.  1.
        -11    1    4    4    0    0 -0.50793546155E-01 -0.59335477309E-01  0.19045635901E-02  0.78131758472E-01  0.51100000000E-03 0.  1.
         11    1    4    4    0    0 -0.28273910524E-01 -0.44536629279E-01 -0.13005375761E-01  0.54335313411E-01  0.51100000000E-03 0. -1.
</event>
<event>
 8    1  0.1132255E+005  0.1043930E+01  0.7957747E-01            NaN
         13   -1    0    0    0    0  0.00000000000E+00  0.00000000000E+00  0.74505805969E-08  0.10566000000E+00  0.10566000000E+00 0. -1.
     999900   -1    0    0    0    0 -0.00000000000E+00 -0.00000000000E+00 -0.74505805969E-08  0.93827000000E+00  0.93827000000E+00 0. -1.
     999902    2    1    2    0    0 -0.16776331565E-01 -0.98187489061E-02 -0.12872939404E-01  0.10206155045E+01  0.10203491767E+01 0.  0.
     999903    2    3    3    0    0 -0.80913239119E-01 -0.75910723870E-02 -0.10416177753E+00  0.13356863009E+00  0.19655187681E-01 0.  0.
         14    1    1    2    0    0  0.16776331565E-01  0.98187489061E-02  0.12872939404E-01  0.23314495486E-01  0.00000000000E+00 0. -1.
     999901    1    3    3    0    0  0.64136907554E-01 -0.22276765191E-02  0.91288838122E-01  0.88704687442E+00  0.88000000000E+00 0.  1.
        -11    1    4    4    0    0 -0.58620060687E-01 -0.34058461937E-02 -0.60194388159E-01  0.84092430041E-01  0.51100000000E-03 0.  1.
         11    1    4    4    0    0 -0.22293178432E-01 -0.41852261933E-02 -0.43967389367E-01  0.49476200053E-01  0.51100000000E-03 0. -1.
</event>
<event>
 8    1  0.1132255E+005  0.1043930E+01  0.7957747E-01            NaN
         13   -1    0    0    0    0  0.00000000000E+00  0.00000000000E+00  0.74505805969E-08  0.10566000000E+00  0.10566000000E+00 0.  1.
     999900   -1    0    0    0    0 -0.00000000000E+00 -0.00000000000E+00 -0.74505805969E-08  0.93827000000E+00  0.93827000000E+00 0.  1.
     999902    2    1    2    0    0 -0.66816302946E-02 -0.18626274855E-01 -0.12180708261E-01  0.10206931338E+01  0.10204285969E+01 0.  0.
     999903    2    3    3    0    0  0.12726399829E+00 -0.20371883282E-01  0.26288351659E-02  0.13043260946E+00  0.19864942673E-01 0.  0.
         14    1    1    2    0    0  0.66816302946E-02  0.18626274855E-01  0.12180708261E-01  0.23236866228E-01  0.00000000000E+00 0.  1.
     999901    1    3    3    0    0 -0.13394562859E+00  0.17456084269E-02 -0.14809543427E-01  0.89026052431E+00  0.88000000000E+00 0.  1.
        -11    1    4    4    0    0  0.11146582542E+00 -0.14080360400E-01 -0.33426263158E-02  0.11240249578E+00  0.51100000000E-03 0.  1.
         11    1    4    4    0    0  0.15798172872E-01 -0.62915228818E-02  0.59714614817E-02  0.18030113685E-01  0.51100000000E-03 0. -1.
</event>
<event>
 8    1  0.1132255E+005  0.1043930E+01  0.7957747E-01            NaN
         13   -1    0    0    0    0  0.00000000000E+00  0.00000000000E+00  0.74505805969E-08  0.10566000000E+00  0.10566000000E+00 0. -1.
     999900   -1    0    0    0    0 -0.00000000000E+00 -0.00000000000E+00 -0.74505805969E-08  0.93827000000E+00  0.93827000000E+00 0. -1.
     999902    2    1    2    0    0 -0.60566492269E-02 -0.12423444883E-02  0.23334768083E-01  0.10197900368E+01  0.10195042822E+01 0.  0.
     999903    2    3    3    0    0 -0.29692055507E-01 -0.34524000357E-01 -0.11758465263E+00  0.12764398143E+00  0.19832062449E-01 0.  0.
         14    1    1    2    0    0  0.60566492269E-02  0.12423444883E-02 -0.23334768083E-01  0.24139963156E-01  0.00000000000E+00 0.  1.
     999901    1    3    3    0    0  0.23635406280E-01  0.33281655869E-01  0.14091942072E+00  0.89214605541E+00  0.88000000000E+00 0.  1.
        -11    1    4    4    0    0 -0.22202028497E-01 -0.34244615218E-01 -0.86228585106E-01  0.95400491357E-01  0.51100000000E-03 0.  1.
         11    1    4    4    0    0 -0.74900270104E-02 -0.27938513901E-03 -0.31356067526E-01  0.32243490077E-01  0.51100000000E-03 0. -1.
</event>
<event>
 8    1  0.1132255E+005  0.1043930E+01  0.7957747E-01            NaN
         13   -1    0    0    0    0  0.00000000000E+00  0.00000000000E+00  0.74505805969E-08  0.10566000000E+00  0.10566000000E+00 0.  1.
     999900   -1    0    0    0    0 -0.00000000000E+00 -0.00000000000E+00 -0.74505805969E-08  0.93827000000E+00  0.93827000000E+00 0. -1.
     999902    2    1    2    0    0 -0.47753882208E-02  0.33313892988E-02  0.23022485491E-01  0.10201826354E+01  0.10199062076E+01 0.  0.
     999903    2    3    3    0    0  0.24340569655E-01 -0.11434381433E+00 -0.50276419963E-01  0.12885333481E+00  0.20211191974E-01 0.  0.
         14    1    1    2    0    0  0.47753882208E-02 -0.33313892988E-02 -0.23022485491E-01  0.23747364601E-01  0.00000000000E+00 0. -1.
     999901    1    3    3    0    0 -0.29115957876E-01  0.11767520363E+00  0.73298905454E-01  0.89132930059E+00  0.88000000000E+00 0.  1.
        -11    1    4    4    0    0  0.24423939925E-02 -0.55191997733E-01 -0.28161712177E-01  0.62011813841E-01  0.51100000000E-03 0.  1.
         11    1    4    4    0    0  0.21898175662E-01 -0.59151816594E-01 -0.22114707786E-01  0.66841520967E-01  0.51100000000E-03 0. -1.
</event>
<event>
 8    1  0.1132255E+005  0.1043930E+01  0.7957747E-01            NaN
         13   -1    0    0    0    0  0.00000000000E+00  0.00000000000E+00  0.74505805969E-08  0.10566000000E+00  0.10566000000E+00 0. -1.
     999900   -1    0    0    0    0 -0.00000000000E+00 -0.00000000000E+00 -0.74505805969E-08  0.93827000000E+00  0.93827000000E+00 0.  1.
     999902    2    1    2    0    0  0.19721791259E-01 -0.12865310854E-01 -0.64005415404E-02  0.10195285204E+01  0.10192364651E+01 0.  0.
     999903    2    3    3    0    0 -0.85658361621E-01 -0.94409955264E-01  0.32959422993E-02  0.12944508194E+00  0.22238962071E-01 0.  0.
         14    1    1    2    0    0 -0.19721791259E-01  0.12865310854E-01  0.64005415404E-02  0.24401479583E-01  0.00000000000E+00 0. -1.
     999901    1    3    3    0    0  0.10538015288E+00  0.81544644410E-01 -0.96964838396E-02  0.89008343848E+00  0.88000000000E+00 0. -1.
        -11    1    4    4    0    0 -0.66801077918E-01 -0.78165992149E-01  0.10940769864E-01  0.10340342309E+00  0.51100000000E-03 0. -1.
         11    1    4    4    0    0 -0.18857283703E-01 -0.16243963115E-01 -0.76448275645E-02  0.26041658854E-01  0.51100000000E-03 0.  1.
</event>
<event>
 8    1  0.1132255E+005  0.1043930E+01  0.7957747E-01            NaN
         13   -1    0    0    0    0  0.00000000000E+00  0.00000000000E+00  0.74505805969E-08  0.10566000000E+00  0.10566000000E+00 0.  1.
     999900   -1    0    0    0    0 -0.00000000000E+00 -0.00000000000E+00 -0.74505805969E-08  0.93827000000E+00  0.93827000000E+00 0.  1.
     999902    2    1    2    0    0  0.21043918221E-01 -0.73163389924E-02  0.40261738046E-02  0.10212896514E+01  0.10210386705E+01 0.  0.
     999903    2    3    3    0    0 -0.95504091855E-01  0.47532877891E-01 -0.69252139011E-01  0.12889871329E+00  0.20943101230E-01 0.  0.
         14    1    1    2    0    0 -0.21043918221E-01  0.73163389924E-02 -0.40261738046E-02  0.22640348624E-01  0.00000000000E+00 0. -1.
     999901    1    3    3    0    0  0.11654801008E+00 -0.54849216883E-01  0.73278312816E-01  0.89239093808E+00  0.88000000000E+00 0. -1.
        -11    1    4    4    0    0 -0.20108329511E-01  0.17123485764E-01 -0.24835594640E-01  0.36257779338E-01  0.51100000000E-03 0. -1.
         11    1    4    4    0    0 -0.75395762344E-01  0.30409392127E-01 -0.44416544371E-01  0.92640933953E-01  0.51100000000E-03 0.  1.
</event>
<event>
 8    1  0.1132255E+005  0.1043930E+01  0.7957747E-01            NaN
         13   -1    0    0    0    0  0.00000000000E+00  0.00000000000E+00  0.74505805969E-08  0.10566000000E+00  0.10566000000E+00 0. -1.
     999900   -1    0    0    0    0 -0.00000000000E+00 -0.00000000000E+00 -0.74505805969E-08  0.93827000000E+00  0.93827000000E+00 0. -1.
     999902    2    1    2    0    0 -0.26788438771E-02  0.18612142162E-01  0.13036927284E-01  0.10210487956E+01  0.10207923851E+01 0.  0.
     999903    2    3    3    0    0  0.78272297763E-02  0.65033032542E-01  0.11507506099E+00  0.13387516134E+00  0.19741537787E-01 0.  0.
         14    1    1    2    0    0  0.26788438771E-02 -0.18612142162E-01 -0.13036927284E-01  0.22881204370E-01  0.00000000000E+00 0.  1.
     999901    1    3    3    0    0 -0.10506073653E-01 -0.46420890379E-01 -0.10203813371E+00  0.88717363429E+00  0.88000000000E+00 0. -1.
        -11    1    4    4    0    0 -0.20399214931E-02  0.52057558159E-01  0.88221369068E-01  0.10245692618E+00  0.51100000000E-03 0.  1.
         11    1    4    4    0    0  0.98671512694E-02  0.12975474383E-01  0.26853691924E-01  0.31418235160E-01  0.51100000000E-03 0. -1.
</event>
<event>
 8    1  0.1132255E+005  0.1043930E+01  0.7957747E-01            NaN
         13   -1    0    0    0    0  0.00000000000E+00  0.00000000000E+00  0.74505805969E-08  0.10566000000E+00  0.10566000000E+00 0.  1.
     999900   -1    0    0    0    0 -0.00000000000E+00 -0.00000000000E+00 -0.74505805969E-08  0.93827000000E+00  0.93827000000E+00 0. -1.
     999902    2    1    2    0    0  0.31114383356E-02 -0.18066735390E-01  0.15039352785E-01  0.10202177646E+01  0.10199421636E+01 0.  0.
     999903    2    3    3    0    0 -0.10644855446E+00  0.55317926380E-01  0.46798554885E-01  0.12982608250E+00  0.16532974139E-01 0.  0.
         14    1    1    2    0    0 -0.31114383356E-02  0.18066735390E-01 -0.15039352785E-01  0.23712235415E-01  0.00000000000E+00 0. -1.
     999901    1    3    3    0    0  0.10955999279E+00 -0.73384661770E-01 -0.31759202100E-01  0.89039168208E+00  0.88000000000E+00 0. -1.
        -11    1    4    4    0    0 -0.46416969680E-01  0.22256260595E-01  0.28708180543E-01  0.58943167213E-01  0.51100000000E-03 0. -1.
         11    1    4    4    0    0 -0.60031584776E-01  0.33061665784E-01  0.18090374342E-01  0.70882915290E-01  0.51100000000E-03 0.  1.
</event>
<event>
 8    1  0.1132255E+005  0.1043930E+01  0.7957747E-01            NaN
         13   -1    0    0    0    0  0.00000000000E+00  0.00000000000E+00  0.74505805969E-08  0.10566000000E+00  0.10566000000E+00 0.  1.
     999900   -1    0    0    0    0 -0.00000000000E+00 -0.00000000000E+00 -0.74505805969E-08  0.93827000000E+00  0.93827000000E+00 0.  1.
     999902    2    1    2    0    0  0.60128801200E-02  0.48653059295E-03 -0.22760800385E-01  0.10203833341E+01  0.10201116131E+01 0.  0.
     999903    2    3    3    0    0  0.98153096107E-01 -0.14048623078E-02 -0.87747745270E-01  0.13318735816E+00  0.20079882002E-01 0.  0.
         14    1    1    2    0    0 -0.60128801200E-02 -0.48653059295E-03  0.22760800385E-01  0.23546665868E-01  0.00000000000E+00 0.  1.
     999901    1    3    3    0    0 -0.92140215987E-01  0.18913929007E-02  0.64986944885E-01  0.88719597597E+00  0.88000000000E+00 0. -1.
        -11    1    4    4    0    0  0.60647856893E-01 -0.27270089666E-03 -0.66739157750E-01  0.90181002488E-01  0.51100000000E-03 0. -1.
         11    1    4    4    0    0  0.37505239214E-01 -0.11321614111E-02 -0.21008587519E-01  0.43006355676E-01  0.51100000000E-03 0.  1.
</event>
<event>
 8    1  0.1132255E+005  0.1043930E+01  0.7957747E-01            NaN
         13   -1    0    0    0    0  0.00000000000E+00  0.00000000000E+00  0.74505805969E-08  0.10566000000E+00  0.10566000000E+00 0.  1.
     999900   -1    0    0    0    0 -0.00000000000E+00 -0.00000000000E+00 -0.74505805969E-08  0.93827000000E+00  0.93827000000E+00 0. -1.
     999902    2    1    2    0    0 -0.21613896802E-01  0.32627926239E-03  0.69041027182E-02  0.10212378510E+01  0.10209857074E+01 0.  0.
     999903    2    3    3    0    0  0.91951159616E-03  0.17095452826E-01  0.12985293634E+00  0.13224663877E+00  0.18283554938E-01 0.  0.
         14    1    1    2    0    0  0.21613896802E-01 -0.32627926239E-03 -0.69041027182E-02  0.22692149027E-01  0.00000000000E+00 0. -1.
     999901    1    3    3    0    0 -0.22533408398E-01 -0.16769173563E-01 -0.12294883363E+00  0.88899121220E+00  0.88000000000E+00 0. -1.
        -11    1    4    4    0    0  0.55422756001E-04 -0.34088269983E-02  0.85495461391E-02  0.92184073121E-02  0.51100000000E-03 0.  1.
         11    1    4    4    0    0  0.86408884015E-03  0.20504279824E-01  0.12130339020E+00  0.12302823146E+00  0.51100000000E-03 0. -1.
</event>
<event>
 8    1  0.1132255E+005  0.1043930E+01  0.7957747E-01            NaN
         13   -1    0    0    0    0  0.00000000000E+00  0.00000000000E+00  0.74505805969E-08  0.10566000000E+00  0.10566000000E+00 0. -1.
     999900   -1    0    0    0    0 -0.00000000000E+00 -0.00000000000E+00 -0.74505805969E-08  0.93827000000E+00  0.93827000000E+00 0. -1.
     999902    2    1    2    0    0  0.99473750910E-02 -0.63016359859E-02 -0.21824221646E-01  0.10191316626E+01  0.10188299113E+01 0.  0.
     999903    2    3    3    0    0  0.11372534335E+00 -0.60754382785E-01 -0.14802821541E-01  0.13133423729E+00  0.20124850577E-01 0.  0.
         14    1    1    2    0    0 -0.99473750910E-02  0.63016359859E-02  0.21824221646E-01  0.24798337399E-01  0.00000000000E+00 0. -1.
     999901    1    3    3    0    0 -0.10377796826E+00  0.54452746799E-01 -0.70214001054E-02  0.88779742531E+00  0.88000000000E+00 0.  1.
        -11    1    4    4    0    0  0.59279310051E-01 -0.42696878641E-01 -0.10511221224E-01  0.73809260520E-01  0.51100000000E-03 0.  1.
         11    1    4    4    0    0  0.54446033300E-01 -0.18057504144E-01 -0.42916003165E-02  0.57524976769E-01  0.51100000000E-03 0. -1.
</event>
<event>
 8    1  0.1132255E+005  0.1043930E+01  0.7957747E-01            NaN
         13   -1    0    0    0    0  0.00000000000E+00  0.00000000000E+00  0.74505805969E-08  0.10566000000E+00  0.10566000000E+00 0. -1.
     999900   -1    0    0    0    0 -0.00000000000E+00 -0.00000000000E+00 -0.74505805969E-08  0.93827000000E+00  0.93827000000E+00 0. -1.
     999902    2    1    2    0    0 -0.22852351749E-01  0.14064381288E-01 -0.43703690976E-03  0.10170929398E+01  0.10167388162E+01 0.  0.
     999903    2    3    3    0    0  0.30996442185E-01 -0.44796060256E-01  0.11217936237E+00  0.12633668938E+00  0.20230751313E-01 0.  0.
         14    1    1    2    0    0  0.22852351749E-01 -0.14064381288E-01  0.43703690976E-03  0.26837060248E-01  0.00000000000E+00 0.  1.
     999901    1    3    3    0    0 -0.53848793934E-01  0.58860441544E-01 -0.11261639928E+00  0.89075625037E+00  0.88000000000E+00 0. -1.
        -11    1    4    4    0    0  0.41105268084E-02  0.15718783362E-02  0.10436864640E-01  0.11338275735E-01  0.51100000000E-03 0.  1.
         11    1    4    4    0    0  0.26885915376E-01 -0.46367938592E-01  0.10174249773E+00  0.11499841365E+00  0.51100000000E-03 0. -1.
</event>
<event>
 8    1  0.1132255E+005  0.1043930E+01  0.7957747E-01            NaN
         13   -1    0    0    0    0  0.00000000000E+00  0.00000000000E+00  0.74505805969E-08  0.10566000000E+00  0.10566000000E+00 0. -1.
     999900   -1    0    0    0    0 -0.00000000000E+00 -0.00000000000E+00 -0.74505805969E-08  0.93827000000E+00  0.93827000000E+00 0.  1.
     999902    2    1    2    0    0 -0.21769061991E-01 -0.10135554106E-01 -0.69314028220E-02  0.10189366837E+01  0.10186301092E+01 0.  0.
     999903    2    3    3    0    0 -0.52800615102E-01  0.50139578164E-01 -0.10672221504E+00  0.13070571422E+00  0.19810862978E-01 0.  0.
         14    1    1    2    0    0  0.21769061991E-01  0.10135554106E-01  0.69314028220E-02  0.24993316348E-01  0.00000000000E+00 0. -1.
     999901    1    3    3    0    0  0.31031553111E-01 -0.60275132270E-01  0.99790812220E-01  0.88823096943E+00  0.88000000000E+00 0. -1.
        -11    1    4    4    0    0 -0.50209770113E-01  0.37945339475E-01 -0.87315688185E-01  0.10763438264E+00  0.51100000000E-03 0.  1.
         11    1    4    4    0    0 -0.25908449891E-02  0.12194238689E-01 -0.19406526857E-01  0.23071331575E-01  0.51100000000E-03 0. -1.
</event>
<event>
 8    1  0.1132255E+005  0.1043930E+01  0.7957747E-01            NaN
         13   -1    0    0    0    0  0.00000000000E+00  0.00000000000E+00  0.74505805969E-08  0.10566000000E+00  0.10566000000E+00 0.  1.
     999900   -1    0    0    0    0 -0.00000000000E+00 -0.00000000000E+00 -0.74505805969E-08  0.93827000000E+00  0.93827000000E+00 0.  1.
     999902    2    1    2    0    0  0.27947125675E-02 -0.13403019060E-01 -0.19673628111E-01  0.10199612082E+01  0.10196795395E+01 0.  0.
     999903    2    3    3    0    0 -0.10391922817E+00  0.73125233647E-02  0.72641767722E-01  0.12847978316E+00  0.19430627441E-01 0.  0.
         14    1    1    2    0    0 -0.27947125675E-02  0.13403019060E-01  0.19673628111E-01  0.23968791820E-01  0.00000000000E+00 0.  1.
     999901    1    3    3    0    0  0.10671394073E+00 -0.20715542424E-01 -0.92315395833E-01  0.89148142502E+00  0.88000000000E+00 0.  1.
        -11    1    4    4    0    0 -0.74137091825E-01  0.70514595891E-02  0.61816003246E-01  0.96785902098E-01  0.51100000000E-03 0.  1.
         11    1    4    4    0    0 -0.29782136342E-01  0.26106377562E-03  0.10825764475E-01  0.31693881064E-01  0.51100000000E-03 0. -1.
</event>
<event>
 8    1  0.1132255E+005  0.1043930E+01  0.7957747E-01            NaN
         13   -1    0    0    0    0  0.00000000000E+00  0.00000000000E+00  0.74505805969E-08  0.10566000000E+00  0.10566000000E+00 0. -1.
     999900   -1    0    0    0    0 -0.00000000000E+00 -0.00000000000E+00 -0.74505805969E-08  0.93827000000E+00  0.93827000000E+00 0. -1.
     999902    2    1    2    0    0 -0.55830179824E-03  0.56033329970E-02 -0.22814710182E-01  0.10204306374E+01  0.10201600197E+01 0.  0.
     999903    2    3    3    0    0 -0.10913879600E+00  0.66038589956E-01  0.21461912602E-01  0.13059775235E+00  0.17966275929E-01 0.  0.
         14    1    1    2    0    0  0.55830179824E-03 -0.56033329970E-02  0.22814710182E-01  0.23499362592E-01  0.00000000000E+00 0. -1.
     999901    1    3    3    0    0  0.10858049420E+00 -0.60435256959E-01 -0.44276622783E-01  0.88983288506E+00  0.88000000000E+00 0. -1.
        -11    1    4    4    0    0 -0.43581760906E-01  0.28951221007E-01  0.17171617930E-03  0.52324312598E-01  0.51100000000E-03 0. -1.
         11    1    4    4    0    0 -0.65557035094E-01  0.37087368949E-01  0.21290196422E-01  0.78273439752E-01  0.51100000000E-03 0.  1.
</event>
<event>
 8    1  0.1132255E+005  0.1043930E+01  0.7957747E-01            NaN
         13   -1    0    0    0    0  0.00000000000E+00  0.00000000000E+00  0.74505805969E-08  0.10566000000E+00  0.10566000000E+00 0.  1.
     999900   -1    0    0    0    0 -0.00000000000E+00 -0.00000000000E+00 -0.74505805969E-08  0.93827000000E+00  0.93827000000E+00 0. -1.
     999902    2    1    2    0    0  0.18371998929E-01 -0.62840391729E-02 -0.13800807843E-01  0.10201081237E+01  0.10198299379E+01 0.  0.
     999903    2    3    3    0    0  0.61788782479E-01  0.21080691093E-01  0.11050174491E+00  0.12989187460E+00  0.19975341846E-01 0.  0.
         14    1    1    2    0    0 -0.18371998929E-01  0.62840391729E-02  0.13800807843E-01  0.23821876293E-01  0.00000000000E+00 0.  1.
     999901    1    3    3    0    0 -0.43416783550E-01 -0.27364730266E-01 -0.12430255275E+00  0.89021624911E+00  0.88000000000E+00 0. -1.
        -11    1    4    4    0    0  0.16729041088E-01  0.12594458439E-03  0.42411302201E-01  0.45594477222E-01  0.51100000000E-03 0. -1.
         11    1    4    4    0    0  0.45059741392E-01  0.20954746509E-01  0.68090442707E-01  0.84297397377E-01  0.51100000000E-03 0.  1.
</event>
<event>
 8    1  0.1132255E+005  0.1043930E+01  0.7957747E-01            NaN
         13   -1    0    0    0    0  0.00000000000E+00  0.00000000000E+00  0.74505805969E-08  0.10566000000E+00  0.10566000000E+00 0.  1.
     999900   -1    0    0    0    0 -0.00000000000E+00 -0.00000000000E+00 -0.74505805969E-08  0.93827000000E+00  0.93827000000E+00 0. -1.
     999902    2    1    2    0    0  0.80356814798E-02 -0.12544345416E-01 -0.16359957584E-01  0.10218035229E+01  0.10215639277E+01 0.  0.
     999903    2    3    3    0    0  0.16653971546E-01  0.10169260520E+00 -0.80310885296E-01  0.13207655520E+00  0.19381367791E-01 0.  0.
         14    1    1    2    0    0 -0.80356814798E-02  0.12544345416E-01  0.16359957584E-01  0.22126477146E-01  0.00000000000E+00 0.  1.
     999901    1    3    3    0    0 -0.86182900666E-02 -0.11423695061E+00  0.63950927712E-01  0.88972696765E+00  0.88000000000E+00 0.  1.
        -11    1    4    4    0    0  0.19001840603E-01  0.56885158216E-01 -0.46587914809E-01  0.75945283585E-01  0.51100000000E-03 0. -1.
         11    1    4    4    0    0 -0.23478690567E-02  0.44807446981E-01 -0.33722970487E-01  0.56131271618E-01  0.51100000000E-03 0.  1.
</event>
<event>
 8    1  0.1132255E+005  0.1043930E+01  0.7957747E-01            NaN
         13   -1    0    0    0    0  0.00000000000E+00  0.00000000000E+00  0.74505805969E-08  0.10566000000E+00  0.10566000000E+00 0.  1.
     999900   -1    0    0    0    0 -0.00000000000E+00 -0.00000000000E+00 -0.74505805969E-08  0.93827000000E+00  0.93827000000E+00 0. -1.
     999902    2    1    2    0    0  0.62215958615E-04 -0.14029239601E-01  0.18507055948E-01  0.10207064224E+01  0.10204421915E+01 0.  0.
     999903    2    3    3    0    0  0.92950936534E-01 -0.74403048500E-01 -0.49466654120E-01  0.13115949481E+00  0.24086780176E-01 0.  0.
         14    1    1    2    0    0 -0.62215958615E-04  0.14029239601E-01 -0.18507055948E-01  0.23223577555E-01  0.00000000000E+00 0. -1.
     999901    1    3    3    0    0 -0.92888720576E-01  0.60373808899E-01  0.67973710068E-01  0.88954692764E+00  0.88000000000E+00 0. -1.
        -11    1    4    4    0    0  0.47460556812E-01 -0.52240876485E-01 -0.33235401542E-01  0.78015810356E-01  0.51100000000E-03 0.  1.
         11    1    4    4    0    0  0.45490379722E-01 -0.22162172015E-01 -0.16231252578E-01  0.53143684450E-01  0.51100000000E-03 0. -1.
</event>
<event>
 8    1  0.1132255E+005  0.1043930E+01  0.7957747E-01            NaN
         13   -1    0    0    0    0  0.00000000000E+00  0.00000000000E+00  0.74505805969E-08  0.10566000000E+00  0.10566000000E+00 0. -1.
     999900   -1    0    0    0    0 -0.00000000000E+00 -0.00000000000E+00 -0.74505805969E-08  0.93827000000E+00  0.93827000000E+00 0. -1.
     999902    2    1    2    0    0  0.70345120411E-02 -0.52507024842E-02  0.22509237349E-01  0.10197697019E+01  0.10194834599E+01 0.  0.
     999903    2    3    3    0    0 -0.18667038700E-01  0.24609550216E-02  0.13013117070E+00  0.13280717742E+00  0.18684489617E-01 0.  0.
         14    1    1    2    0    0 -0.70345120411E-02  0.52507024842E-02 -0.22509237349E-01  0.24160298058E-01  0.00000000000E+00 0.  1.
     999901    1    3    3    0    0  0.25701550742E-01 -0.77116575058E-02 -0.10762193335E+00  0.88696252452E+00  0.88000000000E+00 0. -1.
        -11    1    4    4    0    0 -0.99732985233E-03 -0.49444381259E-02  0.56342175416E-01  0.56569815157E-01  0.51100000000E-03 0. -1.
         11    1    4    4    0    0 -0.17669708848E-01  0.74053931475E-02  0.73788995284E-01  0.76237362261E-01  0.51100000000E-03 0.  1.
</event>
<event>
 8    1  0.1132255E+005  0.1043930E+01  0.7957747E-01            NaN
         13   -1    0    0    0    0  0.00000000000E+00  0.00000000000E+00  0.74505805969E-08  0.10566000000E+00  0.10566000000E+00 0.  1.
     999900   -1    0    0    0    0 -0.00000000000E+00 -0.00000000000E+00 -0.74505805969E-08  0.93827000000E+00  0.93827000000E+00 0.  1.
     999902    2    1    2    0    0 -0.24349474928E-03  0.37211193415E-02  0.23542241806E-01  0.10200942460E+01  0.10198157322E+01 0.  0.
     999903    2    3    3    0    0 -0.11562736923E-01  0.77698114313E-01  0.10521246504E+00  0.13314963309E+00  0.22101315330E-01 0.  0.
         14    1    1    2    0    0  0.24349474928E-03 -0.37211193415E-02 -0.23542241806E-01  0.23835753987E-01  0.00000000000E+00 0. -1.
     999901    1    3    3    0    0  0.11319242174E-01 -0.73976994972E-01 -0.81670223235E-01  0.88694461292E+00  0.88000000000E+00 0.  1.
        -11    1    4    4    0    0 -0.14419857383E-02  0.34754921539E-02  0.17009416115E-01  0.17428130311E-01  0.51100000000E-03 0. -1.
         11    1    4    4    0    0 -0.10120751185E-01  0.74222622159E-01  0.88203048926E-01  0.11572150278E+00  0.51100000000E-03 0.  1.
</event>
<event>
 8    1  0.1132255E+005  0.1043930E+01  0.7957747E-01            NaN
         13   -1    0    0    0    0  0.00000000000E+00  0.00000000000E+00  0.74505805969E-08  0.10566000000E+00  0.10566000000E+00 0. -1.
     999900   -1    0    0    0    0 -0.00000000000E+00 -0.00000000000E+00 -0.74505805969E-08  0.93827000000E+00  0.93827000000E+00 0.  1.
     999902    2    1    2    0    0 -0.21051797057E-01  0.94524711102E-02 -0.52418881950E-02  0.10202655803E+01  0.10199911027E+01 0.  0.
     999903    2    3    3    0    0  0.53048998672E-01  0.16728957374E-02 -0.11706722885E+00  0.13006540248E+00  0.19881599827E-01 0.  0.
         14    1    1    2    0    0  0.21051797057E-01 -0.94524711102E-02  0.52418881950E-02  0.23664419732E-01  0.00000000000E+00 0. -1.
     999901    1    3    3    0    0 -0.74100795728E-01  0.77795753729E-02  0.11182534065E+00  0.89020017779E+00  0.88000000000E+00 0. -1.
        -11    1    4    4    0    0  0.25596801347E-01 -0.80078509604E-02 -0.66654860297E-01  0.71850215298E-01  0.51100000000E-03 0.  1.
         11    1    4    4    0    0  0.27452197324E-01  0.96807466977E-02 -0.50412368553E-01  0.58215187182E-01  0.51100000000E-03 0. -1.
</event>
<event>
 8    1  0.1132255E+005  0.1043930E+01  0.7957747E-01            NaN
         13   -1    0    0    0    0  0.00000000000E+00  0.00000000000E+00  0.74505805969E-08  0.10566000000E+00  0.10566000000E+00 0.  1.
     999900   -1    0    0    0    0 -0.00000000000E+00 -0.00000000000E+00 -0.74505805969E-08  0.93827000000E+00  0.93827000000E+00 0.  1.
     999902    2    1    2    0    0  0.18223548572E-02 -0.13616172863E-01  0.18697687298E-01  0.10207281757E+01  0.10204644452E+01 0.  0.
     999903    2    3    3    0    0 -0.11011470603E+00 -0.61867213643E-02 -0.64932396488E-01  0.12967313067E+00  0.20865778185E-01 0.  0.
         14    1    1    2    0    0 -0.18223548572E-02  0.13616172863E-01 -0.18697687298E-01  0.23201824302E-01  0.00000000000E+00 0. -1.
     999901    1    3    3    0    0  0.11193706089E+00 -0.74294514991E-02  0.83630083785E-01  0.89105504502E+00  0.88000000000E+00 0. -1.
        -11    1    4    4    0    0 -0.47602909171E-01  0.61935067827E-02 -0.34052473931E-01  0.58857697794E-01  0.51100000000E-03 0.  1.
         11    1    4    4    0    0 -0.62511796861E-01 -0.12380228147E-01 -0.30879922556E-01  0.70815432879E-01  0.51100000000E-03 0. -1.
</event>
<event>
 8    1  0.1132255E+005  0.1043930E+01  0.7957747E-01            NaN
         13   -1    0    0    0    0  0.00000000000E+00  0.00000000000E+00  0.74505805969E-08  0.10566000000E+00  0.10566000000E+00 0. -1.
     999900   -1    0    0    0    0 -0.00000000000E+00 -0.00000000000E+00 -0.74505805969E-08  0.93827000000E+00  0.93827000000E+00 0.  1.
     999902    2    1    2    0    0  0.19953911427E-02 -0.11532858227E-01  0.20635149474E-01  0.10202066402E+01  0.10199307775E+01 0.  0.
     999903    2    3    3    0    0 -0.61547820198E-01 -0.56677177950E-01  0.10201239788E+00  0.13302119972E+00  0.16960942823E-01 0.  0.
         14    1    1    2    0    0 -0.19953911427E-02  0.11532858227E-01 -0.20635149474E-01  0.23723359765E-01  0.00000000000E+00 0.  1.
     999901    1    3    3    0    0  0.63543211340E-01  0.45144319722E-01 -0.81377248406E-01  0.88718544052E+00  0.88000000000E+00 0. -1.
        -11    1    4    4    0    0 -0.37518862564E-01 -0.24328715812E-01  0.47615857142E-01  0.65322908949E-01  0.51100000000E-03 0. -1.
         11    1    4    4    0    0 -0.24028957633E-01 -0.32348462138E-01  0.54396540738E-01  0.67698290768E-01  0.51100000000E-03 0.  1.
</event>
<event>
 8    1  0.1132255E+005  0.1043930E+01  0.7957747E-01            NaN
         13   -1    0    0    0    0  0.00000000000E+00  0.00000000000E+00  0.74505805969E-08  0.10566000000E+00  0.10566000000E+00 0.  1.
     999900   -1    0    0    0    0 -0.00000000000E+00 -0.00000000000E+00 -0.74505805969E-08  0.93827000000E+00  0.93827000000E+00 0.  1.
     999902    2    1    2    0    0 -0.13196728742E-01 -0.17058076145E-01  0.12061955971E-01  0.10192192252E+01  0.10189196271E+01 0.  0.
     999903    2    3    3    0    0  0.93680401009E-01  0.70909677258E-01  0.44858447962E-01  0.12779527642E+00  0.22696970280E-01 0.  0.
         14    1    1    2    0    0  0.13196728742E-01  0.17058076145E-01 -0.12061955971E-01  0.24710774838E-01  0.00000000000E+00 0.  1.
     999901    1    3    3    0    0 -0.10687712975E+00 -0.87967753403E-01 -0.32796491991E-01  0.89142394874E+00  0.88000000000E+00 0. -1.
        -11    1    4    4    0    0  0.84084543781E-01  0.58519170815E-01  0.45516462759E-01  0.11210135306E+00  0.51100000000E-03 0. -1.
         11    1    4    4    0    0  0.95958572282E-02  0.12390506442E-01 -0.65801479735E-03  0.15693923356E-01  0.51100000000E-03 0.  1.
</event>
<event>
 8    1  0.1132255E+005  0.1043930E+01  0.7957747E-01            NaN
         13   -1    0    0    0    0  0.00000000000E+00  0.00000000000E+00  0.74505805969E-08  0.10566000000E+00  0.10566000000E+00 0. -1.
     999900   -1    0    0    0    0 -0.00000000000E+00 -0.00000000000E+00 -0.74505805969E-08  0.93827000000E+00  0.93827000000E+00 0. -1.
     999902    2    1    2    0    0  0.10564498831E-01 -0.13517714033E-01 -0.25324130502E-01  0.10133416229E+01  0.10128798526E+01 0.  0.
     999903    2    3    3    0    0  0.92746984617E-01 -0.49263860280E-01  0.63496734961E-01  0.12434168247E+00  0.20002188939E-01 0.  0.
         14    1    1    2    0    0 -0.10564498831E-01  0.13517714033E-01  0.25324130502E-01  0.30588377105E-01  0.00000000000E+00 0. -1.
     999901    1    3    3    0    0 -0.82182485786E-01  0.35746146247E-01 -0.88820865463E-01  0.88899994043E+00  0.88000000000E+00 0. -1.
        -11    1    4    4    0    0  0.52940707558E-01 -0.19560849975E-01  0.41300869337E-01  0.69938317805E-01  0.51100000000E-03 0.  1.
         11    1    4    4    0    0  0.39806277060E-01 -0.29703010306E-01  0.22195865624E-01  0.54403364660E-01  0.51100000000E-03 0. -1.
</event>
<event>
 8    1  0.1132255E+005  0.1043930E+01  0.7957747E-01            NaN
         13   -1    0    0    0    0  0.00000000000E+00  0.00000000000E+00  0.74505805969E-08  0.10566000000E+00  0.10566000000E+00 0. -1.
     999900   -1    0    0    0    0 -0.00000000000E+00 -0.00000000000E+00 -0.74505805969E-08  0.93827000000E+00  0.93827000000E+00 0.  1.
     999902    2    1    2    0    0 -0.15270192227E-01 -0.14109668714E-01 -0.10408882367E-01  0.10206790569E+01  0.10204141957E+01 0.  0.
     999903    2    3    3    0    0  0.44033831287E-01 -0.10568486030E+00  0.60464286944E-01  0.13111400082E+00  0.20656311866E-01 0.  0.
         14    1    1    2    0    0  0.15270192227E-01  0.14109668714E-01  0.10408882367E-01  0.23250943078E-01  0.00000000000E+00 0. -1.
     999901    1    3    3    0    0 -0.59304023513E-01  0.91575191585E-01 -0.70873169311E-01  0.88956505611E+00  0.88000000000E+00 0.  1.
        -11    1    4    4    0    0  0.30945410888E-01 -0.61179704048E-01  0.45823732390E-01  0.82466054917E-01  0.51100000000E-03 0.  1.
         11    1    4    4    0    0  0.13088420399E-01 -0.44505156251E-01  0.14640554554E-01  0.48647945898E-01  0.51100000000E-03 0. -1.
</event>
<event>
 8    1  0.1132255E+005  0.1043930E+01  0.7957747E-01            NaN
         13   -1    0    0    0    0  0.00000000000E+00  0.00000000000E+00  0.74505805969E-08  0.10566000000E+00  0.10566000000E+00 0. -1.
     999900   -1    0    0    0    0 -0.00000000000E+00 -0.00000000000E+00 -0.74505805969E-08  0.93827000000E+00  0.93827000000E+00 0. -1.
     999902    2    1    2    0    0 -0.23232369248E-01 -0.47639522731E-02 -0.56051210423E-03  0.10202075972E+01  0.10199317570E+01 0.  0.
     999903    2    3    3    0    0 -0.99060545066E-01  0.76315101113E-01  0.37864121732E-01  0.13240121195E+00  0.21433687642E-01 0.  0.
         14    1    1    2    0    0  0.23232369248E-01  0.47639522731E-02  0.56051210423E-03  0.23722402828E-01  0.00000000000E+00 0.  1.
     999901    1    3    3    0    0  0.75828175818E-01 -0.81079053386E-01 -0.38424633836E-01  0.88780638522E+00  0.88000000000E+00 0. -1.
        -11    1    4    4    0    0 -0.88947680081E-01  0.73626476193E-01  0.29999730740E-01  0.11930126887E+00  0.51100000000E-03 0. -1.
         11    1    4    4    0    0 -0.10112864985E-01  0.26886249205E-02  0.78643909927E-02  0.13099943086E-01  0.51100000000E-03 0.  1.
</event>
<event>
 8    1  0.1132255E+005  0.1043930E+01  0.7957747E-01            NaN
         13   -1    0    0    0    0  0.00000000000E+00  0.00000000000E+00  0.74505805969E-08  0.10566000000E+00  0.10566000000E+00 0.  1.
     999900   -1    0    0    0    0 -0.00000000000E+00 -0.00000000000E+00 -0.74505805969E-08  0.93827000000E+00  0.93827000000E+00 0. -1.
     999902    2    1    2    0    0 -0.61861327752E-02 -0.50900336369E-02 -0.21415468295E-01  0.10210652025E+01  0.10208091638E+01 0.  0.
     999903    2    3    3    0    0  0.89424852874E-01  0.74882489911E-01  0.51584681808E-01  0.12928827582E+00  0.21219973130E-01 0.  0.
         14    1    1    2    0    0  0.61861327752E-02  0.50900336369E-02  0.21415468295E-01  0.22864797472E-01  0.00000000000E+00 0.  1.
     999901    1    3    3    0    0 -0.95610985650E-01 -0.79972523548E-01 -0.73000150103E-01  0.89177692671E+00  0.88000000000E+00 0. -1.
        -11    1    4    4    0    0  0.28489524927E-01  0.26201277618E-01  0.28102789901E-01  0.47835007062E-01  0.51100000000E-03 0.  1.
         11    1    4    4    0    0  0.60935327947E-01  0.48681212293E-01  0.23481891906E-01  0.81453268755E-01  0.51100000000E-03 0. -1.
</event>
<event>
 8    1  0.1132255E+005  0.1043930E+01  0.7957747E-01            NaN
         13   -1    0    0    0    0  0.00000000000E+00  0.00000000000E+00  0.74505805969E-08  0.10566000000E+00  0.10566000000E+00 0. -1.
     999900   -1    0    0    0    0 -0.00000000000E+00 -0.00000000000E+00 -0.74505805969E-08  0.93827000000E+00  0.93827000000E+00 0. -1.
     999902    2    1    2    0    0 -0.27554650703E-01  0.16928996954E-01  0.16016408322E-01  0.10078415663E+01  0.10071952381E+01 0.  0.
     999903    2    3    3    0    0 -0.81927253899E-01 -0.85497105089E-01  0.24038858504E-02  0.12012945803E+00  0.20086764526E-01 0.  0.
         14    1    1    2    0    0  0.27554650703E-01 -0.16928996954E-01 -0.16016408322E-01  0.36088433726E-01  0.00000000000E+00 0. -1.
     999901    1    3    3    0    0  0.54372603196E-01  0.10242610204E+00  0.13612522471E-01  0.88771210825E+00  0.88000000000E+00 0.  1.
        -11    1    4    4    0    0 -0.38155346356E-01 -0.28823858715E-01 -0.52589208425E-02  0.48109901852E-01  0.51100000000E-03 0.  1.
         11    1    4    4    0    0 -0.43771907543E-01 -0.56673246374E-01  0.76628066930E-02  0.72019556177E-01  0.51100000000E-03 0. -1.
</event>
<event>
 8    1  0.1132255E+005  0.1043930E+01  0.7957747E-01            NaN
         13   -1    0    0    0    0  0.00000000000E+00  0.00000000000E+00  0.74505805969E-08  0.10566000000E+00  0.10566000000E+00 0. -1.
     999900   -1    0    0    0    0 -0.00000000000E+00 -0.00000000000E+00 -0.74505805969E-08  0.93827000000E+00  0.93827000000E+00 0.  1.
     999902    2    1    2    0    0 -0.17205628363E-01 -0.58457187609E-02  0.15496603989E-01  0.10200479814E+01  0.10197683725E+01 0.  0.
     999903    2    3    3    0    0  0.48058873754E-01 -0.21064461122E-01  0.11884950130E+00  0.13146884218E+00  0.20136673903E-01 0.  0.
         14    1    1    2    0    0  0.17205628363E-01  0.58457187609E-02 -0.15496603989E-01  0.23882018558E-01  0.00000000000E+00 0.  1.
     999901    1    3    3    0    0 -0.65264502117E-01  0.15218742361E-01 -0.10335289731E+00  0.88857913927E+00  0.88000000000E+00 0.  1.
        -11    1    4    4    0    0  0.31195239306E-01 -0.11341377841E-01  0.50775347577E-01  0.60664378751E-01  0.51100000000E-03 0. -1.
         11    1    4    4    0    0  0.16863634448E-01 -0.97230832804E-02  0.68074153720E-01  0.70804463426E-01  0.51100000000E-03 0.  1.
</event>
<event>
 8    1  0.1132255E+005  0.1043930E+01  0.7957747E-01            NaN
         13   -1    0    0    0    0  0.00000000000E+00  0.00000000000E+00  0.74505805969E-08  0.10566000000E+00  0.10566000000E+00 0. -1.
     999900   -1    0    0    0    0 -0.00000000000E+00 -0.00000000000E+00 -0.74505805969E-08  0.93827000000E+00  0.93827000000E+00 0. -1.
     999902    2    1    2    0    0  0.10380518835E-01  0.13107576465E-01 -0.17349073120E-01  0.10198353103E+01  0.10195506393E+01 0.  0.
     999903    2    3    3    0    0  0.10437510316E+00  0.58964261747E-01 -0.53914613568E-01  0.13288838057E+00  0.19534323890E-01 0.  0.
         14    1    1    2    0    0 -0.10380518835E-01 -0.13107576465E-01  0.17349073120E-01  0.24094689668E-01  0.00000000000E+00 0. -1.
     999901    1    3    3    0    0 -0.93994584329E-01 -0.45856685282E-01  0.36565540448E-01  0.88694692976E+00  0.88000000000E+00 0. -1.
        -11    1    4    4    0    0  0.55434966713E-01  0.41229677282E-01 -0.35462203177E-01  0.77657908795E-01  0.51100000000E-03 0.  1.
         11    1    4    4    0    0  0.48940136451E-01  0.17734584465E-01 -0.18452410391E-01  0.55230471773E-01  0.51100000000E-03 0. -1.
</event>
<event>
 8    1  0.1132255E+005  0.1043930E+01  0.7957747E-01            NaN
         13   -1    0    0    0    0  0.00000000000E+00  0.00000000000E+00  0.74505805969E-08  0.10566000000E+00  0.10566000000E+00 0.  1.
     999900   -1    0    0    0    0 -0.00000000000E+00 -0.00000000000E+00 -0.74505805969E-08  0.93827000000E+00  0.93827000000E+00 0.  1.
     999902    2    1    2    0    0  0.78579011866E-02  0.20299781649E-01 -0.11809711463E-01  0.10191651654E+01  0.10188642389E+01 0.  0.
     999903    2    3    3    0    0  0.22668517273E-01  0.76563616585E-01  0.10074500077E+00  0.13009062598E+00  0.19954115558E-01 0.  0.
         14    1    1    2    0    0 -0.78579011866E-02 -0.20299781649E-01  0.11809711463E-01  0.24764834562E-01  0.00000000000E+00 0. -1.
     999901    1    3    3    0    0 -0.14810616087E-01 -0.56263834936E-01 -0.11255471223E+00  0.88907453946E+00  0.88000000000E+00 0.  1.
        -11    1    4    4    0    0  0.19862208332E-01  0.34898462143E-01  0.43123126371E-01  0.58926014024E-01  0.51100000000E-03 0. -1.
         11    1    4    4    0    0  0.28063089415E-02  0.41665154442E-01  0.57621874396E-01  0.71164611954E-01  0.51100000000E-03 0.  1.
</event>
<event>
 8    1  0.1132255E+005  0.1043930E+01  0.7957747E-01            NaN
         13   -1    0    0    0    0  0.00000000000E+00  0.00000000000E+00  0.74505805969E-08  0.10566000000E+00  0.10566000000E+00 0.  1.
     999900   -1    0    0    0    0 -0.00000000000E+00 -0.00000000000E+00 -0.74505805969E-08  0.93827000000E+00  0.93827000000E+00 0.  1.
     999902    2    1    2    0    0  0.74728920890E-02 -0.20592896471E-01 -0.16189530343E-02  0.10219633774E+01  0.10217272690E+01 0.  0.
     999903    2    3    3    0    0 -0.21033478708E-01  0.27879842707E-02  0.12843251441E+00  0.13164171473E+00  0.19607402092E-01 0.  0.
         14    1    1    2    0    0 -0.74728920890E-02  0.20592896471E-01  0.16189530343E-02  0.21966622639E-01  0.00000000000E+00 0. -1.
     999901    1    3    3    0    0  0.28506370797E-01 -0.23380880742E-01 -0.13005146745E+00  0.89032166263E+00  0.88000000000E+00 0.  1.
        -11    1    4    4    0    0 -0.20809461733E-04 -0.28565120619E-02  0.54378972469E-01  0.54456348224E-01  0.51100000000E-03 0.  1.
         11    1    4    4    0    0 -0.21012669246E-01  0.56444963326E-02  0.74053541943E-01  0.77185366508E-01  0.51100000000E-03 0. -1.
</event>
<event>
 8    1  0.1132255E+005  0.1043930E+01  0.7957747E-01            NaN
         13   -1    0    0    0    0  0.00000000000E+00  0.00000000000E+00  0.74505805969E-08  0.10566000000E+00  0.10566000000E+00 0. -1.
     999900   -1    0    0    0    0 -0.00000000000E+00 -0.00000000000E+00 -0.74505805969E-08  0.93827000000E+00  0.93827000000E+00 0.  1.
     999902    2    1    2    0    0 -0.25916686735E-02 -0.22774590880E-02 -0.24294601679E-01  0.10193916374E+01  0.10190962561E+01 0.  0.
     999903    2    3    3    0    0 -0.63956129649E-01  0.82267982003E-01  0.71670564084E-01  0.12803152967E+00  0.19924744698E-01 0.  0.
         14    1    1    2    0    0  0.25916686735E-02  0.22774590880E-02  0.24294601679E-01  0.24538362561E-01  0.00000000000E+00 0. -1.
     999901    1    3    3    0    0  0.61364460976E-01 -0.84545441091E-01 -0.95965165763E-01  0.89136010777E+00  0.88000000000E+00 0.  1.
        -11    1    4    4    0    0 -0.13665084950E-01  0.32844953578E-01  0.24232774041E-01  0.43046648894E-01  0.51100000000E-03 0.  1.
         11    1    4    4    0    0 -0.50291044699E-01  0.49423028425E-01  0.47437790042E-01  0.84984880777E-01  0.51100000000E-03 0. -1.
</event>
<event>
 8    1  0.1132255E+005  0.1043930E+01  0.7957747E-01            NaN
         13   -1    0    0    0    0  0.00000000000E+00  0.00000000000E+00  0.74505805969E-08  0.10566000000E+00  0.10566000000E+00 0. -1.
     999900   -1    0    0    0    0 -0.00000000000E+00 -0.00000000000E+00 -0.74505805969E-08  0.93827000000E+00  0.93827000000E+00 0. -1.
     999902    2    1    2    0    0  0.88054423674E-02  0.20827561483E-01  0.19093836109E-02  0.10212370743E+01  0.10209849132E+01 0.  0.
     999903    2    3    3    0    0 -0.68578348066E-02  0.23963622212E-01 -0.12764185190E+00  0.13160867108E+00  0.20177087509E-01 0.  0.
         14    1    1    2    0    0 -0.88054423674E-02 -0.20827561483E-01 -0.19093836109E-02  0.22692925735E-01  0.00000000000E+00 0.  1.
     999901    1    3    3    0    0  0.15663277174E-01 -0.31360607291E-02  0.12955123551E+00  0.88962840318E+00  0.88000000000E+00 0.  1.
        -11    1    4    4    0    0 -0.66381305724E-02  0.70062489868E-02 -0.87449703486E-01  0.87982180372E-01  0.51100000000E-03 0. -1.
         11    1    4    4    0    0 -0.21970423419E-03  0.16957373225E-01 -0.40192148412E-01  0.43626490710E-01  0.51100000000E-03 0.  1.
</event>
<event>
 8    1  0.1132255E+005  0.1043930E+01  0.7957747E-01            NaN
         13   -1    0    0    0    0  0.00000000000E+00  0.00000000000E+00  0.74505805969E-08  0.10566000000E+00  0.10566000000E+00 0. -1.
     999900   -1    0    0    0    0 -0.00000000000E+00 -0.00000000000E+00 -0.74505805969E-08  0.93827000000E+00  0.93827000000E+00 0. -1.
     999902    2    1    2    0    0 -0.20627109472E-01  0.11594823538E-01 -0.38404908190E-02  0.10199577880E+01  0.10196760380E+01 0.  0.
     999903    2    3    3    0    0  0.38770049934E-01 -0.10135763662E+00 -0.66330956168E-01  0.12855925813E+00  0.18740326370E-01 0.  0.
         14    1    1    2    0    0  0.20627109472E-01 -0.11594823538E-01  0.38404908190E-02  0.23972211992E-01  0.00000000000E+00 0. -1.
     999901    1    3    3    0    0 -0.59397159406E-01  0.11295246016E+00  0.62490465349E-01  0.89139852987E+00  0.88000000000E+00 0.  1.
        -11    1    4    4    0    0  0.26404563367E-01 -0.72701077942E-01 -0.56657039830E-01  0.95879763161E-01  0.51100000000E-03 0. -1.
         11    1    4    4    0    0  0.12365486567E-01 -0.28656558680E-01 -0.96739163385E-02  0.32679494973E-01  0.51100000000E-03 0.  1.
</event>
<event>
 8    1  0.1132255E+005  0.1043930E+01  0.7957747E-01            NaN
         13   -1    0    0    0    0  0.00000000000E+00  0.00000000000E+00  0.74505805969E-08  0.10566000000E+00  0.10566000000E+00 0.  1.
     999900   -1    0    0    0    0 -0.00000000000E+00 -0.00000000000E+00 -0.74505805969E-08  0.93827000000E+00  0.93827000000E+00 0. -1.
     999902    2    1    2    0    0  0.20755110248E-01  0.10862630085E-01 -0.25043680227E-02  0.10203706453E+01  0.10200986279E+01 0.  0.
     999903    2    3    3    0    0  0.19428366560E-01 -0.10143658768E+00  0.75900374106E-01  0.12977523878E+00  0.20344607717E-01 0.  0.
         14    1    1    2    0    0 -0.20755110248E-01 -0.10862630085E-01  0.25043680227E-02  0.23559354680E-01  0.00000000000E+00 0.  1.
     999901    1    3    3    0    0  0.13267436880E-02  0.11229921777E+00 -0.78404742129E-01  0.89059540654E+00  0.88000000000E+00 0.  1.
        -11    1    4    4    0    0 -0.15154323965E-03 -0.39752056054E-01  0.36726010099E-01  0.54123099179E-01  0.51100000000E-03 0.  1.
         11    1    4    4    0    0  0.19579909799E-01 -0.61684531629E-01  0.39174364007E-01  0.75652139602E-01  0.51100000000E-03 0. -1.
</event>
<event>
 8    1  0.1132255E+005  0.1043930E+01  0.7957747E-01            NaN
         13   -1    0    0    0    0  0.00000000000E+00  0.00000000000E+00  0.74505805969E-08  0.10566000000E+00  0.10566000000E+00 0. -1.
     999900   -1    0    0    0    0 -0.00000000000E+00 -0.00000000000E+00 -0.74505805969E-08  0.93827000000E+00  0.93827000000E+00 0. -1.
     999902    2    1    2    0    0 -0.79230219206E-02 -0.12103988176E-01 -0.18504674126E-01  0.10204416248E+01  0.10201712630E+01 0.  0.
     999903    2    3    3    0    0  0.69662476252E-01 -0.81036225303E-01 -0.75862161333E-01  0.13248833536E+00  0.19451505758E-01 0.  0.
         14    1    1    2    0    0  0.79230219206E-02  0.12103988176E-01  0.18504674126E-01  0.23488375223E-01  0.00000000000E+00 0. -1.
     999901    1    3    3    0    0 -0.77585498173E-01  0.68932237127E-01  0.57357487206E-01  0.88795328941E+00  0.88000000000E+00 0.  1.
        -11    1    4    4    0    0  0.28703808853E-01 -0.27638801068E-01 -0.17968622701E-01  0.43714351075E-01  0.51100000000E-03 0. -1.
         11    1    4    4    0    0  0.40958667399E-01 -0.53397424235E-01 -0.57893538632E-01  0.88773984288E-01  0.51100000000E-03 0.  1.
</event>
<event>
 8    1  0.1132255E+005  0.1043930E+01  0.7957747E-01            NaN
         13   -1    0    0    0    0  0.00000000000E+00  0.00000000000E+00  0.74505805969E-08  0.10566000000E+00  0.10566000000E+00 0.  1.
     999900   -1    0    0    0    0 -0.00000000000E+00 -0.00000000000E+00 -0.74505805969E-08  0.93827000000E+00  0.93827000000E+00 0. -1.
     999902    2    1    2    0    0 -0.85079544925E-02 -0.53275335789E-04 -0.22388450324E-01  0.10199794084E+01  0.10196981724E+01 0.  0.
     999903    2    3    3    0    0  0.37900692445E-01  0.12272100971E+00 -0.67491972351E-02  0.13010757845E+00  0.19634703812E-01 0.  0.
         14    1    1    2    0    0  0.85079544925E-02  0.53275335789E-04  0.22388450324E-01  0.23950591555E-01  0.00000000000E+00 0. -1.
     999901    1    3    3    0    0 -0.46408646938E-01 -0.12277428505E+00 -0.15639253089E-01  0.88987182999E+00  0.88000000000E+00 0. -1.
        -11    1    4    4    0    0  0.18509393130E-01  0.31233325747E-01  0.41682122411E-03  0.36311886926E-01  0.51100000000E-03 0. -1.
         11    1    4    4    0    0  0.19391299316E-01  0.91487683968E-01 -0.71660184592E-02  0.93795691524E-01  0.51100000000E-03 0.  1.
</event>
<event>
 8    1  0.1132255E+005  0.1043930E+01  0.7957747E-01            NaN
         13   -1    0    0    0    0  0.00000000000E+00  0.00000000000E+00  0.74505805969E-08  0.10566000000E+00  0.10566000000E+00 0. -1.
     999900   -1    0    0    0    0 -0.00000000000E+00 -0.00000000000E+00 -0.74505805969E-08  0.93827000000E+00  0.93827000000E+00 0.  1.
     999902    2    1    2    0    0 -0.51876922704E-02  0.22842985577E-01  0.36256077229E-02  0.10202264312E+01  0.10199510340E+01 0.  0.
     999903    2    3    3    0    0  0.93224402974E-01  0.89070397131E-02  0.88727179457E-01  0.13055153072E+00  0.20026610630E-01 0.  0.
         14    1    1    2    0    0  0.51876922704E-02 -0.22842985577E-01 -0.36256077229E-02  0.23703568772E-01  0.00000000000E+00 0.  1.
     999901    1    3    3    0    0 -0.98412095244E-01  0.13935945864E-01 -0.85101571734E-01  0.88967490051E+00  0.88000000000E+00 0.  1.
        -11    1    4    4    0    0  0.32216537574E-01  0.59210362742E-02  0.43940315278E-01  0.54808543053E-01  0.51100000000E-03 0. -1.
         11    1    4    4    0    0  0.61007865400E-01  0.29860034389E-02  0.44786864179E-01  0.75742987670E-01  0.51100000000E-03 0.  1.
</event>
<event>
 8    1  0.1132255E+005  0.1043930E+01  0.7957747E-01            NaN
         13   -1    0    0    0    0  0.00000000000E+00  0.00000000000E+00  0.74505805969E-08  0.10566000000E+00  0.10566000000E+00 0.  1.
     999900   -1    0    0    0    0 -0.00000000000E+00 -0.00000000000E+00 -0.74505805969E-08  0.93827000000E+00  0.93827000000E+00 0.  1.
     999902    2    1    2    0    0 -0.93193639423E-02 -0.16059208210E-01  0.14857241181E-01  0.10201500436E+01  0.10198728475E+01 0.  0.
     999903    2    3    3    0    0 -0.12499389124E+00 -0.28063017894E-01 -0.22733643165E-01  0.13170321775E+00  0.20442925721E-01 0.  0.
         14    1    1    2    0    0  0.93193639423E-02  0.16059208210E-01 -0.14857241181E-01  0.23779956437E-01  0.00000000000E+00 0. -1.
     999901    1    3    3    0    0  0.11567452730E+00  0.12003809684E-01  0.37590884346E-01  0.88844682581E+00  0.88000000000E+00 0. -1.
        -11    1    4    4    0    0 -0.28673333096E-01 -0.84343125425E-02 -0.14017803005E-01  0.33016020066E-01  0.51100000000E-03 0. -1.
         11    1    4    4    0    0 -0.96320558149E-01 -0.19628705352E-01 -0.87158401605E-02  0.98687197683E-01  0.51100000000E-03 0.  1.
</event>
<event>
 8    1  0.1132255E+005  0.1043930E+01  0.7957747E-01            NaN
         13   -1    0    0    0    0  0.00000000000E+00  0.00000000000E+00  0.74505805969E-08  0.10566000000E+00  0.10566000000E+00 0. -1.
     999900   -1    0    0    0    0 -0.00000000000E+00 -0.00000000000E+00 -0.74505805969E-08  0.93827000000E+00  0.93827000000E+00 0.  1.
     999902    2    1    2    0    0 -0.88062416527E-02 -0.21897690034E-01 -0.82523605956E-02  0.10189267967E+01  0.10186199766E+01 0.  0.
     999903    2    3    3    0    0  0.15310578573E-01 -0.12727129504E+00  0.22753249192E-01  0.13177034741E+00  0.20330217650E-01 0.  0.
         14    1    1    2    0    0  0.88062416527E-02  0.21897690034E-01  0.82523605956E-02  0.25003203320E-01  0.00000000000E+00 0. -1.
     999901    1    3    3    0    0 -0.24116820226E-01  0.10537360501E+00 -0.31005609788E-01  0.88715644927E+00  0.88000000000E+00 0. -1.
        -11    1    4    4    0    0  0.54500920585E-02 -0.85153276996E-02 -0.12851177758E-02  0.10204261756E-01  0.51100000000E-03 0. -1.
         11    1    4    4    0    0  0.98604865145E-02 -0.11875596734E+00  0.24038366968E-01  0.12156608565E+00  0.51100000000E-03 0.  1.
</event>
<event>
 8    1  0.1132255E+005  0.1043930E+01  0.7957747E-01            NaN
         13   -1    0    0    0    0  0.00000000000E+00  0.00000000000E+00  0.74505805969E-08  0.10566000000E+00  0.10566000000E+00 0. -1.
     999900   -1    0    0    0    0 -0.00000000000E+00 -0.00000000000E+00 -0.74505805969E-08  0.93827000000E+00  0.93827000000E+00 0. -1.
     999902    2    1    2    0    0  0.11279958663E-01  0.12236192039E-01  0.14889405304E-01  0.10215993875E+01  0.10213553017E+01 0.  0.
     999903    2    3    3    0    0 -0.75491563736E-01 -0.79447396011E-01 -0.65367033398E-01  0.12897613365E+00  0.18738438222E-01 0.  0.
         14    1    1    2    0    0 -0.11279958663E-01 -0.12236192039E-01 -0.14889405304E-01  0.22330612472E-01  0.00000000000E+00 0.  1.
     999901    1    3    3    0    0  0.86771522398E-01  0.91683588050E-01  0.80256438702E-01  0.89262325388E+00  0.88000000000E+00 0.  1.
        -11    1    4    4    0    0 -0.50355404563E-01 -0.48826957568E-01 -0.31654155092E-01  0.76954435932E-01  0.51100000000E-03 0. -1.
         11    1    4    4    0    0 -0.25136159172E-01 -0.30620438443E-01 -0.33712878307E-01  0.52021697714E-01  0.51100000000E-03 0.  1.
</event>
<event>
 8    1  0.1132255E+005  0.1043930E+01  0.7957747E-01            NaN
         13   -1    0    0    0    0  0.00000000000E+00  0.00000000000E+00  0.74505805969E-08  0.10566000000E+00  0.10566000000E+00 0.  1.
     999900   -1    0    0    0    0 -0.00000000000E+00 -0.00000000000E+00 -0.74505805969E-08  0.93827000000E+00  0.93827000000E+00 0. -1.
     999902    2    1    2    0    0 -0.18172440485E-02  0.13789631938E-01 -0.17349207959E-01  0.10216937381E+01  0.10214517332E+01 0.  0.
     999903    2    3    3    0    0  0.15319618948E-02  0.12743356057E+00  0.32315171340E-01  0.13299091364E+00  0.20016331973E-01 0.  0.
         14    1    1    2    0    0  0.18172440485E-02 -0.13789631938E-01  0.17349207959E-01  0.22236261865E-01  0.00000000000E+00 0.  1.
     999901    1    3    3    0    0 -0.33492059433E-02 -0.11364392863E+00 -0.49664379298E-01  0.88870282450E+00  0.88000000000E+00 0. -1.
        -11    1    4    4    0    0  0.40600682686E-02  0.77996661461E-01  0.29217457775E-01  0.83389953312E-01  0.51100000000E-03 0. -1.
         11    1    4    4    0    0 -0.25281063738E-02  0.49436899107E-01  0.30977135646E-02  0.49600960328E-01  0.51100000000E-03 0.  1.
</event>
<event>
 8    1  0.1132255E+005  0.1043930E+01  0.7957747E-01            NaN
         13   -1    0    0    0    0  0.00000000000E+00  0.00000000000E+00  0.74505805969E-08  0.10566000000E+00  0.10566000000E+00 0. -1.
     999900   -1    0    0    0    0 -0.00000000000E+00 -0.00000000000E+00 -0.74505805969E-08  0.93827000000E+00  0.93827000000E+00 0.  1.
     999902    2    1    2    0    0 -0.69895044082E-02  0.86594026355E-02 -0.21099852069E-01  0.10200753949E+01  0.10197964352E+01 0.  0.
     999903    2    3    3    0    0 -0.90356886586E-01  0.24548018464E-02  0.91065758826E-01  0.12902559736E+00  0.13573479177E-01 0.  0.
         14    1    1    2    0    0  0.69895044082E-02 -0.86594026355E-02  0.21099852069E-01  0.23854605074E-01  0.00000000000E+00 0. -1.
     999901    1    3    3    0    0  0.83367382178E-01  0.62046007891E-02 -0.11216561089E+00  0.89104979757E+00  0.88000000000E+00 0.  1.
        -11    1    4    4    0    0 -0.59134376106E-01 -0.47671744660E-02  0.60537573628E-01  0.84762369785E-01  0.51100000000E-03 0.  1.
         11    1    4    4    0    0 -0.31222510480E-01  0.72219763124E-02  0.30528185198E-01  0.44263227571E-01  0.51100000000E-03 0. -1.
</event>
<event>
 8    1  0.1132255E+005  0.1043930E+01  0.7957747E-01            NaN
         13   -1    0    0    0    0  0.00000000000E+00  0.00000000000E+00  0.74505805969E-08  0.10566000000E+00  0.10566000000E+00 0.  1.
     999900   -1    0    0    0    0 -0.00000000000E+00 -0.00000000000E+00 -0.74505805969E-08  0.93827000000E+00  0.93827000000E+00 0. -1.
     999902    2    1    2    0    0  0.72814415915E-02  0.17807795236E-01 -0.13801087940E-01  0.10202528593E+01  0.10199780831E+01 0.  0.
     999903    2    3    3    0    0  0.30739175962E-01 -0.82429095656E-01  0.91046068808E-01  0.12806979185E+00  0.19314041229E-01 0.  0.
         14    1    1    2    0    0 -0.72814415915E-02 -0.17807795236E-01  0.13801087940E-01  0.23677140687E-01  0.00000000000E+00 0.  1.
     999901    1    3    3    0    0 -0.23457734370E-01  0.10023689089E+00 -0.10484715675E+00  0.89218306747E+00  0.88000000000E+00 0. -1.
        -11    1    4    4    0    0  0.84057082708E-02 -0.28229723009E-01  0.43766016263E-01  0.52756975778E-01  0.51100000000E-03 0.  1.
         11    1    4    4    0    0  0.22333467691E-01 -0.54199372647E-01  0.47280052545E-01  0.75312816067E-01  0.51100000000E-03 0. -1.
</event>
<event>
 8    1  0.1132255E+005  0.1043930E+01  0.7957747E-01            NaN
         13   -1    0    0    0    0  0.00000000000E+00  0.00000000000E+00  0.74505805969E-08  0.10566000000E+00  0.10566000000E+00 0.  1.
     999900   -1    0    0    0    0 -0.00000000000E+00 -0.00000000000E+00 -0.74505805969E-08  0.93827000000E+00  0.93827000000E+00 0. -1.
     999902    2    1    2    0    0 -0.28612692128E-02  0.15837036174E-01  0.18315375882E-01  0.10195486225E+01  0.10192570539E+01 0.  0.
     999903    2    3    3    0    0 -0.47312594240E-01  0.47503420755E-01 -0.10819407303E+00  0.12882794747E+00  0.19890350760E-01 0.  0.
         14    1    1    2    0    0  0.28612692128E-02 -0.15837036174E-01 -0.18315375882E-01  0.24381377525E-01  0.00000000000E+00 0. -1.
     999901    1    3    3    0    0  0.44451325027E-01 -0.31666384581E-01  0.12650944892E+00  0.89072067500E+00  0.88000000000E+00 0.  1.
        -11    1    4    4    0    0 -0.44017567421E-01  0.35268433647E-01 -0.95306771114E-01  0.11074768799E+00  0.51100000000E-03 0.  1.
         11    1    4    4    0    0 -0.32950268190E-02  0.12234987108E-01 -0.12887301921E-01  0.18080259486E-01  0.51100000000E-03 0. -1.
</event>
<event>
 8    1  0.1132255E+005  0.1043930E+01  0.7957747E-01            NaN
         13   -1    0    0    0    0  0.00000000000E+00  0.00000000000E+00  0.74505805969E-08  0.10566000000E+00  0.10566000000E+00 0.  1.
     999900   -1    0    0    0    0 -0.00000000000E+00 -0.00000000000E+00 -0.74505805969E-08  0.93827000000E+00  0.93827000000E+00 0.  1.
     999902    2    1    2    0    0  0.65573490994E-02 -0.20811510369E-01  0.85245143036E-02  0.10205038365E+01  0.10202349216E+01 0.  0.
     999903    2    3    3    0    0  0.75513595588E-01  0.98787649928E-01  0.30053766206E-01  0.12948058668E+00  0.20017256744E-01 0.  0.
         14    1    1    2    0    0 -0.65573490994E-02  0.20811510369E-01 -0.85245143036E-02  0.23426163475E-01  0.00000000000E+00 0. -1.
     999901    1    3    3    0    0 -0.68956246488E-01 -0.11959916030E+00 -0.21529251903E-01  0.89102324984E+00  0.88000000000E+00 0.  1.
        -11    1    4    4    0    0  0.23969548305E-01  0.18544404051E-01  0.10849087074E-01  0.32193135586E-01  0.51100000000E-03 0. -1.
         11    1    4    4    0    0  0.51544047283E-01  0.80243245877E-01  0.19204679132E-01  0.97287451096E-01  0.51100000000E-03 0.  1.
</event>
<event>
 8    1  0.1132255E+005  0.1043930E+01  0.7957747E-01            NaN
         13   -1    0    0    0    0  0.00000000000E+00  0.00000000000E+00  0.74505805969E-08  0.10566000000E+00  0.10566000000E+00 0. -1.
     999900   -1    0    0    0    0 -0.00000000000E+00 -0.00000000000E+00 -0.74505805969E-08  0.93827000000E+00  0.93827000000E+00 0.  1.
     999902    2    1    2    0    0 -0.13904685632E-01 -0.20371033730E-01  0.81042884810E-02  0.10179685133E+01  0.10176374086E+01 0.  0.
     999903    2    3    3    0    0 -0.59769085053E-01  0.56382608528E-01  0.97360680958E-01  0.12894580928E+00  0.19914252744E-01 0.  0.
         14    1    1    2    0    0  0.13904685632E-01  0.20371033730E-01 -0.81042884810E-02  0.25961486659E-01  0.00000000000E+00 0. -1.
     999901    1    3    3    0    0  0.45864399421E-01 -0.76753642258E-01 -0.89256392477E-01  0.88902270406E+00  0.88000000000E+00 0.  1.
        -11    1    4    4    0    0 -0.12008003516E-01  0.23685237054E-01  0.33602428333E-01  0.42831844621E-01  0.51100000000E-03 0.  1.
         11    1    4    4    0    0 -0.47761081537E-01  0.32697371473E-01  0.63758252625E-01  0.86113964661E-01  0.51100000000E-03 0. -1.
</event>
<event>
 8    1  0.1132255E+005  0.1043930E+01  0.7957747E-01            NaN
         13   -1    0    0    0    0  0.00000000000E+00  0.00000000000E+00  0.74505805969E-08  0.10566000000E+00  0.10566000000E+00 0. -1.
     999900   -1    0    0    0    0 -0.00000000000E+00 -0.00000000000E+00 -0.74505805969E-08  0.93827000000E+00  0.93827000000E+00 0.  1.
     999902    2    1    2    0    0  0.69629904092E-02  0.21527469759E-01 -0.74862025897E-02  0.10200981218E+01  0.10198196996E+01 0.  0.
     999903    2    3    3    0    0  0.92998508829E-01 -0.77210420070E-01  0.40859771398E-01  0.12909384878E+00  0.19634899124E-01 0.  0.
         14    1    1    2    0    0 -0.69629904092E-02 -0.21527469759E-01  0.74862025897E-02  0.23831878207E-01  0.00000000000E+00 0. -1.
     999901    1    3    3    0    0 -0.86035518420E-01  0.98737889829E-01 -0.48345973987E-01  0.89100427301E+00  0.88000000000E+00 0. -1.
        -11    1    4    4    0    0  0.47889617674E-01 -0.27533282216E-01  0.15722736251E-01  0.57436596929E-01  0.51100000000E-03 0.  1.
         11    1    4    4    0    0  0.45108891155E-01 -0.49677137854E-01  0.25137035147E-01  0.71657251856E-01  0.51100000000E-03 0. -1.
</event>
<event>
 8    1  0.1132255E+005  0.1043930E+01  0.7957747E-01            NaN
         13   -1    0    0    0    0  0.00000000000E+00  0.00000000000E+00  0.74505805969E-08  0.10566000000E+00  0.10566000000E+00 0. -1.
     999900   -1    0    0    0    0 -0.00000000000E+00 -0.00000000000E+00 -0.74505805969E-08  0.93827000000E+00  0.93827000000E+00 0.  1.
     999902    2    1    2    0    0  0.18409697674E-01 -0.54755799989E-03 -0.13905436684E-01  0.10208523494E+01  0.10205914664E+01 0.  0.
     999903    2    3    3    0    0  0.38551167534E-01  0.12430267136E+00 -0.69869990618E-02  0.13178479101E+00  0.19520921111E-01 0.  0.
         14    1    1    2    0    0 -0.18409697674E-01  0.54755799989E-03  0.13905436684E-01  0.23077650608E-01  0.00000000000E+00 0. -1.
     999901    1    3    3    0    0 -0.20141469860E-01 -0.12485022936E+00 -0.69184376223E-02  0.88906755838E+00  0.88000000000E+00 0.  1.
        -11    1    4    4    0    0  0.78287094444E-02  0.85988190442E-02  0.16639769716E-02  0.11758329851E-01  0.51100000000E-03 0. -1.
         11    1    4    4    0    0  0.30722458090E-01  0.11570385232E+00 -0.86509760334E-02  0.12002646116E+00  0.51100000000E-03 0.  1.
</event>
<event>
 8    1  0.1132255E+005  0.1043930E+01  0.7957747E-01            NaN
         13   -1    0    0    0    0  0.00000000000E+00  0.00000000000E+00  0.74505805969E-08  0.10566000000E+00  0.10566000000E+00 0. -1.
     999900   -1    0    0    0    0 -0.00000000000E+00 -0.00000000000E+00 -0.74505805969E-08  0.93827000000E+00  0.93827000000E+00 0. -1.
     999902    2    1    2    0    0  0.31594062821E-02 -0.23551517484E-01 -0.36884599082E-02  0.10198829511E+01  0.10195994181E+01 0.  0.
     999903    2    3    3    0    0 -0.87561716392E-01  0.54771962259E-01  0.73580526926E-01  0.12840362667E+00  0.20158754222E-01 0.  0.
         14    1    1    2    0    0 -0.31594062821E-02  0.23551517484E-01  0.36884599082E-02  0.24047048890E-01  0.00000000000E+00 0. -1.
     999901    1    3    3    0    0  0.90721122674E-01 -0.78323479743E-01 -0.77268986834E-01  0.89147932444E+00  0.88000000000E+00 0. -1.
        -11    1    4    4    0    0 -0.37750624663E-01  0.35137211729E-01  0.39055113502E-01  0.64693866187E-01  0.51100000000E-03 0.  1.
         11    1    4    4    0    0 -0.49811091729E-01  0.19634750530E-01  0.34525413424E-01  0.63709760482E-01  0.51100000000E-03 0. -1.
</event>
<event>
 8    1  0.1132255E+005  0.1043930E+01  0.7957747E-01            NaN
         13   -1    0    0    0    0  0.00000000000E+00  0.00000000000E+00  0.74505805969E-08  0.10566000000E+00  0.10566000000E+00 0. -1.
     999900   -1    0    0    0    0 -0.00000000000E+00 -0.00000000000E+00 -0.74505805969E-08  0.93827000000E+00  0.93827000000E+00 0.  1.
     999902    2    1    2    0    0  0.13468892266E-02 -0.19585012473E-01 -0.14539927421E-01  0.10195005851E+01  0.10192078525E+01 0.  0.
     999903    2    3    3    0    0 -0.30041867993E-01  0.11513789079E+00  0.39941852245E-01  0.12702998104E+00  0.19545249963E-01 0.  0.
         14    1    1    2    0    0 -0.13468892266E-02  0.19585012473E-01  0.14539927421E-01  0.24429414925E-01  0.00000000000E+00 0. -1.
     999901    1    3    3    0    0  0.31388757220E-01 -0.13472290326E+00 -0.54481779667E-01  0.89247060403E+00  0.88000000000E+00 0. -1.
        -11    1    4    4    0    0 -0.19169199389E-01  0.37366389894E-01  0.12045762296E-01  0.43692869089E-01  0.51100000000E-03 0.  1.
         11    1    4    4    0    0 -0.10872668604E-01  0.77771500893E-01  0.27896089949E-01  0.83337111956E-01  0.51100000000E-03 0. -1.
</event>
<event>
 8    1  0.1132255E+005  0.1043930E+01  0.7957747E-01            NaN
         13   -1    0    0    0    0  0.00000000000E+00  0.00000000000E+00  0.74505805969E-08  0.10566000000E+00  0.10566000000E+00 0. -1.
     999900   -1    0    0    0    0 -0.00000000000E+00 -0.00000000000E+00 -0.74505805969E-08  0.93827000000E+00  0.93827000000E+00 0. -1.
     999902    2    1    2    0    0  0.11890685445E-02  0.30834829509E-02  0.22565214711E-01  0.10211240651E+01  0.10208693578E+01 0.  0.
     999903    2    3    3    0    0 -0.41896434068E-02  0.85856753404E-01  0.10052502731E+00  0.13379206568E+00  0.20151935496E-01 0.  0.
         14    1    1    2    0    0 -0.11890685445E-02 -0.30834829509E-02 -0.22565214711E-01  0.22805934887E-01  0.00000000000E+00 0.  1.
     999901    1    3    3    0    0  0.53787119513E-02 -0.82773270453E-01 -0.77959812603E-01  0.88733199944E+00  0.88000000000E+00 0.  1.
        -11    1    4    4    0    0 -0.77846186035E-02  0.27818606310E-01  0.23273730673E-01  0.37099903023E-01  0.51100000000E-03 0. -1.
         11    1    4    4    0    0  0.35949751967E-02  0.58038147093E-01  0.77251296642E-01  0.96692162653E-01  0.51100000000E-03 0.  1.
</event>
<event>
 8    1  0.1132255E+005  0.1043930E+01  0.7957747E-01            NaN
         13   -1    0    0    0    0  0.00000000000E+00  0.00000000000E+00  0.74505805969E-08  0.10566000000E+00  0.10566000000E+00 0.  1.
     999900   -1    0    0    0    0 -0.00000000000E+00 -0.00000000000E+00 -0.74505805969E-08  0.93827000000E+00  0.93827000000E+00 0. -1.
     999902    2    1    2    0    0 -0.10549381908E-01  0.22829815093E-01 -0.78478573143E-02  0.10175846251E+01  0.10172435256E+01 0.  0.
     999903    2    3    3    0    0  0.49727923215E-01 -0.90755714856E-01  0.67295109787E-01  0.12507048421E+00  0.20112883761E-01 0.  0.
         14    1    1    2    0    0  0.10549381908E-01 -0.22829815093E-01  0.78478573143E-02  0.26345374931E-01  0.00000000000E+00 0.  1.
     999901    1    3    3    0    0 -0.60277305124E-01  0.11358552995E+00 -0.75142967102E-01  0.89251414086E+00  0.88000000000E+00 0. -1.
        -11    1    4    4    0    0  0.47201314515E-01 -0.84496624638E-01  0.55773698319E-01  0.11170769988E+00  0.51100000000E-03 0. -1.
         11    1    4    4    0    0  0.25266087007E-02 -0.62590902182E-02  0.11521411468E-01  0.13362784332E-01  0.51100000000E-03 0.  1.
</event>
<event>
 8    1  0.1132255E+005  0.1043930E+01  0.7957747E-01            NaN
         13   -1    0    0    0    0  0.00000000000E+00  0.00000000000E+00  0.74505805969E-08  0.10566000000E+00  0.10566000000E+00 0.  1.
     999900   -1    0    0    0    0 -0.00000000000E+00 -0.00000000000E+00 -0.74505805969E-08  0.93827000000E+00  0.93827000000E+00 0.  1.
     999902    2    1    2    0    0 -0.47580835178E-02 -0.22106194633E-01 -0.31649402581E-02  0.10210971279E+01  0.10208418118E+01 0.  0.
     999903    2    3    3    0    0 -0.51614813693E-01 -0.66662971608E-01 -0.10157689561E+00  0.13325380139E+00  0.18184308815E-01 0.  0.
         14    1    1    2    0    0  0.47580835178E-02  0.22106194633E-01  0.31649402581E-02  0.22832872065E-01  0.00000000000E+00 0. -1.
     999901    1    3    3    0    0  0.46856730175E-01  0.44556776975E-01  0.98411955350E-01  0.88784332655E+00  0.88000000000E+00 0. -1.
        -11    1    4    4    0    0 -0.28317324721E-01 -0.47633626696E-01 -0.57224881094E-01  0.79660413059E-01  0.51100000000E-03 0.  1.
         11    1    4    4    0    0 -0.23297488972E-01 -0.19029344912E-01 -0.44352014514E-01  0.53593388329E-01  0.51100000000E-03 0. -1.
</event>
<event>
 8    1  0.1132255E+005  0.1043930E+01  0.7957747E-01            NaN
         13   -1    0    0    0    0  0.00000000000E+00  0.00000000000E+00  0.74505805969E-08  0.10566000000E+00  0.10566000000E+00 0. -1.
     999900   -1    0    0    0    0 -0.00000000000E+00 -0.00000000000E+00 -0.74505805969E-08  0.93827000000E+00  0.93827000000E+00 0.  1.
     999902    2    1    2    0    0  0.20929207143E-01  0.42854718535E-02 -0.11298916469E-01  0.10197626151E+01  0.10194762031E+01 0.  0.
     999903    2    3    3    0    0  0.76983957073E-01  0.10432001654E+00 -0.14159345177E-01  0.13231840434E+00  0.22326611348E-01 0.  0.
         14    1    1    2    0    0 -0.20929207143E-01 -0.42854718535E-02  0.11298916469E-01  0.24167384923E-01  0.00000000000E+00 0. -1.
     999901    1    3    3    0    0 -0.56054749930E-01 -0.10003454468E+00  0.28604287084E-02  0.88744421074E+00  0.88000000000E+00 0. -1.
        -11    1    4    4    0    0  0.37539518829E-01  0.68117897009E-01 -0.44703110266E-02  0.77907048259E-01  0.51100000000E-03 0.  1.
         11    1    4    4    0    0  0.39444438244E-01  0.36202119528E-01 -0.96890341504E-02  0.54411356080E-01  0.51100000000E-03 0. -1.
</event>
<event>
 8    1  0.1132255E+005  0.1043930E+01  0.7957747E-01            NaN
         13   -1    0    0    0    0  0.00000000000E+00  0.00000000000E+00  0.74505805969E-08  0.10566000000E+00  0.10566000000E+00 0.  1.
     999900   -1    0    0    0    0 -0.00000000000E+00 -0.00000000000E+00 -0.74505805969E-08  0.93827000000E+00  0.93827000000E+00 0.  1.
     999902    2    1    2    0    0 -0.29213864428E-02  0.20024676084E-01 -0.13102707434E-01  0.10198218459E+01  0.10195368529E+01 0.  0.
     999903    2    3    3    0    0  0.29290765979E-01 -0.12247963511E+00 -0.84079152755E-02  0.12776403247E+00  0.19843007966E-01 0.  0.
         14    1    1    2    0    0  0.29213864428E-02 -0.20024676084E-01  0.13102707434E-01  0.24108154079E-01  0.00000000000E+00 0.  1.
     999901    1    3    3    0    0 -0.32212152422E-01  0.14250431119E+00 -0.46947921580E-02  0.89205781345E+00  0.88000000000E+00 0.  1.
        -11    1    4    4    0    0 -0.10981266766E-02 -0.11150436939E-01  0.34962523734E-02  0.11748320211E-01  0.51100000000E-03 0.  1.
         11    1    4    4    0    0  0.30388892656E-01 -0.11132919817E+00 -0.11904167649E-01  0.11601571226E+00  0.51100000000E-03 0. -1.
</event>
<event>
 8    1  0.1132255E+005  0.1043930E+01  0.7957747E-01            NaN
         13   -1    0    0    0    0  0.00000000000E+00  0.00000000000E+00  0.74505805969E-08  0.10566000000E+00  0.10566000000E+00 0.  1.
     999900   -1    0    0    0    0 -0.00000000000E+00 -0.00000000000E+00 -0.74505805969E-08  0.93827000000E+00  0.93827000000E+00 0.  1.
     999902    2    1    2    0    0  0.65185448417E-02 -0.21360957903E-01  0.73431492215E-02  0.10204203469E+01  0.10201494893E+01 0.  0.
     999903    2    3    3    0    0 -0.88062524783E-01  0.53781357204E-01  0.75710946244E-01  0.12954094880E+00  0.20031659469E-01 0.  0.
         14    1    1    2    0    0 -0.65185448417E-02  0.21360957903E-01 -0.73431492215E-02  0.23509653121E-01  0.00000000000E+00 0.  1.
     999901    1    3    3    0    0  0.94581069625E-01 -0.75142315107E-01 -0.68367797022E-01  0.89087939808E+00  0.88000000000E+00 0.  1.
        -11    1    4    4    0    0 -0.31896961663E-01  0.97509257088E-02  0.19046152411E-01  0.38412416718E-01  0.51100000000E-03 0. -1.
         11    1    4    4    0    0 -0.56165563121E-01  0.44030431496E-01  0.56664793833E-01  0.91128532082E-01  0.51100000000E-03 0.  1.
</event>
<event>
 8    1  0.1132255E+005  0.1043930E+01  0.7957747E-01            NaN
         13   -1    0    0    0    0  0.00000000000E+00  0.00000000000E+00  0.74505805969E-08  0.10566000000E+00  0.10566000000E+00 0. -1.
     999900   -1    0    0    0    0 -0.00000000000E+00 -0.00000000000E+00 -0.74505805969E-08  0.93827000000E+00  0.93827000000E+00 0.  1.
     999902    2    1    2    0    0 -0.66335015447E-02  0.22774000721E-01 -0.23158734480E-02  0.10200967937E+01  0.10198183401E+01 0.  0.
     999903    2    3    3    0    0 -0.10343644096E-01  0.82594051496E-01  0.10080058654E+00  0.13205106970E+00  0.18653644347E-01 0.  0.
         14    1    1    2    0    0  0.66335015447E-02 -0.22774000721E-01  0.23158734480E-02  0.23833206276E-01  0.00000000000E+00 0. -1.
     999901    1    3    3    0    0  0.37101425510E-02 -0.59820050775E-01 -0.10311645999E+00  0.88804572402E+00  0.88000000000E+00 0.  1.
        -11    1    4    4    0    0 -0.12965789825E-01  0.47206217940E-01  0.67502185160E-01  0.83386718609E-01  0.51100000000E-03 0.  1.
         11    1    4    4    0    0  0.26221457297E-02  0.35387833555E-01  0.33298401378E-01  0.48664351093E-01  0.51100000000E-03 0. -1.
</event>
<event>
 8    1  0.1132255E+005  0.1043930E+01  0.7957747E-01            NaN
         13   -1    0    0    0    0  0.00000000000E+00  0.00000000000E+00  0.74505805969E-08  0.10566000000E+00  0.10566000000E+00 0. -1.
     999900   -1    0    0    0    0 -0.00000000000E+00 -0.00000000000E+00 -0.74505805969E-08  0.93827000000E+00  0.93827000000E+00 0. -1.
     999902    2    1    2    0    0  0.14143365969E-01  0.19843712763E-01 -0.10558350441E-01  0.10173727693E+01  0.10170260888E+01 0.  0.
     999903    2    3    3    0    0 -0.79515746925E-01 -0.85707251620E-01 -0.44569391798E-01  0.12548164007E+00  0.95249314804E-02 0.  0.
         14    1    1    2    0    0 -0.14143365969E-01 -0.19843712763E-01  0.10558350441E-01  0.26557230676E-01  0.00000000000E+00 0. -1.
     999901    1    3    3    0    0  0.93659112894E-01  0.10555096438E+00  0.34011041357E-01  0.89189112926E+00  0.88000000000E+00 0.  1.
        -11    1    4    4    0    0 -0.38825074698E-01 -0.45184411727E-01 -0.27136301179E-01  0.65464932988E-01  0.51100000000E-03 0. -1.
         11    1    4    4    0    0 -0.40690672226E-01 -0.40522839893E-01 -0.17433090620E-01  0.60016707080E-01  0.51100000000E-03 0.  1.
</event>
<event>
 8    1  0.1132255E+005  0.1043930E+01  0.7957747E-01            NaN
         13   -1    0    0    0    0  0.00000000000E+00  0.00000000000E+00  0.74505805969E-08  0.10566000000E+00  0.10566000000E+00 0.  1.
     999900   -1    0    0    0    0 -0.00000000000E+00 -0.00000000000E+00 -0.74505805969E-08  0.93827000000E+00  0.93827000000E+00 0.  1.
     999902    2    1    2    0    0  0.15979484342E-01 -0.24950740410E-01 -0.64989880337E-02  0.10135965166E+01  0.10131425262E+01 0.  0.
     999903    2    3    3    0    0  0.37134024881E-01  0.37568963145E-01  0.10992202957E+00  0.12347850129E+00  0.19331965799E-01 0.  0.
         14    1    1    2    0    0 -0.15979484342E-01  0.24950740410E-01  0.64989880337E-02  0.30333483353E-01  0.00000000000E+00 0.  1.
     999901    1    3    3    0    0 -0.21154540539E-01 -0.62519703554E-01 -0.11642101760E+00  0.89011801535E+00  0.88000000000E+00 0.  1.
        -11    1    4    4    0    0  0.13952993903E-01  0.24677237903E-02  0.27118073857E-01  0.30601090672E-01  0.51100000000E-03 0. -1.
         11    1    4    4    0    0  0.23181030978E-01  0.35101239354E-01  0.82803955711E-01  0.92877410622E-01  0.51100000000E-03 0.  1.
</event>
<event>
 8    1  0.1132255E+005  0.1043930E+01  0.7957747E-01            NaN
         13   -1    0    0    0    0  0.00000000000E+00  0.00000000000E+00  0.74505805969E-08  0.10566000000E+00  0.10566000000E+00 0.  1.
     999900   -1    0    0    0    0 -0.00000000000E+00 -0.00000000000E+00 -0.74505805969E-08  0.93827000000E+00  0.93827000000E+00 0. -1.
     999902    2    1    2    0    0 -0.10828516694E-01 -0.19995597801E-01 -0.66155494528E-02  0.10202478084E+01  0.10199729135E+01 0.  0.
     999903    2    3    3    0    0  0.12473455043E+00  0.69819088932E-02  0.27438823324E-01  0.12880805644E+00  0.15204317047E-01 0.  0.
         14    1    1    2    0    0  0.10828516694E-01  0.19995597801E-01  0.66155494528E-02  0.23682191617E-01  0.00000000000E+00 0.  1.
     999901    1    3    3    0    0 -0.13556306712E+00 -0.26977506694E-01 -0.34054372777E-01  0.89143975194E+00  0.88000000000E+00 0. -1.
        -11    1    4    4    0    0  0.86662203800E-01  0.66691388631E-02  0.12102274914E-01  0.87758425007E-01  0.51100000000E-03 0. -1.
         11    1    4    4    0    0  0.38072346627E-01  0.31277003006E-03  0.15336548410E-01  0.41049631435E-01  0.51100000000E-03 0.  1.
</event>
<event>
 8    1  0.1132255E+005  0.1043930E+01  0.7957747E-01            NaN
         13   -1    0    0    0    0  0.00000000000E+00  0.00000000000E+00  0.74505805969E-08  0.10566000000E+00  0.10566000000E+00 0. -1.
     999900   -1    0    0    0    0 -0.00000000000E+00 -0.00000000000E+00 -0.74505805969E-08  0.93827000000E+00  0.93827000000E+00 0.  1.
     999902    2    1    2    0    0  0.67191223903E-02 -0.19235298910E-01  0.12366708482E-01  0.10200955961E+01  0.10198171142E+01 0.  0.
     999903    2    3    3    0    0  0.87873055378E-01  0.46274645591E-01 -0.80044144102E-01  0.12913135478E+00  0.20120265790E-01 0.  0.
         14    1    1    2    0    0 -0.67191223903E-02  0.19235298910E-01 -0.12366708482E-01  0.23834403885E-01  0.00000000000E+00 0.  1.
     999901    1    3    3    0    0 -0.81153932988E-01 -0.65509944501E-01  0.92410852584E-01  0.89096424134E+00  0.88000000000E+00 0. -1.
        -11    1    4    4    0    0  0.33935606056E-01  0.12438055558E-01 -0.39995899623E-01  0.53909773623E-01  0.51100000000E-03 0.  1.
         11    1    4    4    0    0  0.53937449322E-01  0.33836590033E-01 -0.40048244480E-01  0.75221581154E-01  0.51100000000E-03 0. -1.
</event>
<event>
 8    1  0.1132255E+005  0.1043930E+01  0.7957747E-01            NaN
         13   -1    0    0    0    0  0.00000000000E+00  0.00000000000E+00  0.74505805969E-08  0.10566000000E+00  0.10566000000E+00 0. -1.
     999900   -1    0    0    0    0 -0.00000000000E+00 -0.00000000000E+00 -0.74505805969E-08  0.93827000000E+00  0.93827000000E+00 0.  1.
     999902    2    1    2    0    0 -0.17260035376E-01  0.17023075598E-01 -0.37932972605E-02  0.10193926198E+01  0.10190972624E+01 0.  0.
     999903    2    3    3    0    0 -0.73612079175E-01 -0.88763744724E-01 -0.55908057773E-01  0.12973968045E+00  0.20222096367E-01 0.  0.
         14    1    1    2    0    0  0.17260035376E-01 -0.17023075598E-01  0.37932972605E-02  0.24537380221E-01  0.00000000000E+00 0.  1.
     999901    1    3    3    0    0  0.56352043799E-01  0.10578682032E+00  0.52114760513E-01  0.88965293933E+00  0.88000000000E+00 0. -1.
        -11    1    4    4    0    0 -0.50955637076E-01 -0.73962731701E-01 -0.39790812750E-01  0.98237123995E-01  0.51100000000E-03 0.  1.
         11    1    4    4    0    0 -0.22656442098E-01 -0.14801013023E-01 -0.16117245023E-01  0.31502556455E-01  0.51100000000E-03 0. -1.
</event>
<event>
 8    1  0.1132255E+005  0.1043930E+01  0.7957747E-01            NaN
         13   -1    0    0    0    0  0.00000000000E+00  0.00000000000E+00  0.74505805969E-08  0.10566000000E+00  0.10566000000E+00 0. -1.
     999900   -1    0    0    0    0 -0.00000000000E+00 -0.00000000000E+00 -0.74505805969E-08  0.93827000000E+00  0.93827000000E+00 0.  1.
     999902    2    1    2    0    0  0.26517517610E-01  0.43900064967E-02  0.64988941528E-02  0.10162770341E+01  0.10159007449E+01 0.  0.
     999903    2    3    3    0    0 -0.93435163229E-02 -0.97567929745E-03  0.12555411963E+00  0.12752006449E+00  0.20230586863E-01 0.  0.
         14    1    1    2    0    0 -0.26517517610E-01 -0.43900064967E-02 -0.64988941528E-02  0.27652965889E-01  0.00000000000E+00 0.  1.
     999901    1    3    3    0    0  0.35861033933E-01  0.53656857942E-02 -0.11905522547E+00  0.88875696962E+00  0.88000000000E+00 0.  1.
        -11    1    4    4    0    0 -0.15576811426E-01 -0.22282030414E-02  0.96322186871E-01  0.97600341944E-01  0.51100000000E-03 0.  1.
         11    1    4    4    0    0  0.62332951029E-02  0.12525237439E-02  0.29231932756E-01  0.29919722545E-01  0.51100000000E-03 0. -1.
</event>
<event>
 8    1  0.1132255E+005  0.1043930E+01  0.7957747E-01            NaN
         13   -1    0    0    0    0  0.00000000000E+00  0.00000000000E+00  0.74505805969E-08  0.10566000000E+00  0.10566000000E+00 0.  1.
     999900   -1    0    0    0    0 -0.00000000000E+00 -0.00000000000E+00 -0.74505805969E-08  0.93827000000E+00  0.93827000000E+00 0.  1.
     999902    2    1    2    0    0 -0.12770044494E-01 -0.98090930067E-02 -0.14999239032E-01  0.10219238755E+01  0.10216869080E+01 0.  0.
     999903    2    3    3    0    0  0.98236647046E-01  0.51690615784E-01  0.63329414416E-01  0.12937691448E+00  0.20134862505E-01 0.  0.
         14    1    1    2    0    0  0.12770044494E-01  0.98090930067E-02  0.14999239032E-01  0.22006124455E-01  0.00000000000E+00 0.  1.
     999901    1    3    3    0    0 -0.11100669154E+00 -0.61499708791E-01 -0.78328653448E-01  0.89254696106E+00  0.88000000000E+00 0.  1.
        -11    1    4    4    0    0  0.59167942899E-01  0.20270660687E-01  0.38266569717E-01  0.73323506671E-01  0.51100000000E-03 0. -1.
         11    1    4    4    0    0  0.39068704147E-01  0.31419955098E-01  0.25062844699E-01  0.56053407813E-01  0.51100000000E-03 0.  1.
</event>
<event>
 8    1  0.1132255E+005  0.1043930E+01  0.7957747E-01            NaN
         13   -1    0    0    0    0  0.00000000000E+00  0.00000000000E+00  0.74505805969E-08  0.10566000000E+00  0.10566000000E+00 0.  1.
     999900   -1    0    0    0    0 -0.00000000000E+00 -0.00000000000E+00 -0.74505805969E-08  0.93827000000E+00  0.93827000000E+00 0. -1.
     999902    2    1    2    0    0 -0.50180422085E-02  0.27004858240E-01 -0.99858698701E-02  0.10147039720E+01  0.10142829931E+01 0.  0.
     999903    2    3    3    0    0  0.21777281834E-01 -0.62205601918E-01  0.10147236025E+00  0.12279622303E+00  0.20940047316E-01 0.  0.
         14    1    1    2    0    0  0.50180422085E-02 -0.27004858240E-01  0.99858698701E-02  0.29226028010E-01  0.00000000000E+00 0.  1.
     999901    1    3    3    0    0 -0.26795324043E-01  0.89210460159E-01 -0.11145823012E+00  0.89190774896E+00  0.88000000000E+00 0. -1.
        -11    1    4    4    0    0  0.63668243135E-02 -0.36458204160E-01  0.70756218057E-01  0.79852618098E-01  0.51100000000E-03 0. -1.
         11    1    4    4    0    0  0.15410457520E-01 -0.25747397759E-01  0.30716142194E-01  0.42943604933E-01  0.51100000000E-03 0.  1.
</event>
<event>
 8    1  0.1132255E+005  0.1043930E+01  0.7957747E-01            NaN
         13   -1    0    0    0    0  0.00000000000E+00  0.00000000000E+00  0.74505805969E-08  0.10566000000E+00  0.10566000000E+00 0. -1.
     999900   -1    0    0    0    0 -0.00000000000E+00 -0.00000000000E+00 -0.74505805969E-08  0.93827000000E+00  0.93827000000E+00 0.  1.
     999902    2    1    2    0    0 -0.22565201634E-01 -0.93931474334E-02  0.23904353487E-02  0.10193712190E+01  0.10190753399E+01 0.  0.
     999903    2    3    3    0    0 -0.67070870761E-01 -0.24422961085E-01  0.10892681938E+00  0.13170199512E+00  0.19631118285E-01 0.  0.
         14    1    1    2    0    0  0.22565201634E-01  0.93931474334E-02 -0.23904353487E-02  0.24558781009E-01  0.00000000000E+00 0.  1.
     999901    1    3    3    0    0  0.44505669127E-01  0.15029813652E-01 -0.10653638403E+00  0.88766922387E+00  0.88000000000E+00 0.  1.
        -11    1    4    4    0    0 -0.41458849984E-01 -0.24725815051E-01  0.67306743713E-01  0.82829107457E-01  0.51100000000E-03 0.  1.
         11    1    4    4    0    0 -0.25612020777E-01  0.30285396547E-03  0.41620075671E-01  0.48872887664E-01  0.51100000000E-03 0. -1.
</event>
<event>
 8    1  0.1132255E+005  0.1043930E+01  0.7957747E-01            NaN
         13   -1    0    0    0    0  0.00000000000E+00  0.00000000000E+00  0.74505805969E-08  0.10566000000E+00  0.10566000000E+00 0.  1.
     999900   -1    0    0    0    0 -0.00000000000E+00 -0.00000000000E+00 -0.74505805969E-08  0.93827000000E+00  0.93827000000E+00 0.  1.
     999902    2    1    2    0    0 -0.23674138527E-01  0.35772055869E-02 -0.74940679053E-02  0.10188417101E+01  0.10185327722E+01 0.  0.
     999903    2    3    3    0    0  0.42327250832E-01  0.97631517640E-01  0.68401366397E-01  0.12813271503E+00  0.20389613418E-01 0.  0.
         14    1    1    2    0    0  0.23674138527E-01 -0.35772055869E-02  0.74940679053E-02  0.25088289869E-01  0.00000000000E+00 0.  1.
     999901    1    3    3    0    0 -0.66001389358E-01 -0.94054312053E-01 -0.75895434302E-01  0.89070899510E+00  0.88000000000E+00 0.  1.
        -11    1    4    4    0    0  0.96183450246E-02  0.33578610810E-01  0.32644523876E-01  0.47811732085E-01  0.51100000000E-03 0.  1.
         11    1    4    4    0    0  0.32708905807E-01  0.64052906830E-01  0.35756842521E-01  0.80320982941E-01  0.51100000000E-03 0. -1.
</event>
<event>
 8    1  0.1132255E+005  0.1043930E+01  0.7957747E-01            NaN
         13   -1    0    0    0    0  0.00000000000E+00  0.00000000000E+00  0.74505805969E-08  0.10566000000E+00  0.10566000000E+00 0. -1.
     999900   -1    0    0    0    0 -0.00000000000E+00 -0.00000000000E+00 -0.74505805969E-08  0.93827000000E+00  0.93827000000E+00 0.  1.
     999902    2    1    2    0    0  0.50268908957E-02  0.22728491985E-01 -0.30548714715E-02  0.10204526445E+01  0.10201825393E+01 0.  0.
     999903    2    3    3    0    0 -0.56810568842E-01  0.31508463882E-01  0.11169978731E+00  0.13080687736E+00  0.20331567852E-01 0.  0.
         14    1    1    2    0    0 -0.50268908957E-02 -0.22728491985E-01  0.30548714715E-02  0.23477355466E-01  0.00000000000E+00 0.  1.
     999901    1    3    3    0    0  0.61837459738E-01 -0.87799718977E-02 -0.11475465878E+00  0.88964576717E+00  0.88000000000E+00 0.  1.
        -11    1    4    4    0    0 -0.21467854436E-01  0.22058805525E-02  0.43950348221E-01  0.48965589068E-01  0.51100000000E-03 0. -1.
         11    1    4    4    0    0 -0.35342714406E-01  0.29302583330E-01  0.67749439092E-01  0.81841288294E-01  0.51100000000E-03 0.  1.
</event>
<event>
 8    1  0.1132255E+005  0.1043930E+01  0.7957747E-01            NaN
         13   -1    0    0    0    0  0.00000000000E+00  0.00000000000E+00  0.74505805969E-08  0.10566000000E+00  0.10566000000E+00 0.  1.
     999900   -1    0    0    0    0 -0.00000000000E+00 -0.00000000000E+00 -0.74505805969E-08  0.93827000000E+00  0.93827000000E+00 0. -1.
     999902    2    1    2    0    0 -0.13989248415E-01  0.83740477052E-02  0.15088093918E-01  0.10217157180E+01  0.10214741965E+01 0.  0.
     999903    2    3    3    0    0 -0.52688027292E-01  0.69130052901E-01 -0.96884783794E-01  0.13170065466E+00  0.20085036028E-01 0.  0.
         14    1    1    2    0    0  0.13989248415E-01 -0.83740477052E-02 -0.15088093918E-01  0.22214281989E-01  0.00000000000E+00 0. -1.
     999901    1    3    3    0    0  0.38698778877E-01 -0.60756005196E-01  0.11197287771E+00  0.89001506335E+00  0.88000000000E+00 0.  1.
        -11    1    4    4    0    0 -0.29036996271E-01  0.40395694288E-01 -0.40562388540E-01  0.64191337068E-01  0.51100000000E-03 0. -1.
         11    1    4    4    0    0 -0.23651031021E-01  0.28734358613E-01 -0.56322395254E-01  0.67509317590E-01  0.51100000000E-03 0.  1.
</event>
<event>
 8    1  0.1132255E+005  0.1043930E+01  0.7957747E-01            NaN
         13   -1    0    0    0    0  0.00000000000E+00  0.00000000000E+00  0.74505805969E-08  0.10566000000E+00  0.10566000000E+00 0.  1.
     999900   -1    0    0    0    0 -0.00000000000E+00 -0.00000000000E+00 -0.74505805969E-08  0.93827000000E+00  0.93827000000E+00 0.  1.
     999902    2    1    2    0    0 -0.15833439847E-01 -0.16712291207E-01 -0.50310369741E-02  0.10203649872E+01  0.10200928376E+01 0.  0.
     999903    2    3    3    0    0  0.11070501005E+00  0.34034663911E-01 -0.51932965790E-01  0.12863239070E+00  0.20863877921E-01 0.  0.
         14    1    1    2    0    0  0.15833439847E-01  0.16712291207E-01  0.50310369741E-02  0.23565012790E-01  0.00000000000E+00 0. -1.
     999901    1    3    3    0    0 -0.12653844990E+00 -0.50746955118E-01  0.46901928816E-01  0.89173259651E+00  0.88000000000E+00 0. -1.
        -11    1    4    4    0    0  0.67690835221E-01  0.23869844373E-01 -0.21364411131E-01  0.74890038238E-01  0.51100000000E-03 0.  1.
         11    1    4    4    0    0  0.43014174834E-01  0.10164819538E-01 -0.30568554660E-01  0.53742352459E-01  0.51100000000E-03 0. -1.
</event>
<event>
 8    1  0.1132255E+005  0.1043930E+01  0.7957747E-01            NaN
         13   -1    0    0    0    0  0.00000000000E+00  0.00000000000E+00  0.74505805969E-08  0.10566000000E+00  0.10566000000E+00 0. -1.
     999900   -1    0    0    0    0 -0.00000000000E+00 -0.00000000000E+00 -0.74505805969E-08  0.93827000000E+00  0.93827000000E+00 0. -1.
     999902    2    1    2    0    0 -0.14494570207E-01  0.15655516950E-01 -0.18705061451E-02  0.10225130308E+01  0.10222887124E+01 0.  0.
     999903    2    3    3    0    0  0.10158947649E+00  0.64921583789E-01  0.49977163831E-01  0.13201270395E+00  0.19859590221E-01 0.  0.
         14    1    1    2    0    0  0.14494570207E-01 -0.15655516950E-01  0.18705061451E-02  0.21416969199E-01  0.00000000000E+00 0. -1.
     999901    1    3    3    0    0 -0.11608404670E+00 -0.49266066839E-01 -0.51847669976E-01  0.89050032685E+00  0.88000000000E+00 0.  1.
        -11    1    4    4    0    0  0.87367642239E-01  0.53755872606E-01  0.49542598996E-01  0.11391895798E+00  0.51100000000E-03 0.  1.
         11    1    4    4    0    0  0.14221834254E-01  0.11165711183E-01  0.43456483481E-03  0.18093745973E-01  0.51100000000E-03 0. -1.
</event>
<event>
 8    1  0.1132255E+005  0.1043930E+01  0.7957747E-01            NaN
         13   -1    0    0    0    0  0.00000000000E+00  0.00000000000E+00  0.74505805969E-08  0.10566000000E+00  0.10566000000E+00 0. -1.
     999900   -1    0    0    0    0 -0.00000000000E+00 -0.00000000000E+00 -0.74505805969E-08  0.93827000000E+00  0.93827000000E+00 0.  1.
     999902    2    1    2    0    0  0.18662628587E-01  0.91809616678E-02  0.12176230013E-01  0.10198292876E+01  0.10195444725E+01 0.  0.
     999903    2    3    3    0    0  0.13037097284E+00  0.31414892554E-02  0.12466808759E-01  0.13274681459E+00  0.21443785829E-01 0.  0.
         14    1    1    2    0    0 -0.18662628587E-01 -0.91809616678E-02 -0.12176230013E-01  0.24100712443E-01  0.00000000000E+00 0.  1.
     999901    1    3    3    0    0 -0.11170834425E+00  0.60394724124E-02 -0.29057874610E-03  0.88708247296E+00  0.88000000000E+00 0.  1.
        -11    1    4    4    0    0  0.55428716296E-01 -0.36142029802E-02 -0.40894107788E-02  0.55699097433E-01  0.51100000000E-03 0.  1.
         11    1    4    4    0    0  0.74942256543E-01  0.67556922356E-02  0.16556219538E-01  0.77047717161E-01  0.51100000000E-03 0. -1.
</event>
<event>
 8    1  0.1132255E+005  0.1043930E+01  0.7957747E-01            NaN
         13   -1    0    0    0    0  0.00000000000E+00  0.00000000000E+00  0.74505805969E-08  0.10566000000E+00  0.10566000000E+00 0. -1.
     999900   -1    0    0    0    0 -0.00000000000E+00 -0.00000000000E+00 -0.74505805969E-08  0.93827000000E+00  0.93827000000E+00 0.  1.
     999902    2    1    2    0    0 -0.12216187927E-01  0.47208536380E-03 -0.20507919797E-01  0.10200546385E+01  0.10197751873E+01 0.  0.
     999903    2    3    3    0    0 -0.11368707494E+00  0.98302905223E-02 -0.65480980813E-01  0.13303350396E+00  0.19717218528E-01 0.  0.
         14    1    1    2    0    0  0.12216187927E-01 -0.47208536380E-03  0.20507919797E-01  0.23875361494E-01  0.00000000000E+00 0. -1.
     999901    1    3    3    0    0  0.10147088702E+00 -0.93582051585E-02  0.44973061016E-01  0.88702113455E+00  0.88000000000E+00 0.  1.
        -11    1    4    4    0    0 -0.49722712365E-01 -0.45592999675E-02 -0.33100243959E-01  0.59908451927E-01  0.51100000000E-03 0.  1.
         11    1    4    4    0    0 -0.63964362578E-01  0.14389590490E-01 -0.32380736854E-01  0.73125052032E-01  0.51100000000E-03 0. -1.
</event>
<event>
 8    1  0.1132255E+005  0.1043930E+01  0.7957747E-01            NaN
         13   -1    0    0    0    0  0.00000000000E+00  0.00000000000E+00  0.74505805969E-08  0.10566000000E+00  0.10566000000E+00 0. -1.
     999900   -1    0    0    0    0 -0.00000000000E+00 -0.00000000000E+00 -0.74505805969E-08  0.93827000000E+00  0.93827000000E+00 0.  1.
     999902    2    1    2    0    0 -0.22265340618E-03  0.21837917433E-01 -0.83394724489E-02  0.10205528528E+01  0.10202850750E+01 0.  0.
     999903    2    3    3    0    0 -0.90566039301E-01  0.62087325272E-01 -0.71767339579E-01  0.13274373108E+00  0.20329871551E-01 0.  0.
         14    1    1    2    0    0  0.22265340618E-03 -0.21837917433E-01  0.83394724489E-02  0.23377147240E-01  0.00000000000E+00 0. -1.
     999901    1    3    3    0    0  0.90343385894E-01 -0.40249407839E-01  0.63427867130E-01  0.88780912168E+00  0.88000000000E+00 0. -1.
        -11    1    4    4    0    0 -0.66565390353E-01  0.46984527600E-01 -0.42144851947E-01  0.91733018556E-01  0.51100000000E-03 0.  1.
         11    1    4    4    0    0 -0.24000648947E-01  0.15102797672E-01 -0.29622487632E-01  0.41010712526E-01  0.51100000000E-03 0. -1.
</event>
<event>
 8    1  0.1132255E+005  0.1043930E+01  0.7957747E-01            NaN
         13   -1    0    0    0    0  0.00000000000E+00  0.00000000000E+00  0.74505805969E-08  0.10566000000E+00  0.10566000000E+00 0. -1.
     999900   -1    0    0    0    0 -0.00000000000E+00 -0.00000000000E+00 -0.74505805969E-08  0.93827000000E+00  0.93827000000E+00 0. -1.
     999902    2    1    2    0    0  0.60194364688E-02  0.13086774715E-01  0.28094134504E-01  0.10123582138E+01  0.10118657892E+01 0.  0.
     999903    2    3    3    0    0  0.87520312881E-01 -0.77933773688E-01 -0.31371470901E-01  0.12192950175E+00  0.12212942416E-01 0.  0.
         14    1    1    2    0    0 -0.60194364688E-02 -0.13086774715E-01 -0.28094134504E-01  0.31571786161E-01  0.00000000000E+00 0.  1.
     999901    1    3    3    0    0 -0.81500876412E-01  0.91020548402E-01  0.59465605405E-01  0.89042871209E+00  0.88000000000E+00 0. -1.
        -11    1    4    4    0    0  0.40166479003E-01 -0.30313536274E-01 -0.18041364259E-01  0.53460344764E-01  0.51100000000E-03 0. -1.
         11    1    4    4    0    0  0.47353833878E-01 -0.47620237413E-01 -0.13330106641E-01  0.68469156985E-01  0.51100000000E-03 0.  1.
</event>
<event>
 8    1  0.1132255E+005  0.1043930E+01  0.7957747E-01            NaN
         13   -1    0    0    0    0  0.00000000000E+00  0.00000000000E+00  0.74505805969E-08  0.10566000000E+00  0.10566000000E+00 0. -1.
     999900   -1    0    0    0    0 -0.00000000000E+00 -0.00000000000E+00 -0.74505805969E-08  0.93827000000E+00  0.93827000000E+00 0. -1.
     999902    2    1    2    0    0 -0.22001824517E-01  0.25384415940E-01  0.52868425878E-02  0.10099241246E+01  0.10093514442E+01 0.  0.
     999903    2    3    3    0    0 -0.14048740518E-02 -0.11098639986E+00  0.37068055421E-01  0.11861537944E+00  0.19380734801E-01 0.  0.
         14    1    1    2    0    0  0.22001824517E-01 -0.25384415940E-01 -0.52868425878E-02  0.34005875364E-01  0.00000000000E+00 0.  1.
     999901    1    3    3    0    0 -0.20596950465E-01  0.13637081580E+00 -0.31781212833E-01  0.89130874519E+00  0.88000000000E+00 0.  1.
        -11    1    4    4    0    0 -0.77440753072E-02 -0.93316479730E-01  0.27831202613E-01  0.97687118145E-01  0.51100000000E-03 0.  1.
         11    1    4    4    0    0  0.63392012554E-02 -0.17669920135E-01  0.92368528079E-02  0.20928261297E-01  0.51100000000E-03 0. -1.
</event>
<event>
 7    1  0.1132255E+005  0.1043930E+01  0.7957747E-01            NaN
         13   -1    0    0    0    0  0.00000000000E+00  0.00000000000E+00  0.74505805969E-08  0.10566000000E+00  0.10566000000E+00 0.  1.
     999900   -1    0    0    0    0 -0.00000000000E+00 -0.00000000000E+00 -0.74505805969E-08  0.93827000000E+00  0.93827000000E+00 0.  1.
     999902    2    1    2    0    0  0.84676710710E-02 -0.22584526564E-01 -0.11301611528E-02  0.10197837879E+01  0.10194978835E+01 0.  0.
         14    1    1    2    0    0 -0.84676710710E-02  0.22584526564E-01  0.11301611528E-02  0.24146212078E-01  0.00000000000E+00 0. -1.
     999901    1    3    3    0    0 -0.29689661324E-01 -0.26473416988E-01  0.11632830920E+00  0.88854633718E+00  0.88000000000E+00 0. -1.
        -11    1    3    3    0    0  0.36030132781E-01 -0.15348362188E-01 -0.77394649646E-01  0.86740622577E-01  0.51100000000E-03 0. -1.
         11    1    3    3    0    0  0.21271996140E-02  0.19237252612E-01 -0.40063820704E-01  0.44496828164E-01  0.51100000000E-03 0.  1.
</event>
<event>
 8    1  0.1132255E+005  0.1043930E+01  0.7957747E-01            NaN
         13   -1    0    0    0    0  0.00000000000E+00  0.00000000000E+00  0.74505805969E-08  0.10566000000E+00  0.10566000000E+00 0.  1.
     999900   -1    0    0    0    0 -0.00000000000E+00 -0.00000000000E+00 -0.74505805969E-08  0.93827000000E+00  0.93827000000E+00 0.  1.
     999902    2    1    2    0    0  0.11589221803E-01 -0.19286485821E-01  0.94831500624E-03  0.10214093895E+01  0.10211610857E+01 0.  0.
     999903    2    3    3    0    0 -0.81083520766E-01 -0.50472485214E-01 -0.88178295840E-01  0.13151930832E+00  0.19997687352E-01 0.  0.
         14    1    1    2    0    0 -0.11589221803E-01  0.19286485821E-01 -0.94831500624E-03  0.22520610530E-01  0.00000000000E+00 0. -1.
     999901    1    3    3    0    0  0.92672742569E-01  0.31185999393E-01  0.89126610846E-01  0.88989008115E+00  0.88000000000E+00 0.  1.
        -11    1    4    4    0    0 -0.39981508809E-01 -0.14045139082E-01 -0.33527187831E-01  0.54038138600E-01  0.51100000000E-03 0.  1.
         11    1    4    4    0    0 -0.41102011957E-01 -0.36427346132E-01 -0.54651108009E-01  0.77481169717E-01  0.51100000000E-03 0. -1.
</event>
<event>
 8    1  0.1132255E+005  0.1043930E+01  0.7957747E-01            NaN
         13   -1    0    0    0    0  0.00000000000E+00  0.00000000000E+00  0.74505805969E-08  0.10566000000E+00  0.10566000000E+00 0. -1.
     999900   -1    0    0    0    0 -0.00000000000E+00 -0.00000000000E+00 -0.74505805969E-08  0.93827000000E+00  0.93827000000E+00 0. -1.
     999902    2    1    2    0    0  0.11435014714E-01  0.22228138294E-01  0.90362717707E-03  0.10189166788E+01  0.10186096073E+01 0.  0.
     999903    2    3    3    0    0  0.47357786603E-01 -0.49019781640E-01  0.10762320807E+00  0.12888534198E+00  0.19569811436E-01 0.  0.
         14    1    1    2    0    0 -0.11435014714E-01 -0.22228138294E-01 -0.90362717707E-03  0.25013321163E-01  0.00000000000E+00 0.  1.
     999901    1    3    3    0    0 -0.35922771889E-01  0.71247919934E-01 -0.10671958089E+00  0.89003133685E+00  0.88000000000E+00 0. -1.
        -11    1    4    4    0    0  0.30409958219E-01 -0.36740246813E-01  0.58445776951E-01  0.75437267044E-01  0.51100000000E-03 0.  1.
         11    1    4    4    0    0  0.16947828384E-01 -0.12279534827E-01  0.49177431117E-01  0.53448074940E-01  0.51100000000E-03 0. -1.
</event>
<event>
 8    1  0.1132255E+005  0.1043930E+01  0.7957747E-01            NaN
         13   -1    0    0    0    0  0.00000000000E+00  0.00000000000E+00  0.74505805969E-08  0.10566000000E+00  0.10566000000E+00 0.  1.
     999900   -1    0    0    0    0 -0.00000000000E+00 -0.00000000000E+00 -0.74505805969E-08  0.93827000000E+00  0.93827000000E+00 0.  1.
     999902    2    1    2    0    0 -0.93435178257E-02 -0.21733994416E-01 -0.11160176255E-02  0.10202463910E+01  0.10199714629E+01 0.  0.
     999903    2    3    3    0    0  0.84970271354E-01  0.74891217519E-01  0.56396271935E-01  0.12809215220E+00  0.19960423121E-01 0.  0.
         14    1    1    2    0    0  0.93435178257E-02  0.21733994416E-01  0.11160176255E-02  0.23683608972E-01  0.00000000000E+00 0. -1.
     999901    1    3    3    0    0 -0.94313789180E-01 -0.96625211935E-01 -0.57512289560E-01  0.89215423883E+00  0.88000000000E+00 0. -1.
        -11    1    4    4    0    0  0.65441452081E-01  0.48101694000E-01  0.46016143508E-01  0.93349361008E-01  0.51100000000E-03 0. -1.
         11    1    4    4    0    0  0.19528819273E-01  0.26789523519E-01  0.10380128426E-01  0.34742791190E-01  0.51100000000E-03 0.  1.
</event>
<event>
 8    1  0.1132255E+005  0.1043930E+01  0.7957747E-01            NaN
         13   -1    0    0    0    0  0.00000000000E+00  0.00000000000E+00  0.74505805969E-08  0.10566000000E+00  0.10566000000E+00 0.  1.
     999900   -1    0    0    0    0 -0.00000000000E+00 -0.00000000000E+00 -0.74505805969E-08  0.93827000000E+00  0.93827000000E+00 0. -1.
     999902    2    1    2    0    0 -0.59550780646E-02  0.20234564799E-01  0.87032047904E-02  0.10211123239E+01  0.10208573513E+01 0.  0.
     999903    2    3    3    0    0  0.10356627115E+00 -0.74675747377E-01  0.17441616931E-02  0.12923154627E+00  0.19882421488E-01 0.  0.
         14    1    1    2    0    0  0.59550780646E-02 -0.20234564799E-01 -0.87032047904E-02  0.22817676065E-01  0.00000000000E+00 0. -1.
     999901    1    3    3    0    0 -0.10952134922E+00  0.94910312176E-01  0.69590430973E-02  0.89188077767E+00  0.88000000000E+00 0. -1.
        -11    1    4    4    0    0  0.63341463473E-01 -0.39305694453E-01  0.93365623174E-02  0.75129961589E-01  0.51100000000E-03 0. -1.
         11    1    4    4    0    0  0.40224807679E-01 -0.35370052923E-01 -0.75924006244E-02  0.54101584679E-01  0.51100000000E-03 0.  1.
</event>
<event>
 8    1  0.1132255E+005  0.1043930E+01  0.7957747E-01            NaN
         13   -1    0    0    0    0  0.00000000000E+00  0.00000000000E+00  0.74505805969E-08  0.10566000000E+00  0.10566000000E+00 0.  1.
     999900   -1    0    0    0    0 -0.00000000000E+00 -0.00000000000E+00 -0.74505805969E-08  0.93827000000E+00  0.93827000000E+00 0.  1.
     999902    2    1    2    0    0 -0.68040092368E-02  0.26033003083E-02  0.29991176336E-01  0.10130667148E+01  0.10125964775E+01 0.  0.
     999903    2    3    3    0    0  0.84833347095E-01  0.87910369265E-01  0.79106248455E-03  0.12372575223E+00  0.19557765238E-01 0.  0.
         14    1    1    2    0    0  0.68040092368E-02 -0.26033003083E-02 -0.29991176336E-01  0.30863285182E-01  0.00000000000E+00 0. -1.
     999901    1    3    3    0    0 -0.91637356332E-01 -0.85307068957E-01  0.29200113852E-01  0.88934096259E+00  0.88000000000E+00 0. -1.
        -11    1    4    4    0    0  0.35126018853E-01  0.25010549185E-01  0.51848554953E-02  0.43433956975E-01  0.51100000000E-03 0.  1.
         11    1    4    4    0    0  0.49707328242E-01  0.62899820080E-01 -0.43937930108E-02  0.80291795254E-01  0.51100000000E-03 0. -1.
</event>
<event>
 8    1  0.1132255E+005  0.1043930E+01  0.7957747E-01            NaN
         13   -1    0    0    0    0  0.00000000000E+00  0.00000000000E+00  0.74505805969E-08  0.10566000000E+00  0.10566000000E+00 0. -1.
     999900   -1    0    0    0    0 -0.00000000000E+00 -0.00000000000E+00 -0.74505805969E-08  0.93827000000E+00  0.93827000000E+00 0. -1.
     999902    2    1    2    0    0  0.19547969354E-01  0.98780176083E-02 -0.90503465593E-02  0.10202317488E+01  0.10199564766E+01 0.  0.
     999903    2    3    3    0    0  0.24235395925E-01 -0.90345288717E-01  0.87016738170E-01  0.12933581330E+00  0.20154758027E-01 0.  0.
         14    1    1    2    0    0 -0.19547969354E-01 -0.98780176083E-02  0.90503465593E-02  0.23698251214E-01  0.00000000000E+00 0. -1.
     999901    1    3    3    0    0 -0.46874265712E-02  0.10022330632E+00 -0.96067084729E-01  0.89089593549E+00  0.88000000000E+00 0. -1.
        -11    1    4    4    0    0  0.26642551721E-01 -0.82424158598E-01  0.74146365292E-01  0.11402417327E+00  0.51100000000E-03 0. -1.
         11    1    4    4    0    0 -0.24071557958E-02 -0.79211301185E-02  0.12870372879E-01  0.15311640030E-01  0.51100000000E-03 0.  1.
</event>
<event>
 8    1  0.1132255E+005  0.1043930E+01  0.7957747E-01            NaN
         13   -1    0    0    0    0  0.00000000000E+00  0.00000000000E+00  0.74505805969E-08  0.10566000000E+00  0.10566000000E+00 0.  1.
     999900   -1    0    0    0    0 -0.00000000000E+00 -0.00000000000E+00 -0.74505805969E-08  0.93827000000E+00  0.93827000000E+00 0.  1.
     999902    2    1    2    0    0 -0.15469628939E-01  0.12863028697E-01 -0.20351511136E-01  0.10153126813E+01  0.10149093013E+01 0.  0.
     999903    2    3    3    0    0 -0.74293702919E-01 -0.32689532933E-01 -0.98021168888E-01  0.12876438404E+00  0.19594825608E-01 0.  0.
         14    1    1    2    0    0  0.15469628939E-01 -0.12863028697E-01  0.20351511136E-01  0.28617318748E-01  0.00000000000E+00 0.  1.
     999901    1    3    3    0    0  0.58824073980E-01  0.45552561630E-01  0.77669657752E-01  0.88654829721E+00  0.88000000000E+00 0. -1.
        -11    1    4    4    0    0 -0.46758933041E-01 -0.29336230660E-01 -0.72014429675E-01  0.90737817093E-01  0.51100000000E-03 0.  1.
         11    1    4    4    0    0 -0.27534769878E-01 -0.33533022736E-02 -0.26006739214E-01  0.38026566949E-01  0.51100000000E-03 0. -1.
</event>
<event>
 8    1  0.1132255E+005  0.1043930E+01  0.7957747E-01            NaN
         13   -1    0    0    0    0  0.00000000000E+00  0.00000000000E+00  0.74505805969E-08  0.10566000000E+00  0.10566000000E+00 0.  1.
     999900   -1    0    0    0    0 -0.00000000000E+00 -0.00000000000E+00 -0.74505805969E-08  0.93827000000E+00  0.93827000000E+00 0.  1.
     999902    2    1    2    0    0  0.15505120458E-01 -0.14438835578E-01  0.11657876584E-01  0.10197474687E+01  0.10194606933E+01 0.  0.
     999903    2    3    3    0    0  0.47592083432E-01  0.11835806600E+00  0.12078566275E-02  0.12914441842E+00  0.20079434739E-01 0.  0.
         14    1    1    2    0    0 -0.15505120458E-01  0.14438835578E-01 -0.11657876584E-01  0.24182531293E-01  0.00000000000E+00 0.  1.
     999901    1    3    3    0    0 -0.32086962973E-01 -0.13279690158E+00  0.10450019956E-01  0.89060305029E+00  0.88000000000E+00 0. -1.
        -11    1    4    4    0    0  0.51765371411E-02  0.35215568560E-01 -0.29023707243E-02  0.35715790382E-01  0.51100000000E-03 0. -1.
         11    1    4    4    0    0  0.42415546290E-01  0.83142497439E-01  0.41102273518E-02  0.93428628040E-01  0.51100000000E-03 0.  1.
</event>
<event>
 8    1  0.1132255E+005  0.1043930E+01  0.7957747E-01            NaN
         13   -1    0    0    0    0  0.00000000000E+00  0.00000000000E+00  0.74505805969E-08  0.10566000000E+00  0.10566000000E+00 0. -1.
     999900   -1    0    0    0    0 -0.00000000000E+00 -0.00000000000E+00 -0.74505805969E-08  0.93827000000E+00  0.93827000000E+00 0.  1.
     999902    2    1    2    0    0 -0.40011718212E-02  0.26285968906E-02 -0.22992420237E-01  0.10204444665E+01  0.10201741708E+01 0.  0.
     999903    2    3    3    0    0  0.82365028983E-01  0.24168955544E-01  0.93142048002E-01  0.12836245094E+00  0.20816851197E-01 0.  0.
         14    1    1    2    0    0  0.40011718212E-02 -0.26285968906E-02  0.22992420237E-01  0.23485533545E-01  0.00000000000E+00 0. -1.
     999901    1    3    3    0    0 -0.86366200804E-01 -0.21540358653E-01 -0.11613446824E+00  0.89208201552E+00  0.88000000000E+00 0.  1.
        -11    1    4    4    0    0  0.26318681087E-01  0.54936937742E-02  0.16337276874E-01  0.31464605227E-01  0.51100000000E-03 0.  1.
         11    1    4    4    0    0  0.56046347895E-01  0.18675261770E-01  0.76804771128E-01  0.96897845712E-01  0.51100000000E-03 0. -1.
</event>
<event>
 8    1  0.1132255E+005  0.1043930E+01  0.7957747E-01            NaN
         13   -1    0    0    0    0  0.00000000000E+00  0.00000000000E+00  0.74505805969E-08  0.10566000000E+00  0.10566000000E+00 0.  1.
     999900   -1    0    0    0    0 -0.00000000000E+00 -0.00000000000E+00 -0.74505805969E-08  0.93827000000E+00  0.93827000000E+00 0. -1.
     999902    2    1    2    0    0  0.16021805033E-01  0.36664991653E-02  0.18196034208E-01  0.10194098631E+01  0.10191149257E+01 0.  0.
     999903    2    3    3    0    0 -0.57891899061E-01  0.10565165907E+00  0.44788892960E-01  0.13004414045E+00  0.19791121518E-01 0.  0.
         14    1    1    2    0    0 -0.16021805033E-01 -0.36664991653E-02 -0.18196034208E-01  0.24520136899E-01  0.00000000000E+00 0. -1.
     999901    1    3    3    0    0  0.73913704094E-01 -0.10198515991E+00 -0.26592858751E-01  0.88936572265E+00  0.88000000000E+00 0.  1.
        -11    1    4    4    0    0 -0.78194095171E-02  0.26409403981E-01  0.16585841927E-01  0.32155109349E-01  0.51100000000E-03 0.  1.
         11    1    4    4    0    0 -0.50072489544E-01  0.79242255090E-01  0.28203051032E-01  0.97889031098E-01  0.51100000000E-03 0. -1.
</event>
<event>
 8    1  0.1132255E+005  0.1043930E+01  0.7957747E-01            NaN
         13   -1    0    0    0    0  0.00000000000E+00  0.00000000000E+00  0.74505805969E-08  0.10566000000E+00  0.10566000000E+00 0. -1.
     999900   -1    0    0    0    0 -0.00000000000E+00 -0.00000000000E+00 -0.74505805969E-08  0.93827000000E+00  0.93827000000E+00 0. -1.
     999902    2    1    2    0    0  0.17664778764E-01  0.13402211059E-01 -0.60935903397E-02  0.10209344458E+01  0.10206754367E+01 0.  0.
     999903    2    3    3    0    0  0.48745961602E-01  0.70011875758E-01 -0.10051656710E+00  0.13353014526E+00  0.21186975034E-01 0.  0.
         14    1    1    2    0    0 -0.17664778764E-01 -0.13402211059E-01  0.60935903397E-02  0.22995554207E-01  0.00000000000E+00 0.  1.
     999901    1    3    3    0    0 -0.31081182838E-01 -0.56609664699E-01  0.94422976764E-01  0.88740430053E+00  0.88000000000E+00 0.  1.
        -11    1    4    4    0    0  0.31255023375E-01  0.26718478473E-01 -0.44164631664E-01  0.60345085873E-01  0.51100000000E-03 0. -1.
         11    1    4    4    0    0  0.17490938227E-01  0.43293397285E-01 -0.56351935440E-01  0.73185059387E-01  0.51100000000E-03 0.  1.
</event>
<event>
 8    1  0.1132255E+005  0.1043930E+01  0.7957747E-01            NaN
         13   -1    0    0    0    0  0.00000000000E+00  0.00000000000E+00  0.74505805969E-08  0.10566000000E+00  0.10566000000E+00 0. -1.
     999900   -1    0    0    0    0 -0.00000000000E+00 -0.00000000000E+00 -0.74505805969E-08  0.93827000000E+00  0.93827000000E+00 0. -1.
     999902    2    1    2    0    0 -0.12224361457E-01 -0.17272387198E-01  0.10469525506E-01  0.10203210751E+01  0.10200478983E+01 0.  0.
     999903    2    3    3    0    0  0.11123419111E+00 -0.61033451930E-01  0.23188648679E-01  0.13053524629E+00  0.20090036567E-01 0.  0.
         14    1    1    2    0    0  0.12224361457E-01  0.17272387198E-01 -0.10469525506E-01  0.23608924941E-01  0.00000000000E+00 0. -1.
     999901    1    3    3    0    0 -0.12345855257E+00  0.43761064732E-01 -0.12719123173E-01  0.88978582877E+00  0.88000000000E+00 0.  1.
        -11    1    4    4    0    0  0.78188041012E-01 -0.52827558341E-01  0.18517806734E-01  0.96162835673E-01  0.51100000000E-03 0.  1.
         11    1    4    4    0    0  0.33046150099E-01 -0.82058935891E-02  0.46708419458E-02  0.34372410614E-01  0.51100000000E-03 0. -1.
</event>
<event>
 8    1  0.1132255E+005  0.1043930E+01  0.7957747E-01            NaN
         13   -1    0    0    0    0  0.00000000000E+00  0.00000000000E+00  0.74505805969E-08  0.10566000000E+00  0.10566000000E+00 0.  1.
     999900   -1    0    0    0    0 -0.00000000000E+00 -0.00000000000E+00 -0.74505805969E-08  0.93827000000E+00  0.93827000000E+00 0. -1.
     999902    2    1    2    0    0 -0.81228476325E-02  0.18723434419E-01  0.12408174111E-01  0.10200446397E+01  0.10197649517E+01 0.  0.
     999903    2    3    3    0    0  0.29453443097E-01 -0.11025958083E+00 -0.53054267574E-01  0.12744510628E+00  0.20070359541E-01 0.  0.
         14    1    1    2    0    0  0.81228476325E-02 -0.18723434419E-01 -0.12408174111E-01  0.23885360263E-01  0.00000000000E+00 0. -1.
     999901    1    3    3    0    0 -0.37576290729E-01  0.12898301525E+00  0.65462441685E-01  0.89259953345E+00  0.88000000000E+00 0. -1.
        -11    1    4    4    0    0  0.29935073003E-01 -0.77084321599E-01 -0.37882934254E-01  0.90958666771E-01  0.51100000000E-03 0.  1.
         11    1    4    4    0    0 -0.48162990560E-03 -0.33175259235E-01 -0.15171333320E-01  0.36486439513E-01  0.51100000000E-03 0. -1.
</event>
<event>
 8    1  0.1132255E+005  0.1043930E+01  0.7957747E-01            NaN
         13   -1    0    0    0    0  0.00000000000E+00  0.00000000000E+00  0.74505805969E-08  0.10566000000E+00  0.10566000000E+00 0. -1.
     999900   -1    0    0    0    0 -0.00000000000E+00 -0.00000000000E+00 -0.74505805969E-08  0.93827000000E+00  0.93827000000E+00 0.  1.
     999902    2    1    2    0    0 -0.13936888499E-01  0.39200223247E-02 -0.18955599782E-01  0.10200779938E+01  0.10197990955E+01 0.  0.
     999903    2    3    3    0    0 -0.34450666353E-01 -0.65600439803E-01 -0.10808267184E+00  0.13261106783E+00  0.20336303610E-01 0.  0.
         14    1    1    2    0    0  0.13936888499E-01 -0.39200223247E-02  0.18955599782E-01  0.23852006187E-01  0.00000000000E+00 0. -1.
     999901    1    3    3    0    0  0.20513777853E-01  0.69520462127E-01  0.89127072060E-01  0.88746692598E+00  0.88000000000E+00 0. -1.
        -11    1    4    4    0    0 -0.16522819463E-02 -0.12941284815E-01 -0.31179302564E-01  0.33802617024E-01  0.51100000000E-03 0. -1.
         11    1    4    4    0    0 -0.32798384407E-01 -0.52659154988E-01 -0.76903369278E-01  0.98808450808E-01  0.51100000000E-03 0.  1.
</event>
<event>
 8    1  0.1132255E+005  0.1043930E+01  0.7957747E-01            NaN
         13   -1    0    0    0    0  0.00000000000E+00  0.00000000000E+00  0.74505805969E-08  0.10566000000E+00  0.10566000000E+00 0. -1.
     999900   -1    0    0    0    0 -0.00000000000E+00 -0.00000000000E+00 -0.74505805969E-08  0.93827000000E+00  0.93827000000E+00 0.  1.
     999902    2    1    2    0    0 -0.38575010743E-02  0.11731949392E-01 -0.20131825207E-01  0.10203120124E+01  0.10200386235E+01 0.  0.
     999903    2    3    3    0    0 -0.87455887976E-01 -0.92492703967E-01  0.13659486854E-01  0.12958572369E+00  0.20061046220E-01 0.  0.
         14    1    1    2    0    0  0.38575010743E-02 -0.11731949392E-01  0.20131825207E-01  0.23617987578E-01  0.00000000000E+00 0. -1.
     999901    1    3    3    0    0  0.83598386902E-01  0.10422465336E+00 -0.33791312060E-01  0.89072628873E+00  0.88000000000E+00 0.  1.
        -11    1    4    4    0    0 -0.55883320227E-01 -0.66514302250E-01  0.13596568803E-02  0.86886176525E-01  0.51100000000E-03 0.  1.
         11    1    4    4    0    0 -0.31572567749E-01 -0.25978401717E-01  0.12299829973E-01  0.42699547169E-01  0.51100000000E-03 0. -1.
</event>
<event>
 8    1  0.1132255E+005  0.1043930E+01  0.7957747E-01            NaN
         13   -1    0    0    0    0  0.00000000000E+00  0.00000000000E+00  0.74505805969E-08  0.10566000000E+00  0.10566000000E+00 0.  1.
     999900   -1    0    0    0    0 -0.00000000000E+00 -0.00000000000E+00 -0.74505805969E-08  0.93827000000E+00  0.93827000000E+00 0. -1.
     999902    2    1    2    0    0 -0.51491369385E-02 -0.69825449644E-02  0.23027655684E-01  0.10193222274E+01  0.10190251522E+01 0.  0.
     999903    2    3    3    0    0 -0.90288830585E-02 -0.90352166481E-01  0.94231464349E-01  0.13251022446E+00  0.20841209050E-01 0.  0.
         14    1    1    2    0    0  0.51491369385E-02  0.69825449644E-02 -0.23027655684E-01  0.24607772587E-01  0.00000000000E+00 0. -1.
     999901    1    3    3    0    0  0.38797461200E-02  0.83369621517E-01 -0.71203808665E-01  0.88681200296E+00  0.88000000000E+00 0. -1.
        -11    1    4    4    0    0  0.47858940280E-03 -0.45443826743E-01  0.59876428972E-01  0.75171924974E-01  0.51100000000E-03 0.  1.
         11    1    4    4    0    0 -0.95074724613E-02 -0.44908339738E-01  0.34355035377E-01  0.57338299481E-01  0.51100000000E-03 0. -1.
</event>
<event>
 8    1  0.1132255E+005  0.1043930E+01  0.7957747E-01            NaN
         13   -1    0    0    0    0  0.00000000000E+00  0.00000000000E+00  0.74505805969E-08  0.10566000000E+00  0.10566000000E+00 0.  1.
     999900   -1    0    0    0    0 -0.00000000000E+00 -0.00000000000E+00 -0.74505805969E-08  0.93827000000E+00  0.93827000000E+00 0. -1.
     999902    2    1    2    0    0  0.11902115936E-01  0.17191029233E-01  0.10471677649E-01  0.10205452211E+01  0.10202772665E+01 0.  0.
     999903    2    3    3    0    0  0.12205475421E+00 -0.60148929270E-02 -0.43818809316E-01  0.13171476738E+00  0.22251964744E-01 0.  0.
         14    1    1    2    0    0 -0.11902115936E-01 -0.17191029233E-01 -0.10471677649E-01  0.23384778866E-01  0.00000000000E+00 0.  1.
     999901    1    3    3    0    0 -0.11015263827E+00  0.23205922160E-01  0.54290486965E-01  0.88883045375E+00  0.88000000000E+00 0.  1.
        -11    1    4    4    0    0  0.33875374938E-01 -0.11435841761E-01 -0.10157125737E-01  0.37171868775E-01  0.51100000000E-03 0.  1.
         11    1    4    4    0    0  0.88179379270E-01  0.54209488342E-02 -0.33661683579E-01  0.94542898607E-01  0.51100000000E-03 0. -1.
</event>
<event>
 8    1  0.1132255E+005  0.1043930E+01  0.7957747E-01            NaN
         13   -1    0    0    0    0  0.00000000000E+00  0.00000000000E+00  0.74505805969E-08  0.10566000000E+00  0.10566000000E+00 0. -1.
     999900   -1    0    0    0    0 -0.00000000000E+00 -0.00000000000E+00 -0.74505805969E-08  0.93827000000E+00  0.93827000000E+00 0.  1.
     999902    2    1    2    0    0  0.10915517640E-01  0.14690548911E-01  0.15394907879E-01  0.10200142324E+01  0.10197338233E+01 0.  0.
     999903    2    3    3    0    0  0.63791970914E-01 -0.94372479648E-01  0.58365228895E-01  0.13066778020E+00  0.26305671806E-01 0.  0.
         14    1    1    2    0    0 -0.10915517640E-01 -0.14690548911E-01 -0.15394907879E-01  0.23915767629E-01  0.00000000000E+00 0.  1.
     999901    1    3    3    0    0 -0.52876453274E-01  0.10906302856E+00 -0.42970321016E-01  0.88934645218E+00  0.88000000000E+00 0.  1.
        -11    1    4    4    0    0  0.63173239407E-01 -0.86941459242E-01  0.59901808404E-01  0.12303724348E+00  0.51100000000E-03 0.  1.
         11    1    4    4    0    0  0.61873150695E-03 -0.74310204064E-02 -0.15365795098E-02  0.76305367143E-02  0.51100000000E-03 0. -1.
</event>
<event>
 8    1  0.1132255E+005  0.1043930E+01  0.7957747E-01            NaN
         13   -1    0    0    0    0  0.00000000000E+00  0.00000000000E+00  0.74505805969E-08  0.10566000000E+00  0.10566000000E+00 0.  1.
     999900   -1    0    0    0    0 -0.00000000000E+00 -0.00000000000E+00 -0.74505805969E-08  0.93827000000E+00  0.93827000000E+00 0.  1.
     999902    2    1    2    0    0  0.13514787223E-01  0.20454476977E-03  0.21109925240E-01  0.10188636828E+01  0.10185552925E+01 0.  0.
     999903    2    3    3    0    0 -0.62922983031E-02  0.11582145252E+00  0.54609969632E-01  0.13044832786E+00  0.24089740068E-01 0.  0.
         14    1    1    2    0    0 -0.13514787223E-01 -0.20454476977E-03 -0.21109925240E-01  0.25066317159E-01  0.00000000000E+00 0. -1.
     999901    1    3    3    0    0  0.19807085526E-01 -0.11561690775E+00 -0.33500044392E-01  0.88841535498E+00  0.88000000000E+00 0.  1.
        -11    1    4    4    0    0  0.83623065434E-02  0.64601299274E-01  0.28204866273E-01  0.70986136964E-01  0.51100000000E-03 0. -1.
         11    1    4    4    0    0 -0.14654604846E-01  0.51220153245E-01  0.26405103359E-01  0.59462190895E-01  0.51100000000E-03 0.  1.
</event>
<event>
 8    1  0.1132255E+005  0.1043930E+01  0.7957747E-01            NaN
         13   -1    0    0    0    0  0.00000000000E+00  0.00000000000E+00  0.74505805969E-08  0.10566000000E+00  0.10566000000E+00 0. -1.
     999900   -1    0    0    0    0 -0.00000000000E+00 -0.00000000000E+00 -0.74505805969E-08  0.93827000000E+00  0.93827000000E+00 0. -1.
     999902    2    1    2    0    0 -0.39687790617E-02  0.17476999372E-01  0.16587565919E-01  0.10195098432E+01  0.10192173352E+01 0.  0.
     999903    2    3    3    0    0  0.76193222190E-02 -0.10113230257E+00  0.77491033865E-01  0.12939092812E+00  0.21245123139E-01 0.  0.
         14    1    1    2    0    0  0.39687790617E-02 -0.17476999372E-01 -0.16587565919E-01  0.24420156785E-01  0.00000000000E+00 0.  1.
     999901    1    3    3    0    0 -0.11588101281E-01  0.11860930194E+00 -0.60903467947E-01  0.89011891509E+00  0.88000000000E+00 0. -1.
        -11    1    4    4    0    0 -0.48576998299E-02 -0.38369216170E-01  0.20899659388E-01  0.43964199990E-01  0.51100000000E-03 0.  1.
         11    1    4    4    0    0  0.12477022049E-01 -0.62763086397E-01  0.56591374477E-01  0.85426728133E-01  0.51100000000E-03 0. -1.
</event>
<event>
 8    1  0.1132255E+005  0.1043930E+01  0.7957747E-01            NaN
         13   -1    0    0    0    0  0.00000000000E+00  0.00000000000E+00  0.74505805969E-08  0.10566000000E+00  0.10566000000E+00 0.  1.
     999900   -1    0    0    0    0 -0.00000000000E+00 -0.00000000000E+00 -0.74505805969E-08  0.93827000000E+00  0.93827000000E+00 0. -1.
     999902    2    1    2    0    0 -0.15412655739E-02 -0.42953262030E-02  0.23259091160E-01  0.10202274548E+01  0.10199520817E+01 0.  0.
     999903    2    3    3    0    0 -0.74268111987E-01  0.10534239036E-01  0.10759175109E+00  0.13308535361E+00  0.22561112428E-01 0.  0.
         14    1    1    2    0    0  0.15412655739E-02  0.42953262030E-02 -0.23259091160E-01  0.23702545187E-01  0.00000000000E+00 0. -1.
     999901    1    3    3    0    0  0.72726846413E-01 -0.14829565239E-01 -0.84332659926E-01  0.88714210120E+00  0.88000000000E+00 0. -1.
        -11    1    4    4    0    0 -0.56231396792E-01  0.57586375692E-02  0.95079875122E-01  0.11061453641E+00  0.51100000000E-03 0. -1.
         11    1    4    4    0    0 -0.18036715195E-01  0.47756014669E-02  0.12511875964E-01  0.22470817197E-01  0.51100000000E-03 0.  1.
</event>
<event>
 8    1  0.1132255E+005  0.1043930E+01  0.7957747E-01            NaN
         13   -1    0    0    0    0  0.00000000000E+00  0.00000000000E+00  0.74505805969E-08  0.10566000000E+00  0.10566000000E+00 0.  1.
     999900   -1    0    0    0    0 -0.00000000000E+00 -0.00000000000E+00 -0.74505805969E-08  0.93827000000E+00  0.93827000000E+00 0. -1.
     999902    2    1    2    0    0  0.22133958583E-01 -0.19026167380E-02 -0.56258710133E-02  0.10210131394E+01  0.10207559201E+01 0.  0.
     999903    2    3    3    0    0  0.10595712827E-01 -0.85986400188E-01 -0.97774010659E-01  0.13214054262E+00  0.19885564991E-01 0.  0.
         14    1    1    2    0    0 -0.22133958583E-01  0.19026167380E-02  0.56258710133E-02  0.22916860554E-01  0.00000000000E+00 0.  1.
     999901    1    3    3    0    0  0.11538245756E-01  0.84083783450E-01  0.92148139646E-01  0.88887259683E+00  0.88000000000E+00 0.  1.
        -11    1    4    4    0    0  0.53027072215E-02 -0.32828961905E-01 -0.23818015252E-01  0.40907437162E-01  0.51100000000E-03 0. -1.
         11    1    4    4    0    0  0.52930056055E-02 -0.53157438283E-01 -0.73955995407E-01  0.91233105454E-01  0.51100000000E-03 0.  1.
</event>
<event>
 8    1  0.1132255E+005  0.1043930E+01  0.7957747E-01            NaN
         13   -1    0    0    0    0  0.00000000000E+00  0.00000000000E+00  0.74505805969E-08  0.10566000000E+00  0.10566000000E+00 0. -1.
     999900   -1    0    0    0    0 -0.00000000000E+00 -0.00000000000E+00 -0.74505805969E-08  0.93827000000E+00  0.93827000000E+00 0.  1.
     999902    2    1    2    0    0  0.62996995110E-02  0.17770284475E-01 -0.14099176396E-01  0.10203873579E+01  0.10201157307E+01 0.  0.
     999903    2    3    3    0    0  0.89692361901E-01  0.94822555058E-01 -0.13224256246E-01  0.13309250605E+00  0.22420916205E-01 0.  0.
         14    1    1    2    0    0 -0.62996995110E-02 -0.17770284475E-01  0.14099176396E-01  0.23542642147E-01  0.00000000000E+00 0. -1.
     999901    1    3    3    0    0 -0.83392662390E-01 -0.77052270583E-01 -0.87492015042E-03  0.88729485180E+00  0.88000000000E+00 0. -1.
        -11    1    4    4    0    0  0.52323733055E-01  0.45395908635E-01  0.19332603345E-02  0.69300506334E-01  0.51100000000E-03 0.  1.
         11    1    4    4    0    0  0.37368628846E-01  0.49426646423E-01 -0.15157516580E-01  0.63791999720E-01  0.51100000000E-03 0. -1.
</event>
<event>
 8    1  0.1132255E+005  0.1043930E+01  0.7957747E-01            NaN
         13   -1    0    0    0    0  0.00000000000E+00  0.00000000000E+00  0.74505805969E-08  0.10566000000E+00  0.10566000000E+00 0. -1.
     999900   -1    0    0    0    0 -0.00000000000E+00 -0.00000000000E+00 -0.74505805969E-08  0.93827000000E+00  0.93827000000E+00 0. -1.
     999902    2    1    2    0    0 -0.17677577064E-01 -0.15029751577E-01 -0.57032843969E-02  0.10200361176E+01  0.10197562275E+01 0.  0.
     999903    2    3    3    0    0  0.10060052505E+00 -0.68914256661E-01 -0.39684988515E-01  0.12984063034E+00  0.20348232372E-01 0.  0.
         14    1    1    2    0    0  0.17677577064E-01  0.15029751577E-01  0.57032843969E-02  0.23893882402E-01  0.00000000000E+00 0. -1.
     999901    1    3    3    0    0 -0.11827810212E+00  0.53884505084E-01  0.33981704118E-01  0.89019548726E+00  0.88000000000E+00 0.  1.
        -11    1    4    4    0    0  0.58845175587E-01 -0.50819533910E-01 -0.20201941733E-01  0.80335292913E-01  0.51100000000E-03 0. -1.
         11    1    4    4    0    0  0.41755349465E-01 -0.18094722751E-01 -0.19483046782E-01  0.49505337422E-01  0.51100000000E-03 0.  1.
</event>
<event>
 8    1  0.1132255E+005  0.1043930E+01  0.7957747E-01            NaN
         13   -1    0    0    0    0  0.00000000000E+00  0.00000000000E+00  0.74505805969E-08  0.10566000000E+00  0.10566000000E+00 0.  1.
     999900   -1    0    0    0    0 -0.00000000000E+00 -0.00000000000E+00 -0.74505805969E-08  0.93827000000E+00  0.93827000000E+00 0.  1.
     999902    2    1    2    0    0  0.19804153044E-01 -0.11985396199E-01 -0.39808275402E-02  0.10204416798E+01  0.10201713192E+01 0.  0.
     999903    2    3    3    0    0 -0.11611215790E+00 -0.49500087020E-01  0.14791598329E-01  0.12901978213E+00  0.22249066730E-01 0.  0.
         14    1    1    2    0    0 -0.19804153044E-01  0.11985396199E-01  0.39808275402E-02  0.23488320241E-01  0.00000000000E+00 0.  1.
     999901    1    3    3    0    0  0.13591631095E+00  0.37514690821E-01 -0.18772425869E-01  0.89142189763E+00  0.88000000000E+00 0. -1.
        -11    1    4    4    0    0 -0.87490871951E-01 -0.29696924395E-01  0.36310919865E-02  0.92466242182E-01  0.51100000000E-03 0.  1.
         11    1    4    4    0    0 -0.28621285953E-01 -0.19803162624E-01  0.11160506342E-01  0.36553539943E-01  0.51100000000E-03 0. -1.
</event>
<event>
 8    1  0.1132255E+005  0.1043930E+01  0.7957747E-01            NaN
         13   -1    0    0    0    0  0.00000000000E+00  0.00000000000E+00  0.74505805969E-08  0.10566000000E+00  0.10566000000E+00 0. -1.
     999900   -1    0    0    0    0 -0.00000000000E+00 -0.00000000000E+00 -0.74505805969E-08  0.93827000000E+00  0.93827000000E+00 0. -1.
     999902    2    1    2    0    0 -0.20367192225E-01 -0.83367251874E-02 -0.91537781370E-02  0.10200948335E+01  0.10198163336E+01 0.  0.
     999903    2    3    3    0    0  0.76561453696E-01  0.11363771890E-01  0.99826679068E-01  0.12787288131E+00  0.19882565677E-01 0.  0.
         14    1    1    2    0    0  0.20367192225E-01  0.83367251874E-02  0.91537781370E-02  0.23835166459E-01  0.00000000000E+00 0. -1.
     999901    1    3    3    0    0 -0.96928645921E-01 -0.19700497078E-01 -0.10898045720E+00  0.89222195223E+00  0.88000000000E+00 0. -1.
        -11    1    4    4    0    0  0.37465978056E-01  0.11254611212E-01  0.63011188825E-01  0.74168974803E-01  0.51100000000E-03 0. -1.
         11    1    4    4    0    0  0.39095475640E-01  0.10916067838E-03  0.36815490243E-01  0.53703906509E-01  0.51100000000E-03 0.  1.
</event>
<event>
 8    1  0.1132255E+005  0.1043930E+01  0.7957747E-01            NaN
         13   -1    0    0    0    0  0.00000000000E+00  0.00000000000E+00  0.74505805969E-08  0.10566000000E+00  0.10566000000E+00 0. -1.
     999900   -1    0    0    0    0 -0.00000000000E+00 -0.00000000000E+00 -0.74505805969E-08  0.93827000000E+00  0.93827000000E+00 0. -1.
     999902    2    1    2    0    0 -0.21818293842E-01  0.57741124466E-03 -0.12530496305E-01  0.10187628649E+01  0.10184519578E+01 0.  0.
     999903    2    3    3    0    0  0.66474772388E-01 -0.98584604753E-01  0.40607815582E-01  0.12721788505E+00  0.19939306208E-01 0.  0.
         14    1    1    2    0    0  0.21818293842E-01 -0.57741124466E-03  0.12530496305E-01  0.25167135068E-01  0.00000000000E+00 0. -1.
     999901    1    3    3    0    0 -0.88293066229E-01  0.99162015998E-01 -0.53138311886E-01  0.89154497988E+00  0.88000000000E+00 0. -1.
        -11    1    4    4    0    0  0.22262763453E-01 -0.47150676547E-01  0.11435105132E-01  0.53383889759E-01  0.51100000000E-03 0. -1.
         11    1    4    4    0    0  0.44212008934E-01 -0.51433928207E-01  0.29172710449E-01  0.73833995292E-01  0.51100000000E-03 0.  1.
</event>
<event>
 8    1  0.1132255E+005  0.1043930E+01  0.7957747E-01            NaN
         13   -1    0    0    0    0  0.00000000000E+00  0.00000000000E+00  0.74505805969E-08  0.10566000000E+00  0.10566000000E+00 0.  1.
     999900   -1    0    0    0    0 -0.00000000000E+00 -0.00000000000E+00 -0.74505805969E-08  0.93827000000E+00  0.93827000000E+00 0.  1.
     999902    2    1    2    0    0  0.54373423103E-02 -0.12151579725E-01 -0.19694189163E-01  0.10201584483E+01  0.10198814505E+01 0.  0.
     999903    2    3    3    0    0 -0.55176259425E-01 -0.85499839430E-01  0.77825475080E-01  0.12967315322E+00  0.20091788092E-01 0.  0.
         14    1    1    2    0    0 -0.54373423103E-02  0.12151579725E-01  0.19694189163E-01  0.23771551653E-01  0.00000000000E+00 0.  1.
     999901    1    3    3    0    0  0.60613601735E-01  0.73348259705E-01 -0.97519664243E-01  0.89048529512E+00  0.88000000000E+00 0.  1.
        -11    1    4    4    0    0 -0.14565522553E-01 -0.28840388331E-01  0.36004302451E-01  0.48378645727E-01  0.51100000000E-03 0.  1.
         11    1    4    4    0    0 -0.40610736871E-01 -0.56659451099E-01  0.41821172629E-01  0.81294507497E-01  0.51100000000E-03 0. -1.
</event>
<event>
 8    1  0.1132255E+005  0.1043930E+01  0.7957747E-01            NaN
         13   -1    0    0    0    0  0.00000000000E+00  0.00000000000E+00  0.74505805969E-08  0.10566000000E+00  0.10566000000E+00 0. -1.
     999900   -1    0    0    0    0 -0.00000000000E+00 -0.00000000000E+00 -0.74505805969E-08  0.93827000000E+00  0.93827000000E+00 0.  1.
     999902    2    1    2    0    0 -0.42810134091E-02  0.13287684359E-01  0.20655177053E-01  0.10189995774E+01  0.10186945631E+01 0.  0.
     999903    2    3    3    0    0 -0.40668425209E-01  0.74253353322E-01  0.10036848198E+00  0.13254875107E+00  0.18106848067E-01 0.  0.
         14    1    1    2    0    0  0.42810134091E-02 -0.13287684359E-01 -0.20655177053E-01  0.24930422591E-01  0.00000000000E+00 0.  1.
     999901    1    3    3    0    0  0.36387411800E-01 -0.60965668963E-01 -0.79713304929E-01  0.88645082634E+00  0.88000000000E+00 0.  1.
        -11    1    4    4    0    0 -0.66420888876E-02  0.28450270009E-01  0.28927446396E-01  0.41116827265E-01  0.51100000000E-03 0. -1.
         11    1    4    4    0    0 -0.34026336321E-01  0.45803083313E-01  0.71441035587E-01  0.91431923808E-01  0.51100000000E-03 0.  1.
</event>
<event>
 8    1  0.1132255E+005  0.1043930E+01  0.7957747E-01            NaN
         13   -1    0    0    0    0  0.00000000000E+00  0.00000000000E+00  0.74505805969E-08  0.10566000000E+00  0.10566000000E+00 0.  1.
     999900   -1    0    0    0    0 -0.00000000000E+00 -0.00000000000E+00 -0.74505805969E-08  0.93827000000E+00  0.93827000000E+00 0. -1.
     999902    2    1    2    0    0 -0.22149278100E-01 -0.61544477403E-02  0.22233937115E-02  0.10208343028E+01  0.10205730070E+01 0.  0.
     999903    2    3    3    0    0 -0.77775808434E-01  0.97146094482E-01  0.35851875866E-01  0.13241087468E+00  0.27583376886E-01 0.  0.
         14    1    1    2    0    0  0.22149278100E-01  0.61544477403E-02 -0.22233937115E-02  0.23095697152E-01  0.00000000000E+00 0. -1.
     999901    1    3    3    0    0  0.55626530334E-01 -0.10330054222E+00 -0.33628482154E-01  0.88842342817E+00  0.88000000000E+00 0.  1.
        -11    1    4    4    0    0 -0.40349071690E-01  0.64022675434E-01  0.32361836807E-01  0.82307351789E-01  0.51100000000E-03 0.  1.
         11    1    4    4    0    0 -0.37426736744E-01  0.33123419048E-01  0.34900390588E-02  0.50103522894E-01  0.51100000000E-03 0. -1.
</event>
<event>
 8    1  0.1132255E+005  0.1043930E+01  0.7957747E-01            NaN
         13   -1    0    0    0    0  0.00000000000E+00  0.00000000000E+00  0.74505805969E-08  0.10566000000E+00  0.10566000000E+00 0. -1.
     999900   -1    0    0    0    0 -0.00000000000E+00 -0.00000000000E+00 -0.74505805969E-08  0.93827000000E+00  0.93827000000E+00 0. -1.
     999902    2    1    2    0    0 -0.14429185229E-01 -0.65314097016E-02  0.21720791693E-01  0.10170477849E+01  0.10166924526E+01 0.  0.
     999903    2    3    3    0    0  0.56019340179E-01  0.35075841141E-01 -0.10343281953E+00  0.12443499957E+00  0.20426449912E-01 0.  0.
         14    1    1    2    0    0  0.14429185229E-01  0.65314097016E-02 -0.21720791693E-01  0.26882215140E-01  0.00000000000E+00 0.  1.
     999901    1    3    3    0    0 -0.70448525409E-01 -0.41607250843E-01  0.12515361123E+00  0.89261278529E+00  0.88000000000E+00 0.  1.
        -11    1    4    4    0    0  0.21630358952E-01  0.17610568082E-01 -0.27016269592E-01  0.38834835911E-01  0.51100000000E-03 0. -1.
         11    1    4    4    0    0  0.34388981227E-01  0.17465273060E-01 -0.76416549942E-01  0.85600163662E-01  0.51100000000E-03 0.  1.
</event>
<event>
 8    1  0.1132255E+005  0.1043930E+01  0.7957747E-01            NaN
         13   -1    0    0    0    0  0.00000000000E+00  0.00000000000E+00  0.74505805969E-08  0.10566000000E+00  0.10566000000E+00 0. -1.
     999900   -1    0    0    0    0 -0.00000000000E+00 -0.00000000000E+00 -0.74505805969E-08  0.93827000000E+00  0.93827000000E+00 0.  1.
     999902    2    1    2    0    0 -0.24832174598E-01 -0.72800661444E-02  0.14639766037E-01  0.10141985519E+01  0.10137626663E+01 0.  0.
     999903    2    3    3    0    0 -0.89128095192E-01  0.87442217127E-01  0.90021758613E-02  0.12676514097E+00  0.19960037745E-01 0.  0.
         14    1    1    2    0    0  0.24832174598E-01  0.72800661444E-02 -0.14639766037E-01  0.29731448131E-01  0.00000000000E+00 0. -1.
     999901    1    3    3    0    0  0.64295920594E-01 -0.94722283271E-01  0.56375901753E-02  0.88743341090E+00  0.88000000000E+00 0. -1.
        -11    1    4    4    0    0 -0.30966588272E-01  0.44185960809E-01  0.40341054717E-02  0.54109738955E-01  0.51100000000E-03 0. -1.
         11    1    4    4    0    0 -0.58161506921E-01  0.43256256318E-01  0.49680703896E-02  0.72655402017E-01  0.51100000000E-03 0.  1.
</event>
<event>
 8    1  0.1132255E+005  0.1043930E+01  0.7957747E-01            NaN
         13   -1    0    0    0    0  0.00000000000E+00  0.00000000000E+00  0.74505805969E-08  0.10566000000E+00  0.10566000000E+00 0. -1.
     999900   -1    0    0    0    0 -0.00000000000E+00 -0.00000000000E+00 -0.74505805969E-08  0.93827000000E+00  0.93827000000E+00 0.  1.
     999902    2    1    2    0    0  0.90947362904E-02 -0.23046777999E-01  0.28881041184E-02  0.10189858754E+01  0.10186805216E+01 0.  0.
     999903    2    3    3    0    0  0.19265633405E-01 -0.85473706879E-01  0.96100757483E-01  0.13180541616E+00  0.21456769132E-01 0.  0.
         14    1    1    2    0    0 -0.90947362904E-02  0.23046777999E-01 -0.28881041184E-02  0.24944124553E-01  0.00000000000E+00 0. -1.
     999901    1    3    3    0    0 -0.10170897115E-01  0.62426928881E-01 -0.93212653364E-01  0.88718045929E+00  0.88000000000E+00 0.  1.
        -11    1    4    4    0    0  0.16717647522E-01 -0.48967989866E-01  0.42815682772E-01  0.67162397086E-01  0.51100000000E-03 0. -1.
         11    1    4    4    0    0  0.25479858831E-02 -0.36505717014E-01  0.53285074711E-01  0.64643019071E-01  0.51100000000E-03 0.  1.
</event>
<event>
 8    1  0.1132255E+005  0.1043930E+01  0.7957747E-01            NaN
         13   -1    0    0    0    0  0.00000000000E+00  0.00000000000E+00  0.74505805969E-08  0.10566000000E+00  0.10566000000E+00 0. -1.
     999900   -1    0    0    0    0 -0.00000000000E+00 -0.00000000000E+00 -0.74505805969E-08  0.93827000000E+00  0.93827000000E+00 0.  1.
     999902    2    1    2    0    0 -0.37297888778E-02 -0.73358621579E-02  0.23142383353E-01  0.10193679132E+01  0.10190719535E+01 0.  0.
     999903    2    3    3    0    0 -0.69908183118E-01  0.10015289336E+00 -0.34507913801E-01  0.12849364086E+00  0.20051521407E-01 0.  0.
         14    1    1    2    0    0  0.37297888778E-02  0.73358621579E-02 -0.23142383353E-01  0.24562086758E-01  0.00000000000E+00 0.  1.
     999901    1    3    3    0    0  0.66178394240E-01 -0.10748875552E+00  0.57650297154E-01  0.89087427238E+00  0.88000000000E+00 0. -1.
        -11    1    4    4    0    0 -0.30954953949E-01  0.27992301193E-01 -0.10285982173E-01  0.42986517076E-01  0.51100000000E-03 0.  1.
         11    1    4    4    0    0 -0.38953229169E-01  0.72160592171E-01 -0.24221931627E-01  0.85507123785E-01  0.51100000000E-03 0. -1.
</event>
<event>
 8    1  0.1132255E+005  0.1043930E+01  0.7957747E-01            NaN
         13   -1    0    0    0    0  0.00000000000E+00  0.00000000000E+00  0.74505805969E-08  0.10566000000E+00  0.10566000000E+00 0.  1.
     999900   -1    0    0    0    0 -0.00000000000E+00 -0.00000000000E+00 -0.74505805969E-08  0.93827000000E+00  0.93827000000E+00 0.  1.
     999902    2    1    2    0    0  0.11872658282E-01  0.11072644184E-01 -0.17251029381E-01  0.10202411529E+01  0.10199661017E+01 0.  0.
     999903    2    3    3    0    0 -0.57973813499E-01 -0.11296396634E+00 -0.85586735987E-02  0.12875970750E+00  0.19595679099E-01 0.  0.
         14    1    1    2    0    0 -0.11872658282E-01 -0.11072644184E-01  0.17251029381E-01  0.23688847136E-01  0.00000000000E+00 0.  1.
     999901    1    3    3    0    0  0.69846471781E-01  0.12403661053E+00 -0.86923557823E-02  0.89148144536E+00  0.88000000000E+00 0. -1.
        -11    1    4    4    0    0 -0.18969008810E-01 -0.58323859195E-01 -0.47213182608E-02  0.61514614635E-01  0.51100000000E-03 0. -1.
         11    1    4    4    0    0 -0.39004804690E-01 -0.54640107148E-01 -0.38373553379E-02  0.67245092870E-01  0.51100000000E-03 0.  1.
</event>
<event>
 8    1  0.1132255E+005  0.1043930E+01  0.7957747E-01            NaN
         13   -1    0    0    0    0  0.00000000000E+00  0.00000000000E+00  0.74505805969E-08  0.10566000000E+00  0.10566000000E+00 0. -1.
     999900   -1    0    0    0    0 -0.00000000000E+00 -0.00000000000E+00 -0.74505805969E-08  0.93827000000E+00  0.93827000000E+00 0.  1.
     999902    2    1    2    0    0  0.22211357465E-01 -0.10994407380E-02 -0.46932401039E-02  0.10212016109E+01  0.10209486522E+01 0.  0.
     999903    2    3    3    0    0  0.14024303857E-01  0.81362159520E-01 -0.10120922463E+00  0.13205467214E+00  0.19458858713E-01 0.  0.
         14    1    1    2    0    0 -0.22211357465E-01  0.10994407380E-02  0.46932401039E-02  0.22728389144E-01  0.00000000000E+00 0.  1.
     999901    1    3    3    0    0  0.81870536081E-02 -0.82461600258E-01  0.96515984528E-01  0.88914693872E+00  0.88000000000E+00 0. -1.
        -11    1    4    4    0    0 -0.23096424951E-02  0.34244082160E-01 -0.33522067722E-01  0.47978972027E-01  0.51100000000E-03 0. -1.
         11    1    4    4    0    0  0.16333946352E-01  0.47118077360E-01 -0.67687156910E-01  0.84075700111E-01  0.51100000000E-03 0.  1.
</event>
<event>
 8    1  0.1132255E+005  0.1043930E+01  0.7957747E-01            NaN
         13   -1    0    0    0    0  0.00000000000E+00  0.00000000000E+00  0.74505805969E-08  0.10566000000E+00  0.10566000000E+00 0.  1.
     999900   -1    0    0    0    0 -0.00000000000E+00 -0.00000000000E+00 -0.74505805969E-08  0.93827000000E+00  0.93827000000E+00 0.  1.
     999902    2    1    2    0    0  0.71331358256E-02 -0.19792939084E-01 -0.83872335135E-02  0.10212807671E+01  0.10210295870E+01 0.  0.
     999903    2    3    3    0    0 -0.41685135151E-01 -0.12512732101E+00 -0.49059988339E-02  0.13364870675E+00  0.21057327320E-01 0.  0.
         14    1    1    2    0    0 -0.71331358256E-02  0.19792939084E-01  0.83872335135E-02  0.22649232886E-01  0.00000000000E+00 0.  1.
     999901    1    3    3    0    0  0.48818270976E-01  0.10533438193E+00 -0.34812346796E-02  0.88763206037E+00  0.88000000000E+00 0.  1.
        -11    1    4    4    0    0 -0.15036136915E-01 -0.33782009079E-01  0.73625407748E-02  0.37706467328E-01  0.51100000000E-03 0.  1.
         11    1    4    4    0    0 -0.26648998236E-01 -0.91345311935E-01 -0.12268539609E-01  0.95942239418E-01  0.51100000000E-03 0. -1.
</event>
<event>
 8    1  0.1132255E+005  0.1043930E+01  0.7957747E-01            NaN
         13   -1    0    0    0    0  0.00000000000E+00  0.00000000000E+00  0.74505805969E-08  0.10566000000E+00  0.10566000000E+00 0. -1.
     999900   -1    0    0    0    0 -0.00000000000E+00 -0.00000000000E+00 -0.74505805969E-08  0.93827000000E+00  0.93827000000E+00 0.  1.
     999902    2    1    2    0    0  0.20900051412E-01  0.10258788922E-01 -0.11542172022E-02  0.10206193347E+01  0.10203530954E+01 0.  0.
     999903    2    3    3    0    0  0.11631928446E+00 -0.75231569146E-02 -0.60416485906E-01  0.13330144120E+00  0.23072681464E-01 0.  0.
         14    1    1    2    0    0 -0.20900051412E-01 -0.10258788922E-01  0.11542172022E-02  0.23310665295E-01  0.00000000000E+00 0. -1.
     999901    1    3    3    0    0 -0.95419233052E-01  0.17781945836E-01  0.59262268704E-01  0.88731789350E+00  0.88000000000E+00 0. -1.
        -11    1    4    4    0    0  0.73046458147E-01  0.49175229596E-02 -0.30939044985E-01  0.79482405005E-01  0.51100000000E-03 0.  1.
         11    1    4    4    0    0  0.43272826317E-01 -0.12440679874E-01 -0.29477440921E-01  0.53819036199E-01  0.51100000000E-03 0. -1.
</event>
<event>
 7    1  0.1132255E+005  0.1043930E+01  0.7957747E-01            NaN
         13   -1    0    0    0    0  0.00000000000E+00  0.00000000000E+00  0.74505805969E-08  0.10566000000E+00  0.10566000000E+00 0.  1.
     999900   -1    0    0    0    0 -0.00000000000E+00 -0.00000000000E+00 -0.74505805969E-08  0.93827000000E+00  0.93827000000E+00 0.  1.
     999903    2    1    2    0    0  0.32790586809E-01  0.10306178330E+00  0.29566090459E-01  0.11398857465E+00  0.20549639511E-01 0.  0.
         14    1    1    2    0    0 -0.91685714926E-02 -0.11536447664E-01 -0.42294174709E-01  0.44787828059E-01  0.00000000000E+00 0. -1.
     999901    1    1    2    0    0 -0.23622015316E-01 -0.91525335641E-01  0.12728084251E-01  0.88515359729E+00  0.88000000000E+00 0.  1.
        -11    1    3    3    0    0  0.68360270900E-02  0.37546092495E-01  0.19314217166E-01  0.42775465325E-01  0.51100000000E-03 0. -1.
         11    1    3    3    0    0  0.25954559719E-01  0.65515690810E-01  0.10251873293E-01  0.71213109323E-01  0.51100000000E-03 0.  1.
</event>
<event>
 8    1  0.1132255E+005  0.1043930E+01  0.7957747E-01            NaN
         13   -1    0    0    0    0  0.00000000000E+00  0.00000000000E+00  0.74505805969E-08  0.10566000000E+00  0.10566000000E+00 0. -1.
     999900   -1    0    0    0    0 -0.00000000000E+00 -0.00000000000E+00 -0.74505805969E-08  0.93827000000E+00  0.93827000000E+00 0. -1.
     999902    2    1    2    0    0  0.18653868844E-01 -0.11739934560E-01  0.92439247519E-02  0.10200293090E+01  0.10197492575E+01 0.  0.
     999903    2    3    3    0    0 -0.12357325152E+00  0.25999963962E-01  0.47068419925E-03  0.12776823538E+00  0.19446177307E-01 0.  0.
         14    1    1    2    0    0 -0.18653868844E-01  0.11739934560E-01 -0.92439247519E-02  0.23900691018E-01  0.00000000000E+00 0.  1.
     999901    1    3    3    0    0  0.14222712037E+00 -0.37739898522E-01  0.87732405526E-02  0.89226107360E+00  0.88000000000E+00 0.  1.
        -11    1    4    4    0    0 -0.68191554844E-01  0.22735116101E-01  0.52977788550E-02  0.72078438094E-01  0.51100000000E-03 0.  1.
         11    1    4    4    0    0 -0.55381696677E-01  0.32648478604E-02 -0.48270946557E-02  0.55689797290E-01  0.51100000000E-03 0. -1.
</event>
<event>
 8    1  0.1132255E+005  0.1043930E+01  0.7957747E-01            NaN
         13   -1    0    0    0    0  0.00000000000E+00  0.00000000000E+00  0.74505805969E-08  0.10566000000E+00  0.10566000000E+00 0. -1.
     999900   -1    0    0    0    0 -0.00000000000E+00 -0.00000000000E+00 -0.74505805969E-08  0.93827000000E+00  0.93827000000E+00 0.  1.
     999902    2    1    2    0    0  0.13892625302E-01 -0.40919419928E-02  0.19280058932E-01  0.10198163172E+01  0.10195311918E+01 0.  0.
     999903    2    3    3    0    0  0.12580059654E+00 -0.31242003729E-01 -0.10451908354E-01  0.13181603015E+00  0.21549258181E-01 0.  0.
         14    1    1    2    0    0 -0.13892625302E-01  0.40919419928E-02 -0.19280058932E-01  0.24113682827E-01  0.00000000000E+00 0.  1.
     999901    1    3    3    0    0 -0.11190797124E+00  0.27150061736E-01  0.29731967286E-01  0.88800028703E+00  0.88000000000E+00 0. -1.
        -11    1    4    4    0    0  0.17954087049E-01 -0.11424459632E-01 -0.58053281215E-02  0.22064235206E-01  0.51100000000E-03 0.  1.
         11    1    4    4    0    0  0.10784650949E+00 -0.19817544097E-01 -0.46465802324E-02  0.10975179494E+00  0.51100000000E-03 0. -1.
</event>
<event>
 8    1  0.1132255E+005  0.1043930E+01  0.7957747E-01            NaN
         13   -1    0    0    0    0  0.00000000000E+00  0.00000000000E+00  0.74505805969E-08  0.10566000000E+00  0.10566000000E+00 0. -1.
     999900   -1    0    0    0    0 -0.00000000000E+00 -0.00000000000E+00 -0.74505805969E-08  0.93827000000E+00  0.93827000000E+00 0. -1.
     999902    2    1    2    0    0 -0.68510008617E-02 -0.20691537231E-01  0.10030229604E-01  0.10199366378E+01  0.10196543844E+01 0.  0.
     999903    2    3    3    0    0 -0.51090880913E-01 -0.11683512821E+00 -0.31600385271E-01  0.13261828160E+00  0.18119022319E-01 0.  0.
         14    1    1    2    0    0  0.68510008617E-02  0.20691537231E-01 -0.10030229604E-01  0.23993362243E-01  0.00000000000E+00 0. -1.
     999901    1    3    3    0    0  0.44239880051E-01  0.96143590979E-01  0.41630614876E-01  0.88731835615E+00  0.88000000000E+00 0.  1.
        -11    1    4    4    0    0 -0.42951528882E-01 -0.10861708342E+00 -0.31745879738E-01  0.12103952514E+00  0.51100000000E-03 0.  1.
         11    1    4    4    0    0 -0.81393520308E-02 -0.82180447862E-02  0.14549446703E-03  0.11578756463E-01  0.51100000000E-03 0. -1.
</event>
<event>
 8    1  0.1132255E+005  0.1043930E+01  0.7957747E-01            NaN
         13   -1    0    0    0    0  0.00000000000E+00  0.00000000000E+00  0.74505805969E-08  0.10566000000E+00  0.10566000000E+00 0.  1.
     999900   -1    0    0    0    0 -0.00000000000E+00 -0.00000000000E+00 -0.74505805969E-08  0.93827000000E+00  0.93827000000E+00 0.  1.
     999902    2    1    2    0    0  0.19630958996E-01  0.39265684349E-02  0.12293206216E-01  0.10204371200E+01  0.10201666533E+01 0.  0.
     999903    2    3    3    0    0  0.66164647961E-02 -0.44673953743E-01 -0.11937274739E+00  0.12922036122E+00  0.20211610178E-01 0.  0.
         14    1    1    2    0    0 -0.19630958996E-01 -0.39265684349E-02 -0.12293206216E-01  0.23492879982E-01  0.00000000000E+00 0. -1.
     999901    1    3    3    0    0  0.13014494200E-01  0.48600522178E-01  0.13166595361E+00  0.89121675879E+00  0.88000000000E+00 0. -1.
        -11    1    4    4    0    0  0.93499353598E-02 -0.42881175543E-01 -0.95305072123E-01  0.10492632844E+00  0.51100000000E-03 0.  1.
         11    1    4    4    0    0 -0.27334705637E-02 -0.17927781997E-02 -0.24067675267E-01  0.24294032781E-01  0.51100000000E-03 0. -1.
</event>
<event>
 8    1  0.1132255E+005  0.1043930E+01  0.7957747E-01            NaN
         13   -1    0    0    0    0  0.00000000000E+00  0.00000000000E+00  0.74505805969E-08  0.10566000000E+00  0.10566000000E+00 0. -1.
     999900   -1    0    0    0    0 -0.00000000000E+00 -0.00000000000E+00 -0.74505805969E-08  0.93827000000E+00  0.93827000000E+00 0. -1.
     999902    2    1    2    0    0  0.29394336050E-02 -0.23169585600E-01  0.42005445876E-03  0.10205709244E+01  0.10203035653E+01 0.  0.
     999903    2    3    3    0    0  0.88307677733E-02 -0.11405403761E+00  0.65834126120E-01  0.13345554735E+00  0.19747025160E-01 0.  0.
         14    1    1    2    0    0 -0.29394336050E-02  0.23169585600E-01 -0.42005445876E-03  0.23359075592E-01  0.00000000000E+00 0.  1.
     999901    1    3    3    0    0 -0.58913341683E-02  0.90884452011E-01 -0.65414071661E-01  0.88711537705E+00  0.88000000000E+00 0. -1.
        -11    1    4    4    0    0  0.26297160987E-02 -0.63849910172E-01  0.25698037884E-01  0.68879436030E-01  0.51100000000E-03 0. -1.
         11    1    4    4    0    0  0.62010516746E-02 -0.50204127438E-01  0.40136088236E-01  0.64576111323E-01  0.51100000000E-03 0.  1.
</event>
<event>
 8    1  0.1132255E+005  0.1043930E+01  0.7957747E-01            NaN
         13   -1    0    0    0    0  0.00000000000E+00  0.00000000000E+00  0.74505805969E-08  0.10566000000E+00  0.10566000000E+00 0. -1.
     999900   -1    0    0    0    0 -0.00000000000E+00 -0.00000000000E+00 -0.74505805969E-08  0.93827000000E+00  0.93827000000E+00 0.  1.
     999902    2    1    2    0    0 -0.98339835373E-02 -0.61027528856E-02  0.21821288026E-01  0.10192294041E+01  0.10189300559E+01 0.  0.
     999903    2    3    3    0    0 -0.87340380965E-01 -0.82297824262E-01  0.51252415649E-01  0.13205460635E+00  0.20256725405E-01 0.  0.
         14    1    1    2    0    0  0.98339835373E-02  0.61027528856E-02 -0.21821288026E-01  0.24700595865E-01  0.00000000000E+00 0.  1.
     999901    1    3    3    0    0  0.77506397428E-01  0.76195071376E-01 -0.29431127623E-01  0.88717479778E+00  0.88000000000E+00 0.  1.
        -11    1    4    4    0    0 -0.24533693443E-01 -0.33895795637E-01  0.11747004775E-01  0.43463551604E-01  0.51100000000E-03 0. -1.
         11    1    4    4    0    0 -0.62806687522E-01 -0.48402028624E-01  0.39505410873E-01  0.88591054750E-01  0.51100000000E-03 0.  1.
</event>
<event>
 8    1  0.1132255E+005  0.1043930E+01  0.7957747E-01            NaN
         13   -1    0    0    0    0  0.00000000000E+00  0.00000000000E+00  0.74505805969E-08  0.10566000000E+00  0.10566000000E+00 0. -1.
     999900   -1    0    0    0    0 -0.00000000000E+00 -0.00000000000E+00 -0.74505805969E-08  0.93827000000E+00  0.93827000000E+00 0.  1.
     999902    2    1    2    0    0  0.23532160494E-02  0.23564222544E-01  0.51040687472E-03  0.10202430685E+01  0.10199680623E+01 0.  0.
     999903    2    3    3    0    0  0.86405493935E-01  0.95087733589E-01  0.31055074866E-01  0.13282356520E+00  0.13042060285E-01 0.  0.
         14    1    1    2    0    0 -0.23532160494E-02 -0.23564222544E-01 -0.51040687472E-03  0.23686931524E-01  0.00000000000E+00 0. -1.
     999901    1    3    3    0    0 -0.84052277886E-01 -0.71523511045E-01 -0.30544667992E-01  0.88741950327E+00  0.88000000000E+00 0.  1.
        -11    1    4    4    0    0  0.20523462278E-01  0.28342234978E-01  0.12893201156E-01  0.37295985635E-01  0.51100000000E-03 0. -1.
         11    1    4    4    0    0  0.65882031657E-01  0.66745498611E-01  0.18161873710E-01  0.95527579566E-01  0.51100000000E-03 0.  1.
</event>
<event>
 8    1  0.1461942E+005  0.1043930E+01  0.7957747E-01            NaN
         13   -1    0    0    0    0  0.00000000000E+00  0.00000000000E+00  0.74505805969E-08  0.10566000000E+00  0.10566000000E+00 0.  1.
     999900   -1    0    0    0    0 -0.00000000000E+00 -0.00000000000E+00 -0.74505805969E-08  0.93827000000E+00  0.93827000000E+00 0.  1.
     999902    2    1    2    0    0 -0.20536729673E-04  0.23592725697E-01 -0.37091786473E-02  0.10200474722E+01  0.10197678512E+01 0.  0.
     999903    2    3    3    0    0  0.10233533916E+00  0.14718173198E-01 -0.78135169014E-01  0.13094977732E+00  0.18804076141E-01 0.  0.
         14    1    1    2    0    0  0.20536729673E-04 -0.23592725697E-01  0.37091786473E-02  0.23882527793E-01  0.00000000000E+00 0. -1.
     999901    1    3    3    0    0 -0.10235587589E+00  0.88745524991E-02  0.74425990367E-01  0.88909769489E+00  0.88000000000E+00 0. -1.
        -11    1    4    4    0    0  0.47482768211E-01  0.16304078255E-01 -0.37288831009E-01  0.62539221963E-01  0.51100000000E-03 0.  1.
         11    1    4    4    0    0  0.54852570951E-01 -0.15859050568E-02 -0.40846338005E-01  0.68410555357E-01  0.51100000000E-03 0. -1.
</event>
<event>
 8    1  0.1132255E+005  0.1043930E+01  0.7957747E-01            NaN
         13   -1    0    0    0    0  0.00000000000E+00  0.00000000000E+00  0.74505805969E-08  0.10566000000E+00  0.10566000000E+00 0.  1.
     999900   -1    0    0    0    0 -0.00000000000E+00 -0.00000000000E+00 -0.74505805969E-08  0.93827000000E+00  0.93827000000E+00 0. -1.
     999902    2    1    2    0    0 -0.57307804655E-02  0.19108633762E-01 -0.63139783649E-02  0.10230051810E+01  0.10227911577E+01 0.  0.
     999903    2    3    3    0    0  0.33929938031E-02 -0.66095250381E-01  0.11127174467E+00  0.13105823893E+00  0.20365812042E-01 0.  0.
         14    1    1    2    0    0  0.57307804655E-02 -0.19108633762E-01  0.63139783649E-02  0.20924819038E-01  0.00000000000E+00 0.  1.
     999901    1    3    3    0    0 -0.91237742686E-02  0.85203884143E-01 -0.11758572304E+00  0.89194694203E+00  0.88000000000E+00 0. -1.
        -11    1    4    4    0    0  0.11166172367E-01 -0.46802873490E-01  0.71697233917E-01  0.86347824782E-01  0.51100000000E-03 0. -1.
         11    1    4    4    0    0 -0.77731785640E-02 -0.19292376891E-01  0.39574510756E-01  0.44710414152E-01  0.51100000000E-03 0.  1.
</event>
<event>
 8    1  0.1132255E+005  0.1043930E+01  0.7957747E-01            NaN
         13   -1    0    0    0    0  0.00000000000E+00  0.00000000000E+00  0.74505805969E-08  0.10566000000E+00  0.10566000000E+00 0. -1.
     999900   -1    0    0    0    0 -0.00000000000E+00 -0.00000000000E+00 -0.74505805969E-08  0.93827000000E+00  0.93827000000E+00 0. -1.
     999902    2    1    2    0    0 -0.20286229726E-01  0.58488966877E-02 -0.11741298895E-01  0.10197722102E+01  0.10194860283E+01 0.  0.
     999903    2    3    3    0    0 -0.27114523991E-01 -0.78844967567E-01  0.96471875089E-01  0.12908159764E+00  0.20087554494E-01 0.  0.
         14    1    1    2    0    0  0.20286229726E-01 -0.58488966877E-02  0.11741298895E-01  0.24157789814E-01  0.00000000000E+00 0.  1.
     999901    1    3    3    0    0  0.68282942644E-02  0.84693864254E-01 -0.10821317398E+00  0.89069061254E+00  0.88000000000E+00 0. -1.
        -11    1    4    4    0    0 -0.15849545898E-01 -0.60840434210E-01  0.82199722788E-01  0.10348827029E+00  0.51100000000E-03 0. -1.
         11    1    4    4    0    0 -0.11264978093E-01 -0.18004533356E-01  0.14272152300E-01  0.25593327355E-01  0.51100000000E-03 0.  1.
</event>
<event>
 8    1  0.1132255E+005  0.1043930E+01  0.7957747E-01            NaN
         13   -1    0    0    0    0  0.00000000000E+00  0.00000000000E+00  0.74505805969E-08  0.10566000000E+00  0.10566000000E+00 0. -1.
     999900   -1    0    0    0    0 -0.00000000000E+00 -0.00000000000E+00 -0.74505805969E-08  0.93827000000E+00  0.93827000000E+00 0. -1.
     999902    2    1    2    0    0 -0.81545055119E-02 -0.13866305888E-01  0.14791851842E-01  0.10220766414E+01  0.10218429878E+01 0.  0.
     999903    2    3    3    0    0  0.12794487270E+00  0.11206279575E-01 -0.14559993223E-01  0.13077803486E+00  0.19885417948E-01 0.  0.
         14    1    1    2    0    0  0.81545055119E-02  0.13866305888E-01 -0.14791851842E-01  0.21853358553E-01  0.00000000000E+00 0. -1.
     999901    1    3    3    0    0 -0.13609937821E+00 -0.25072585463E-01  0.29351845066E-01  0.89129860659E+00  0.88000000000E+00 0.  1.
        -11    1    4    4    0    0  0.73070410526E-01  0.16201231260E-01 -0.93551960651E-02  0.75429076643E-01  0.51100000000E-03 0.  1.
         11    1    4    4    0    0  0.54874462176E-01 -0.49949516853E-02 -0.52047971584E-02  0.55348958219E-01  0.51100000000E-03 0. -1.
</event>
<event>
 8    1  0.1132255E+005  0.1043930E+01  0.7957747E-01            NaN
         13   -1    0    0    0    0  0.00000000000E+00  0.00000000000E+00  0.74505805969E-08  0.10566000000E+00  0.10566000000E+00 0. -1.
     999900   -1    0    0    0    0 -0.00000000000E+00 -0.00000000000E+00 -0.74505805969E-08  0.93827000000E+00  0.93827000000E+00 0. -1.
     999902    2    1    2    0    0 -0.13654191052E-02  0.15272940541E-01  0.19920819628E-01  0.10187910633E+01  0.10184808612E+01 0.  0.
     999903    2    3    3    0    0  0.31616316192E-01  0.12581420413E+00  0.22195989033E-03  0.13104379587E+00  0.18537037461E-01 0.  0.
         14    1    1    2    0    0  0.13654191052E-02 -0.15272940541E-01 -0.19920819628E-01  0.25138936667E-01  0.00000000000E+00 0.  1.
     999901    1    3    3    0    0 -0.32981735298E-01 -0.11054126359E+00  0.19698859737E-01  0.88774726747E+00  0.88000000000E+00 0.  1.
        -11    1    4    4    0    0  0.20825732108E-01  0.54136845475E-01 -0.58620039366E-02  0.58302087158E-01  0.51100000000E-03 0.  1.
         11    1    4    4    0    0  0.10790584084E-01  0.71677358658E-01  0.60839638269E-02  0.72741708709E-01  0.51100000000E-03 0. -1.
</event>
<event>
 8    1  0.1132255E+005  0.1043930E+01  0.7957747E-01            NaN
         13   -1    0    0    0    0  0.00000000000E+00  0.00000000000E+00  0.74505805969E-08  0.10566000000E+00  0.10566000000E+00 0.  1.
     999900   -1    0    0    0    0 -0.00000000000E+00 -0.00000000000E+00 -0.74505805969E-08  0.93827000000E+00  0.93827000000E+00 0. -1.
     999902    2    1    2    0    0 -0.15565153284E-01 -0.63165682593E-03  0.17658738161E-01  0.10203820910E+01  0.10201103409E+01 0.  0.
     999903    2    3    3    0    0  0.31063201831E-01  0.87995556766E-01  0.90918720527E-01  0.13167740912E+00  0.19094130317E-01 0.  0.
         14    1    1    2    0    0  0.15565153284E-01  0.63165682593E-03 -0.17658738161E-01  0.23547909048E-01  0.00000000000E+00 0. -1.
     999901    1    3    3    0    0 -0.46628355115E-01 -0.88627213592E-01 -0.73259982366E-01  0.88870468183E+00  0.88000000000E+00 0. -1.
        -11    1    4    4    0    0  0.53444164612E-02  0.18431329986E-01  0.90981654825E-02  0.21244162692E-01  0.51100000000E-03 0.  1.
         11    1    4    4    0    0  0.25718785370E-01  0.69564226780E-01  0.81820555044E-01  0.11043324643E+00  0.51100000000E-03 0. -1.
</event>
<event>
 8    1  0.1132255E+005  0.1043930E+01  0.7957747E-01            NaN
         13   -1    0    0    0    0  0.00000000000E+00  0.00000000000E+00  0.74505805969E-08  0.10566000000E+00  0.10566000000E+00 0.  1.
     999900   -1    0    0    0    0 -0.00000000000E+00 -0.00000000000E+00 -0.74505805969E-08  0.93827000000E+00  0.93827000000E+00 0.  1.
     999902    2    1    2    0    0  0.20196056528E-01 -0.95689798932E-02  0.12847435896E-01  0.10181520504E+01  0.10178256703E+01 0.  0.
     999903    2    3    3    0    0 -0.75478318536E-02  0.78848819600E-01  0.10024192793E+00  0.12898096011E+00  0.17706999637E-01 0.  0.
         14    1    1    2    0    0 -0.20196056528E-01  0.95689798932E-02 -0.12847435896E-01  0.25777949581E-01  0.00000000000E+00 0. -1.
     999901    1    3    3    0    0  0.27743888381E-01 -0.88417799493E-01 -0.87394492037E-01  0.88917109031E+00  0.88000000000E+00 0. -1.
        -11    1    4    4    0    0 -0.56675035011E-02  0.68668906919E-01  0.75829182341E-01  0.10245909129E+00  0.51100000000E-03 0.  1.
         11    1    4    4    0    0 -0.18803283525E-02  0.10179912681E-01  0.24412745593E-01  0.26521868812E-01  0.51100000000E-03 0. -1.
</event>
<event>
 8    1  0.1132255E+005  0.1043930E+01  0.7957747E-01            NaN
         13   -1    0    0    0    0  0.00000000000E+00  0.00000000000E+00  0.74505805969E-08  0.10566000000E+00  0.10566000000E+00 0.  1.
     999900   -1    0    0    0    0 -0.00000000000E+00 -0.00000000000E+00 -0.74505805969E-08  0.93827000000E+00  0.93827000000E+00 0.  1.
     999902    2    1    2    0    0  0.11291331967E-01 -0.35196498267E-02  0.20484376991E-01  0.10202764207E+01  0.10200021975E+01 0.  0.
     999903    2    3    3    0    0  0.96125724520E-01 -0.11200082848E-01 -0.83896141729E-01  0.13002299842E+00  0.22401356008E-01 0.  0.
         14    1    1    2    0    0 -0.11291331967E-01  0.35196498267E-02 -0.20484376991E-01  0.23653579289E-01  0.00000000000E+00 0. -1.
     999901    1    3    3    0    0 -0.84834392553E-01  0.76804330210E-02  0.10438051872E+00  0.89025342229E+00  0.88000000000E+00 0. -1.
        -11    1    4    4    0    0  0.55912550881E-01  0.42172579044E-02 -0.51421838703E-01  0.76081963873E-01  0.51100000000E-03 0. -1.
         11    1    4    4    0    0  0.40213173639E-01 -0.15417340752E-01 -0.32474303026E-01  0.53941034547E-01  0.51100000000E-03 0.  1.
</event>
<event>
 8    1  0.1132255E+005  0.1043930E+01  0.7957747E-01            NaN
         13   -1    0    0    0    0  0.00000000000E+00  0.00000000000E+00  0.74505805969E-08  0.10566000000E+00  0.10566000000E+00 0.  1.
     999900   -1    0    0    0    0 -0.00000000000E+00 -0.00000000000E+00 -0.74505805969E-08  0.93827000000E+00  0.93827000000E+00 0.  1.
     999902    2    1    2    0    0  0.20761996694E-01  0.94956160252E-02 -0.92193329924E-03  0.10210809915E+01  0.10208253102E+01 0.  0.
     999903    2    3    3    0    0 -0.15455375434E-01  0.91492955554E-01  0.91341013320E-01  0.13172857928E+00  0.19985202967E-01 0.  0.
         14    1    1    2    0    0 -0.20761996694E-01 -0.94956160252E-02  0.92193329924E-03  0.22849008544E-01  0.00000000000E+00 0. -1.
     999901    1    3    3    0    0  0.36217372128E-01 -0.81997339529E-01 -0.92262946620E-01  0.88935241218E+00  0.88000000000E+00 0. -1.
        -11    1    4    4    0    0 -0.10219638684E-01  0.68818690454E-01  0.79391907141E-01  0.10556414738E+00  0.51100000000E-03 0.  1.
         11    1    4    4    0    0 -0.52357367505E-02  0.22674265100E-01  0.11949106179E-01  0.26164431900E-01  0.51100000000E-03 0. -1.
</event>
<event>
 8    1  0.1132255E+005  0.1043930E+01  0.7957747E-01            NaN
         13   -1    0    0    0    0  0.00000000000E+00  0.00000000000E+00  0.74505805969E-08  0.10566000000E+00  0.10566000000E+00 0. -1.
     999900   -1    0    0    0    0 -0.00000000000E+00 -0.00000000000E+00 -0.74505805969E-08  0.93827000000E+00  0.93827000000E+00 0. -1.
     999902    2    1    2    0    0 -0.45062247743E-03  0.23640657305E-01 -0.25345533741E-02  0.10201495942E+01  0.10198723875E+01 0.  0.
     999903    2    3    3    0    0  0.71486897540E-01 -0.49804776062E-01 -0.93715860669E-01  0.12948508427E+00  0.19819996728E-01 0.  0.
         14    1    1    2    0    0  0.45062247743E-03 -0.23640657305E-01  0.25345533741E-02  0.23780405784E-01  0.00000000000E+00 0. -1.
     999901    1    3    3    0    0 -0.71937520017E-01  0.73445433368E-01  0.91181307295E-01  0.89066450994E+00  0.88000000000E+00 0.  1.
        -11    1    4    4    0    0  0.12096624585E-01 -0.17015461751E-01 -0.28911658000E-01  0.35665099947E-01  0.51100000000E-03 0. -1.
         11    1    4    4    0    0  0.59390272955E-01 -0.32789314311E-01 -0.64804202669E-01  0.93819984328E-01  0.51100000000E-03 0.  1.
</event>
<event>
 8    1  0.1132255E+005  0.1043930E+01  0.7957747E-01            NaN
         13   -1    0    0    0    0  0.00000000000E+00  0.00000000000E+00  0.74505805969E-08  0.10566000000E+00  0.10566000000E+00 0. -1.
     999900   -1    0    0    0    0 -0.00000000000E+00 -0.00000000000E+00 -0.74505805969E-08  0.93827000000E+00  0.93827000000E+00 0. -1.
     999902    2    1    2    0    0 -0.71886233018E-02 -0.10389486430E-01 -0.16808980512E-01  0.10229024096E+01  0.10226862569E+01 0.  0.
     999903    2    3    3    0    0 -0.81576038877E-01 -0.38892645216E-01  0.94630452788E-01  0.13230448405E+00  0.19551622281E-01 0.  0.
         14    1    1    2    0    0  0.71886233018E-02  0.10389486430E-01  0.16808980512E-01  0.21027590425E-01  0.00000000000E+00 0. -1.
     999901    1    3    3    0    0  0.74387415575E-01  0.28503158786E-01 -0.11143943330E+00  0.89059792553E+00  0.88000000000E+00 0.  1.
        -11    1    4    4    0    0 -0.67936700142E-01 -0.23878630916E-01  0.76963491068E-01  0.10540030512E+00  0.51100000000E-03 0.  1.
         11    1    4    4    0    0 -0.13639338734E-01 -0.15014014300E-01  0.17666961721E-01  0.26904178931E-01  0.51100000000E-03 0. -1.
</event>
<event>
 8    1  0.1132255E+005  0.1043930E+01  0.7957747E-01            NaN
         13   -1    0    0    0    0  0.00000000000E+00  0.00000000000E+00  0.74505805969E-08  0.10566000000E+00  0.10566000000E+00 0.  1.
     999900   -1    0    0    0    0 -0.00000000000E+00 -0.00000000000E+00 -0.74505805969E-08  0.93827000000E+00  0.93827000000E+00 0. -1.
     999902    2    1    2    0    0 -0.98468241140E-02 -0.62586451170E-02  0.20575007449E-01  0.10202770612E+01  0.10200028530E+01 0.  0.
     999903    2    3    3    0    0 -0.22355358092E-02 -0.12024387478E+00 -0.46324826440E-01  0.13037473391E+00  0.19697579880E-01 0.  0.
         14    1    1    2    0    0  0.98468241140E-02  0.62586451170E-02 -0.20575007449E-01  0.23652938832E-01  0.00000000000E+00 0. -1.
     999901    1    3    3    0    0 -0.76112883048E-02  0.11398522967E+00  0.66899833889E-01  0.88990232726E+00  0.88000000000E+00 0.  1.
        -11    1    4    4    0    0  0.71324511758E-02 -0.87131736970E-01 -0.34465988877E-01  0.93973277890E-01  0.51100000000E-03 0.  1.
         11    1    4    4    0    0 -0.93679869849E-02 -0.33112137814E-01 -0.11858837562E-01  0.36401456016E-01  0.51100000000E-03 0. -1.
</event>
<event>
 8    1  0.1413715E+005  0.1043930E+01  0.7957747E-01            NaN
         13   -1    0    0    0    0  0.00000000000E+00  0.00000000000E+00  0.74505805969E-08  0.10566000000E+00  0.10566000000E+00 0. -1.
     999900   -1    0    0    0    0 -0.00000000000E+00 -0.00000000000E+00 -0.74505805969E-08  0.93827000000E+00  0.93827000000E+00 0. -1.
     999902    2    1    2    0    0 -0.17393246011E-01 -0.13125053439E-01 -0.93178428368E-02  0.10202315986E+01  0.10199563228E+01 0.  0.
     999903    2    3    3    0    0  0.97869110295E-01  0.44581837290E-02  0.80041305075E-01  0.12805468881E+00  0.19828127927E-01 0.  0.
         14    1    1    2    0    0  0.17393246011E-01  0.13125053439E-01  0.93178428368E-02  0.23698401416E-01  0.00000000000E+00 0.  1.
     999901    1    3    3    0    0 -0.11526235631E+00 -0.17583237168E-01 -0.89359147911E-01  0.89217690977E+00  0.88000000000E+00 0. -1.
        -11    1    4    4    0    0  0.25866671821E-01  0.99987052663E-02  0.22673610272E-01  0.35824747617E-01  0.51100000000E-03 0. -1.
         11    1    4    4    0    0  0.72002438474E-01 -0.55405215373E-02  0.57367694803E-01  0.92229941196E-01  0.51100000000E-03 0.  1.
</event>
<event>
 8    1  0.1132255E+005  0.1043930E+01  0.7957747E-01            NaN
         13   -1    0    0    0    0  0.00000000000E+00  0.00000000000E+00  0.74505805969E-08  0.10566000000E+00  0.10566000000E+00 0. -1.
     999900   -1    0    0    0    0 -0.00000000000E+00 -0.00000000000E+00 -0.74505805969E-08  0.93827000000E+00  0.93827000000E+00 0.  1.
     999902    2    1    2    0    0 -0.61239362860E-02 -0.16701608904E-01  0.14544685188E-01  0.10209518756E+01  0.10206932634E+01 0.  0.
     999903    2    3    3    0    0 -0.58767629274E-01  0.35906292143E-01  0.10945431924E+00  0.13272510930E+00  0.29879935966E-01 0.  0.
         14    1    1    2    0    0  0.61239362860E-02  0.16701608904E-01 -0.14544685188E-01  0.22978124442E-01  0.00000000000E+00 0.  1.
     999901    1    3    3    0    0  0.52643692988E-01 -0.52607901047E-01 -0.94909634047E-01  0.88822676626E+00  0.88000000000E+00 0.  1.
        -11    1    4    4    0    0 -0.23473379478E-01  0.31086519333E-02  0.55760365763E-01  0.60581703278E-01  0.51100000000E-03 0. -1.
         11    1    4    4    0    0 -0.35294249796E-01  0.32797640210E-01  0.53693953472E-01  0.72143406022E-01  0.51100000000E-03 0.  1.
</event>
<event>
 8    1  0.1132255E+005  0.1043930E+01  0.7957747E-01            NaN
         13   -1    0    0    0    0  0.00000000000E+00  0.00000000000E+00  0.74505805969E-08  0.10566000000E+00  0.10566000000E+00 0.  1.
     999900   -1    0    0    0    0 -0.00000000000E+00 -0.00000000000E+00 -0.74505805969E-08  0.93827000000E+00  0.93827000000E+00 0. -1.
     999902    2    1    2    0    0  0.52864212890E-02  0.11407643158E-01 -0.19799339052E-01  0.10204759087E+01  0.10202063447E+01 0.  0.
     999903    2    3    3    0    0  0.75607033301E-01  0.54192364234E-01  0.88654939076E-01  0.13000533013E+00  0.19709180946E-01 0.  0.
         14    1    1    2    0    0 -0.52864212890E-02 -0.11407643158E-01  0.19799339052E-01  0.23454091314E-01  0.00000000000E+00 0.  1.
     999901    1    3    3    0    0 -0.70320612012E-01 -0.42784721076E-01 -0.10845427813E+00  0.89047057856E+00  0.88000000000E+00 0. -1.
        -11    1    4    4    0    0  0.42841559901E-01  0.21081093252E-01  0.53026316818E-01  0.71357292155E-01  0.51100000000E-03 0.  1.
         11    1    4    4    0    0  0.32765473400E-01  0.33111270982E-01  0.35628622258E-01  0.58648037974E-01  0.51100000000E-03 0. -1.
</event>
<event>
 8    1  0.1132255E+005  0.1043930E+01  0.7957747E-01            NaN
         13   -1    0    0    0    0  0.00000000000E+00  0.00000000000E+00  0.74505805969E-08  0.10566000000E+00  0.10566000000E+00 0. -1.
     999900   -1    0    0    0    0 -0.00000000000E+00 -0.00000000000E+00 -0.74505805969E-08  0.93827000000E+00  0.93827000000E+00 0.  1.
     999902    2    1    2    0    0 -0.53289783771E-02  0.21221188518E-01  0.84766066545E-02  0.10204653518E+01  0.10201955423E+01 0.  0.
     999903    2    3    3    0    0 -0.32619942307E-01 -0.12214872650E+00  0.58132482100E-02  0.12844134840E+00  0.21886390820E-01 0.  0.
         14    1    1    2    0    0  0.53289783771E-02 -0.21221188518E-01 -0.84766066545E-02  0.23464648155E-01  0.00000000000E+00 0.  1.
     999901    1    3    3    0    0  0.27290963930E-01  0.14336991502E+00  0.26633584445E-02  0.89202400344E+00  0.88000000000E+00 0. -1.
        -11    1    4    4    0    0 -0.12776144934E-01 -0.86530123593E-01  0.58456417694E-02  0.87664843678E-01  0.51100000000E-03 0.  1.
         11    1    4    4    0    0 -0.19843797373E-01 -0.35618602905E-01 -0.32393559340E-04  0.40776504723E-01  0.51100000000E-03 0. -1.
</event>
<event>
 8    1  0.1132255E+005  0.1043930E+01  0.7957747E-01            NaN
         13   -1    0    0    0    0  0.00000000000E+00  0.00000000000E+00  0.74505805969E-08  0.10566000000E+00  0.10566000000E+00 0.  1.
     999900   -1    0    0    0    0 -0.00000000000E+00 -0.00000000000E+00 -0.74505805969E-08  0.93827000000E+00  0.93827000000E+00 0. -1.
     999902    2    1    2    0    0  0.17214833229E-01  0.45119631824E-02 -0.14831535388E-01  0.10207635860E+01  0.10205006692E+01 0.  0.
     999903    2    3    3    0    0  0.50502950932E-01  0.65732161127E-02  0.11815245716E+00  0.13014745669E+00  0.19611275499E-01 0.  0.
         14    1    1    2    0    0 -0.17214833229E-01 -0.45119631824E-02  0.14831535388E-01  0.23166413983E-01  0.00000000000E+00 0. -1.
     999901    1    3    3    0    0 -0.33288117703E-01 -0.20612529303E-02 -0.13298399255E+00  0.89061612933E+00  0.88000000000E+00 0. -1.
        -11    1    4    4    0    0  0.42089181778E-02 -0.23829857440E-02  0.27878158820E-01  0.28299230970E-01  0.51100000000E-03 0.  1.
         11    1    4    4    0    0  0.46294032754E-01  0.89562018567E-02  0.90274298341E-01  0.10184822572E+00  0.51100000000E-03 0. -1.
</event>
<event>
 8    1  0.1132255E+005  0.1043930E+01  0.7957747E-01            NaN
         13   -1    0    0    0    0  0.00000000000E+00  0.00000000000E+00  0.74505805969E-08  0.10566000000E+00  0.10566000000E+00 0. -1.
     999900   -1    0    0    0    0 -0.00000000000E+00 -0.00000000000E+00 -0.74505805969E-08  0.93827000000E+00  0.93827000000E+00 0. -1.
     999902    2    1    2    0    0 -0.10729061542E-01 -0.27536981137E-02 -0.20607604585E-01  0.10205340819E+01  0.10202658690E+01 0.  0.
     999903    2    3    3    0    0 -0.74542352717E-01  0.18177188201E-01  0.10234811327E+00  0.12945139965E+00  0.19888591264E-01 0.  0.
         14    1    1    2    0    0  0.10729061542E-01  0.27536981137E-02  0.20607604585E-01  0.23395918054E-01  0.00000000000E+00 0. -1.
     999901    1    3    3    0    0  0.63813291175E-01 -0.20930886314E-01 -0.12295571785E+00  0.89108268229E+00  0.88000000000E+00 0. -1.
        -11    1    4    4    0    0 -0.40657548830E-01  0.19593193676E-01  0.63046182312E-01  0.77537163609E-01  0.51100000000E-03 0.  1.
         11    1    4    4    0    0 -0.33884803887E-01 -0.14160054757E-02  0.39301930957E-01  0.51914236043E-01  0.51100000000E-03 0. -1.
</event>
<event>
 8    1  0.1132255E+005  0.1043930E+01  0.7957747E-01            NaN
         13   -1    0    0    0    0  0.00000000000E+00  0.00000000000E+00  0.74505805969E-08  0.10566000000E+00  0.10566000000E+00 0.  1.
     999900   -1    0    0    0    0 -0.00000000000E+00 -0.00000000000E+00 -0.74505805969E-08  0.93827000000E+00  0.93827000000E+00 0. -1.
     999902    2    1    2    0    0 -0.16734859857E-02 -0.84150849945E-02 -0.20786430786E-01  0.10214424498E+01  0.10211948826E+01 0.  0.
     999903    2    3    3    0    0  0.15002278411E-01 -0.10070572784E+00 -0.85031550440E-01  0.13413017143E+00  0.19845058374E-01 0.  0.
         14    1    1    2    0    0  0.16734859857E-02  0.84150849945E-02  0.20786430786E-01  0.22487550236E-01  0.00000000000E+00 0. -1.
     999901    1    3    3    0    0 -0.16675764397E-01  0.92290642844E-01  0.64245119654E-01  0.88731227833E+00  0.88000000000E+00 0.  1.
        -11    1    4    4    0    0  0.55418216358E-03 -0.62893114753E-01 -0.46272254771E-01  0.78084785227E-01  0.51100000000E-03 0.  1.
         11    1    4    4    0    0  0.14448096247E-01 -0.37812613085E-01 -0.38759295668E-01  0.56045386208E-01  0.51100000000E-03 0. -1.
</event>
<event>
 8    1  0.1132255E+005  0.1043930E+01  0.7957747E-01            NaN
         13   -1    0    0    0    0  0.00000000000E+00  0.00000000000E+00  0.74505805969E-08  0.10566000000E+00  0.10566000000E+00 0. -1.
     999900   -1    0    0    0    0 -0.00000000000E+00 -0.00000000000E+00 -0.74505805969E-08  0.93827000000E+00  0.93827000000E+00 0. -1.
     999902    2    1    2    0    0 -0.17261126164E-01  0.13744025351E-01  0.84223490350E-02  0.10203126193E+01  0.10200392445E+01 0.  0.
     999903    2    3    3    0    0  0.24556723788E-01 -0.37378804618E-01 -0.11900638501E+00  0.12868469318E+00  0.19925432697E-01 0.  0.
         14    1    1    2    0    0  0.17261126164E-01 -0.13744025351E-01 -0.84223490350E-02  0.23617380731E-01  0.00000000000E+00 0. -1.
     999901    1    3    3    0    0 -0.41817849952E-01  0.51122829969E-01  0.12742873405E+00  0.89162792609E+00  0.88000000000E+00 0.  1.
        -11    1    4    4    0    0  0.40582209593E-02 -0.18285877428E-01 -0.67483569013E-01  0.70036673810E-01  0.51100000000E-03 0.  1.
         11    1    4    4    0    0  0.20498502829E-01 -0.19092927189E-01 -0.51522815998E-01  0.58648019371E-01  0.51100000000E-03 0. -1.
</event>
<event>
 8    1  0.1132255E+005  0.1043930E+01  0.7957747E-01            NaN
         13   -1    0    0    0    0  0.00000000000E+00  0.00000000000E+00  0.74505805969E-08  0.10566000000E+00  0.10566000000E+00 0.  1.
     999900   -1    0    0    0    0 -0.00000000000E+00 -0.00000000000E+00 -0.74505805969E-08  0.93827000000E+00  0.93827000000E+00 0.  1.
     999902    2    1    2    0    0  0.19419573272E-01  0.71426143993E-02 -0.12171364587E-01  0.10199241907E+01  0.10196416409E+01 0.  0.
     999903    2    3    3    0    0 -0.75075670246E-01  0.56934352105E-01  0.84117043185E-01  0.12825159061E+00  0.22246726230E-01 0.  0.
         14    1    1    2    0    0 -0.19419573272E-01 -0.71426143993E-02  0.12171364587E-01  0.24005809348E-01  0.00000000000E+00 0.  1.
     999901    1    3    3    0    0  0.94495243518E-01 -0.49791737705E-01 -0.96288407772E-01  0.89167260004E+00  0.88000000000E+00 0.  1.
        -11    1    4    4    0    0 -0.47455656733E-01  0.40473978491E-01  0.68027695938E-01  0.92294153804E-01  0.51100000000E-03 0.  1.
         11    1    4    4    0    0 -0.27620013513E-01  0.16460373614E-01  0.16089347247E-01  0.35957436808E-01  0.51100000000E-03 0. -1.
</event>
<event>
 8    1  0.1132255E+005  0.1043930E+01  0.7957747E-01            NaN
         13   -1    0    0    0    0  0.00000000000E+00  0.00000000000E+00  0.74505805969E-08  0.10566000000E+00  0.10566000000E+00 0. -1.
     999900   -1    0    0    0    0 -0.00000000000E+00 -0.00000000000E+00 -0.74505805969E-08  0.93827000000E+00  0.93827000000E+00 0.  1.
     999902    2    1    2    0    0  0.87241738007E-02 -0.38047350597E-02 -0.21479155730E-01  0.10204365680E+01  0.10201660884E+01 0.  0.
     999903    2    3    3    0    0  0.19057776370E-01 -0.99027724129E-01  0.78835091218E-01  0.12957341960E+00  0.20114931612E-01 0.  0.
         14    1    1    2    0    0 -0.87241738007E-02  0.38047350597E-02  0.21479155730E-01  0.23493432024E-01  0.00000000000E+00 0. -1.
     999901    1    3    3    0    0 -0.10333602570E-01  0.95222989070E-01 -0.10031424695E+00  0.89086314837E+00  0.88000000000E+00 0.  1.
        -11    1    4    4    0    0  0.15129710965E-01 -0.83038526311E-01  0.55533449364E-01  0.10103727097E+00  0.51100000000E-03 0.  1.
         11    1    4    4    0    0  0.39280654058E-02 -0.15989197819E-01  0.23301641854E-01  0.28536148633E-01  0.51100000000E-03 0. -1.
</event>
<event>
 8    1  0.1132255E+005  0.1043930E+01  0.7957747E-01            NaN
         13   -1    0    0    0    0  0.00000000000E+00  0.00000000000E+00  0.74505805969E-08  0.10566000000E+00  0.10566000000E+00 0. -1.
     999900   -1    0    0    0    0 -0.00000000000E+00 -0.00000000000E+00 -0.74505805969E-08  0.93827000000E+00  0.93827000000E+00 0. -1.
     999902    2    1    2    0    0 -0.12617018841E-01  0.19048311803E-01  0.44791190767E-02  0.10206471768E+01  0.10203815804E+01 0.  0.
     999903    2    3    3    0    0  0.90154020433E-02 -0.49042174323E-01 -0.11768892649E+00  0.12933953786E+00  0.19789398643E-01 0.  0.
         14    1    1    2    0    0  0.12617018841E-01 -0.19048311803E-01 -0.44791190767E-02  0.23282823168E-01  0.00000000000E+00 0.  1.
     999901    1    3    3    0    0 -0.21632420885E-01  0.68090486126E-01  0.12216804557E+00  0.89130763897E+00  0.88000000000E+00 0.  1.
        -11    1    4    4    0    0  0.58994910706E-03 -0.39773505364E-01 -0.10031525767E+00  0.10791520658E+00  0.51100000000E-03 0. -1.
         11    1    4    4    0    0  0.84254529362E-02 -0.92686689587E-02 -0.17373668824E-01  0.21424331281E-01  0.51100000000E-03 0.  1.
</event>
<event>
 8    1  0.1132255E+005  0.1043930E+01  0.7957747E-01            NaN
         13   -1    0    0    0    0  0.00000000000E+00  0.00000000000E+00  0.74505805969E-08  0.10566000000E+00  0.10566000000E+00 0. -1.
     999900   -1    0    0    0    0 -0.00000000000E+00 -0.00000000000E+00 -0.74505805969E-08  0.93827000000E+00  0.93827000000E+00 0.  1.
     999902    2    1    2    0    0 -0.32432907108E-02 -0.16210685536E-01  0.16140917294E-01  0.10208251418E+01  0.10205636363E+01 0.  0.
     999903    2    3    3    0    0 -0.10187168185E+00  0.60102115711E-01 -0.49969562049E-01  0.12957781440E+00  0.17416916405E-01 0.  0.
         14    1    1    2    0    0  0.32432907108E-02  0.16210685536E-01 -0.16140917294E-01  0.23104858175E-01  0.00000000000E+00 0.  1.
     999901    1    3    3    0    0  0.98628391135E-01 -0.76312801247E-01  0.66110479343E-01  0.89124732743E+00  0.88000000000E+00 0. -1.
        -11    1    4    4    0    0 -0.37080909803E-01  0.15178588304E-01 -0.10584308024E-01  0.41444808023E-01  0.51100000000E-03 0. -1.
         11    1    4    4    0    0 -0.64790772043E-01  0.44923527407E-01 -0.39385254025E-01  0.88133006372E-01  0.51100000000E-03 0.  1.
</event>
<event>
 8    1  0.1132255E+005  0.1043930E+01  0.7957747E-01            NaN
         13   -1    0    0    0    0  0.00000000000E+00  0.00000000000E+00  0.74505805969E-08  0.10566000000E+00  0.10566000000E+00 0.  1.
     999900   -1    0    0    0    0 -0.00000000000E+00 -0.00000000000E+00 -0.74505805969E-08  0.93827000000E+00  0.93827000000E+00 0. -1.
     999902    2    1    2    0    0  0.57368802392E-02  0.51054661020E-02  0.22776203213E-01  0.10198939227E+01  0.10196106515E+01 0.  0.
     999903    2    3    3    0    0 -0.58647652026E-01 -0.83109211363E-01  0.80457884478E-01  0.13126893224E+00  0.20282339514E-01 0.  0.
         14    1    1    2    0    0 -0.57368802392E-02 -0.51054661020E-02 -0.22776203213E-01  0.24036077297E-01  0.00000000000E+00 0. -1.
     999901    1    3    3    0    0  0.64384532265E-01  0.88214677465E-01 -0.57681681265E-01  0.88862499046E+00  0.88000000000E+00 0. -1.
        -11    1    4    4    0    0 -0.57294166327E-02 -0.10648012849E-01  0.18942097859E-01  0.22478224683E-01  0.51100000000E-03 0.  1.
         11    1    4    4    0    0 -0.52918235393E-01 -0.72461198515E-01  0.61515786619E-01  0.10879070756E+00  0.51100000000E-03 0. -1.
</event>
<event>
 8    1  0.1132255E+005  0.1043930E+01  0.7957747E-01            NaN
         13   -1    0    0    0    0  0.00000000000E+00  0.00000000000E+00  0.74505805969E-08  0.10566000000E+00  0.10566000000E+00 0.  1.
     999900   -1    0    0    0    0 -0.00000000000E+00 -0.00000000000E+00 -0.74505805969E-08  0.93827000000E+00  0.93827000000E+00 0.  1.
     999902    2    1    2    0    0 -0.20977497617E-01  0.10208153738E-01 -0.37406114292E-02  0.10203026010E+01  0.10200289916E+01 0.  0.
     999903    2    3    3    0    0 -0.86243390042E-01 -0.13760860869E-01  0.96558175524E-01  0.13188040575E+00  0.21016101973E-01 0.  0.
         14    1    1    2    0    0  0.20977497617E-01 -0.10208153738E-01  0.37406114292E-02  0.23627398987E-01  0.00000000000E+00 0.  1.
     999901    1    3    3    0    0  0.65265892424E-01  0.23969014606E-01 -0.10029878695E+00  0.88842219526E+00  0.88000000000E+00 0.  1.
        -11    1    4    4    0    0 -0.46156813269E-01 -0.17165172913E-01  0.58852708218E-01  0.76739800351E-01  0.51100000000E-03 0.  1.
         11    1    4    4    0    0 -0.40086576773E-01  0.34043120446E-02  0.37705467306E-01  0.55140605397E-01  0.51100000000E-03 0. -1.
</event>
<event>
 8    1  0.1132255E+005  0.1043930E+01  0.7957747E-01            NaN
         13   -1    0    0    0    0  0.00000000000E+00  0.00000000000E+00  0.74505805969E-08  0.10566000000E+00  0.10566000000E+00 0. -1.
     999900   -1    0    0    0    0 -0.00000000000E+00 -0.00000000000E+00 -0.74505805969E-08  0.93827000000E+00  0.93827000000E+00 0.  1.
     999902    2    1    2    0    0  0.15677916184E-01 -0.14746220641E-01  0.94501155809E-02  0.10204235591E+01  0.10201527764E+01 0.  0.
     999903    2    3    3    0    0  0.13332800316E-01 -0.12961375228E+00  0.97869434700E-02  0.13295515806E+00  0.24572371662E-01 0.  0.
         14    1    1    2    0    0 -0.15677916184E-01  0.14746220641E-01 -0.94501155809E-02  0.23506440895E-01  0.00000000000E+00 0.  1.
     999901    1    3    3    0    0  0.23451158675E-02  0.11486753164E+00 -0.33682788915E-03  0.88746840104E+00  0.88000000000E+00 0.  1.
        -11    1    4    4    0    0  0.79707230346E-02 -0.88003001622E-01 -0.49013439630E-02  0.88500536799E-01  0.51100000000E-03 0.  1.
         11    1    4    4    0    0  0.53620772816E-02 -0.41610750658E-01  0.14688287433E-01  0.44454621265E-01  0.51100000000E-03 0. -1.
</event>
<event>
 8    1  0.1132255E+005  0.1043930E+01  0.7957747E-01            NaN
         13   -1    0    0    0    0  0.00000000000E+00  0.00000000000E+00  0.74505805969E-08  0.10566000000E+00  0.10566000000E+00 0. -1.
     999900   -1    0    0    0    0 -0.00000000000E+00 -0.00000000000E+00 -0.74505805969E-08  0.93827000000E+00  0.93827000000E+00 0. -1.
     999902    2    1    2    0    0 -0.20959300639E-01  0.10844638292E-01  0.11006933763E-02  0.10203056484E+01  0.10200321104E+01 0.  0.
     999903    2    3    3    0    0 -0.62936712070E-01  0.51225649252E-01 -0.10273512260E+00  0.13228841557E+00  0.18990066082E-01 0.  0.
         14    1    1    2    0    0  0.20959300639E-01 -0.10844638292E-01 -0.11006933763E-02  0.23624351608E-01  0.00000000000E+00 0. -1.
     999901    1    3    3    0    0  0.41977411431E-01 -0.40381010960E-01  0.10383581598E+00  0.88801723283E+00  0.88000000000E+00 0.  1.
        -11    1    4    4    0    0 -0.23650407521E-01  0.31280147042E-01 -0.45866900519E-01  0.60347519080E-01  0.51100000000E-03 0.  1.
         11    1    4    4    0    0 -0.39286304549E-01  0.19945502210E-01 -0.56868222082E-01  0.71940896487E-01  0.51100000000E-03 0. -1.
</event>
<event>
 8    1  0.1132255E+005  0.1043930E+01  0.7957747E-01            NaN
         13   -1    0    0    0    0  0.00000000000E+00  0.00000000000E+00  0.74505805969E-08  0.10566000000E+00  0.10566000000E+00 0.  1.
     999900   -1    0    0    0    0 -0.00000000000E+00 -0.00000000000E+00 -0.74505805969E-08  0.93827000000E+00  0.93827000000E+00 0.  1.
     999902    2    1    2    0    0  0.13997038873E-01 -0.36855066597E-02 -0.19229360850E-01  0.10198620052E+01  0.10195779721E+01 0.  0.
     999903    2    3    3    0    0 -0.66545642924E-01  0.10145475502E+00 -0.38805133289E-01  0.12973571689E+00  0.24579014609E-01 0.  0.
         14    1    1    2    0    0 -0.13997038873E-01  0.36855066597E-02  0.19229360850E-01  0.24067994832E-01  0.00000000000E+00 0.  1.
     999901    1    3    3    0    0  0.80542681797E-01 -0.10514026168E+00  0.19575772440E-01  0.89012628828E+00  0.88000000000E+00 0.  1.
        -11    1    4    4    0    0 -0.47157007174E-01  0.50109184699E-01 -0.19013259154E-01  0.71389627128E-01  0.51100000000E-03 0. -1.
         11    1    4    4    0    0 -0.19388635751E-01  0.51345570320E-01 -0.19791874136E-01  0.58346089762E-01  0.51100000000E-03 0.  1.
</event>
<event>
 8    1  0.1132255E+005  0.1043930E+01  0.7957747E-01            NaN
         13   -1    0    0    0    0  0.00000000000E+00  0.00000000000E+00  0.74505805969E-08  0.10566000000E+00  0.10566000000E+00 0.  1.
     999900   -1    0    0    0    0 -0.00000000000E+00 -0.00000000000E+00 -0.74505805969E-08  0.93827000000E+00  0.93827000000E+00 0.  1.
     999902    2    1    2    0    0 -0.51265224875E-02 -0.18095048858E-01 -0.14536177156E-01  0.10201600090E+01  0.10198830479E+01 0.  0.
     999903    2    3    3    0    0  0.19752856032E-01  0.97645789085E-01 -0.80576055925E-01  0.12978020766E+00  0.20628283109E-01 0.  0.
         14    1    1    2    0    0  0.51265224875E-02  0.18095048858E-01  0.14536177156E-01  0.23769991003E-01  0.00000000000E+00 0.  1.
     999901    1    3    3    0    0 -0.24879378520E-01 -0.11574083794E+00  0.66039878769E-01  0.89037980134E+00  0.88000000000E+00 0. -1.
        -11    1    4    4    0    0 -0.18059451938E-03  0.44761572318E-01 -0.29574899894E-01  0.53652276704E-01  0.51100000000E-03 0. -1.
         11    1    4    4    0    0  0.19933450552E-01  0.52884216767E-01 -0.51001156032E-01  0.76127930955E-01  0.51100000000E-03 0.  1.
</event>
<event>
 8    1  0.1132255E+005  0.1043930E+01  0.7957747E-01            NaN
         13   -1    0    0    0    0  0.00000000000E+00  0.00000000000E+00  0.74505805969E-08  0.10566000000E+00  0.10566000000E+00 0.  1.
     999900   -1    0    0    0    0 -0.00000000000E+00 -0.00000000000E+00 -0.74505805969E-08  0.93827000000E+00  0.93827000000E+00 0.  1.
     999902    2    1    2    0    0 -0.12246700595E-01 -0.86990502903E-02  0.17820791266E-01  0.10206225816E+01  0.10203564173E+01 0.  0.
     999903    2    3    3    0    0 -0.12661943839E+00 -0.14718407852E-02  0.35424081954E-01  0.13301724613E+00  0.20101584281E-01 0.  0.
         14    1    1    2    0    0  0.12246700595E-01  0.86990502903E-02 -0.17820791266E-01  0.23307418406E-01  0.00000000000E+00 0. -1.
     999901    1    3    3    0    0  0.11437273780E+00 -0.72272095051E-02 -0.17603290689E-01  0.88760533547E+00  0.88000000000E+00 0.  1.
        -11    1    4    4    0    0 -0.10662391214E+00  0.24770541231E-02  0.22884050529E-01  0.10908132437E+00  0.51100000000E-03 0. -1.
         11    1    4    4    0    0 -0.19995526256E-01 -0.39488949083E-02  0.12540031425E-01  0.23935921758E-01  0.51100000000E-03 0.  1.
</event>
<event>
 8    1  0.1132255E+005  0.1043930E+01  0.7957747E-01            NaN
         13   -1    0    0    0    0  0.00000000000E+00  0.00000000000E+00  0.74505805969E-08  0.10566000000E+00  0.10566000000E+00 0.  1.
     999900   -1    0    0    0    0 -0.00000000000E+00 -0.00000000000E+00 -0.74505805969E-08  0.93827000000E+00  0.93827000000E+00 0.  1.
     999902    2    1    2    0    0 -0.11465840604E-01 -0.18635453864E-01 -0.10130543523E-01  0.10198183109E+01  0.10195332332E+01 0.  0.
     999903    2    3    3    0    0 -0.16856547642E-01  0.11919462380E+00 -0.39860709082E-01  0.12857756180E+00  0.21255863393E-01 0.  0.
         14    1    1    2    0    0  0.11465840604E-01  0.18635453864E-01  0.10130543523E-01  0.24111689147E-01  0.00000000000E+00 0.  1.
     999901    1    3    3    0    0  0.53907070380E-02 -0.13783007766E+00  0.29730165559E-01  0.89124074905E+00  0.88000000000E+00 0. -1.
        -11    1    4    4    0    0 -0.98072653240E-03  0.14388087165E-01  0.20781638461E-02  0.14579395144E-01  0.51100000000E-03 0. -1.
         11    1    4    4    0    0 -0.15875821110E-01  0.10480653663E+00 -0.41938872928E-01  0.11399816665E+00  0.51100000000E-03 0.  1.
</event>
<event>
 8    1  0.1132255E+005  0.1043930E+01  0.7957747E-01            NaN
         13   -1    0    0    0    0  0.00000000000E+00  0.00000000000E+00  0.74505805969E-08  0.10566000000E+00  0.10566000000E+00 0. -1.
     999900   -1    0    0    0    0 -0.00000000000E+00 -0.00000000000E+00 -0.74505805969E-08  0.93827000000E+00  0.93827000000E+00 0. -1.
     999902    2    1    2    0    0  0.73341064303E-02  0.23212379340E-01 -0.32113452892E-02  0.10193756438E+01  0.10190798726E+01 0.  0.
     999903    2    3    3    0    0 -0.11928788536E+00 -0.33363988963E-01  0.24861174386E-01  0.12807205877E+00  0.21014730346E-01 0.  0.
         14    1    1    2    0    0 -0.73341064303E-02 -0.23212379340E-01  0.32113452892E-02  0.24554356239E-01  0.00000000000E+00 0. -1.
     999901    1    3    3    0    0  0.12662199179E+00  0.56576368303E-01 -0.28072519675E-01  0.89130358499E+00  0.88000000000E+00 0.  1.
        -11    1    4    4    0    0 -0.46598015734E-02 -0.29729230737E-03 -0.29807827757E-02  0.55631214597E-02  0.51100000000E-03 0.  1.
         11    1    4    4    0    0 -0.11462808379E+00 -0.33066696656E-01  0.27841957162E-01  0.12250893731E+00  0.51100000000E-03 0. -1.
</event>
<event>
 8    1  0.1132255E+005  0.1043930E+01  0.7957747E-01            NaN
         13   -1    0    0    0    0  0.00000000000E+00  0.00000000000E+00  0.74505805969E-08  0.10566000000E+00  0.10566000000E+00 0. -1.
     999900   -1    0    0    0    0 -0.00000000000E+00 -0.00000000000E+00 -0.74505805969E-08  0.93827000000E+00  0.93827000000E+00 0. -1.
     999902    2    1    2    0    0  0.80745463037E-03  0.21902825864E-01  0.68185325812E-02  0.10209761735E+01  0.10207181142E+01 0.  0.
     999903    2    3    3    0    0 -0.69634455489E-01 -0.38004797130E-01  0.10265529017E+00  0.13095613436E+00  0.17834756215E-01 0.  0.
         14    1    1    2    0    0 -0.80745463037E-03 -0.21902825864E-01 -0.68185325812E-02  0.22953826486E-01  0.00000000000E+00 0.  1.
     999901    1    3    3    0    0  0.70441910119E-01  0.59907622993E-01 -0.95836757592E-01  0.89002003916E+00  0.88000000000E+00 0. -1.
        -11    1    4    4    0    0 -0.41763732723E-01 -0.17537047878E-01  0.70086957453E-01  0.83451783356E-01  0.51100000000E-03 0. -1.
         11    1    4    4    0    0 -0.27870722766E-01 -0.20467749252E-01  0.32568332720E-01  0.47504351002E-01  0.51100000000E-03 0.  1.
</event>
<event>
 8    1  0.1132255E+005  0.1043930E+01  0.7957747E-01            NaN
         13   -1    0    0    0    0  0.00000000000E+00  0.00000000000E+00  0.74505805969E-08  0.10566000000E+00  0.10566000000E+00 0.  1.
     999900   -1    0    0    0    0 -0.00000000000E+00 -0.00000000000E+00 -0.74505805969E-08  0.93827000000E+00  0.93827000000E+00 0.  1.
     999902    2    1    2    0    0 -0.16962492195E-01 -0.15473658782E-01  0.50093156986E-02  0.10204299255E+01  0.10201592912E+01 0.  0.
     999903    2    3    3    0    0  0.78721137314E-01  0.97046384759E-01 -0.19530843764E-01  0.12778311036E+00  0.18222271568E-01 0.  0.
         14    1    1    2    0    0  0.16962492195E-01  0.15473658782E-01 -0.50093156986E-02  0.23500074497E-01  0.00000000000E+00 0. -1.
     999901    1    3    3    0    0 -0.95683629509E-01 -0.11252004354E+00  0.24540159463E-01  0.89264681514E+00  0.88000000000E+00 0. -1.
        -11    1    4    4    0    0  0.42928827630E-01  0.66200412426E-01 -0.94458495631E-02  0.79466118830E-01  0.51100000000E-03 0. -1.
         11    1    4    4    0    0  0.35792309684E-01  0.30845972333E-01 -0.10084994201E-01  0.48316991532E-01  0.51100000000E-03 0.  1.
</event>
<event>
 8    1  0.1132255E+005  0.1043930E+01  0.7957747E-01            NaN
         13   -1    0    0    0    0  0.00000000000E+00  0.00000000000E+00  0.74505805969E-08  0.10566000000E+00  0.10566000000E+00 0. -1.
     999900   -1    0    0    0    0 -0.00000000000E+00 -0.00000000000E+00 -0.74505805969E-08  0.93827000000E+00  0.93827000000E+00 0. -1.
     999902    2    1    2    0    0 -0.71953596427E-02  0.22550585200E-01 -0.10315790586E-02  0.10202368312E+01  0.10199616784E+01 0.  0.
     999903    2    3    3    0    0  0.83601820045E-01 -0.73340309309E-01  0.60173647487E-01  0.12828096274E+00  0.21611854754E-01 0.  0.
         14    1    1    2    0    0  0.71953596427E-02 -0.22550585200E-01  0.10315790586E-02  0.23693168817E-01  0.00000000000E+00 0.  1.
     999901    1    3    3    0    0 -0.90797179687E-01  0.95890894509E-01 -0.61205226546E-01  0.89195586844E+00  0.88000000000E+00 0. -1.
        -11    1    4    4    0    0  0.34345490916E-01 -0.16600794585E-01  0.20712849996E-01  0.43410625463E-01  0.51100000000E-03 0.  1.
         11    1    4    4    0    0  0.49256329128E-01 -0.56739514723E-01  0.39460797491E-01  0.84870337279E-01  0.51100000000E-03 0. -1.
</event>
<event>
 8    1  0.1132255E+005  0.1043930E+01  0.7957747E-01            NaN
         13   -1    0    0    0    0  0.00000000000E+00  0.00000000000E+00  0.74505805969E-08  0.10566000000E+00  0.10566000000E+00 0.  1.
     999900   -1    0    0    0    0 -0.00000000000E+00 -0.00000000000E+00 -0.74505805969E-08  0.93827000000E+00  0.93827000000E+00 0. -1.
     999902    2    1    2    0    0  0.66348193206E-02  0.17981423315E-01 -0.14211472667E-01  0.10200696067E+01  0.10197905100E+01 0.  0.
     999903    2    3    3    0    0 -0.56896995544E-01  0.73018608740E-01 -0.92985906317E-01  0.13256141258E+00  0.18898783226E-01 0.  0.
         14    1    1    2    0    0 -0.66348193206E-02 -0.17981423315E-01  0.14211472667E-01  0.23860393274E-01  0.00000000000E+00 0.  1.
     999901    1    3    3    0    0  0.63531814864E-01 -0.55037185425E-01  0.78774433650E-01  0.88750819415E+00  0.88000000000E+00 0.  1.
        -11    1    4    4    0    0 -0.44882751347E-02  0.13717301680E-01 -0.21581790438E-01  0.25968130055E-01  0.51100000000E-03 0.  1.
         11    1    4    4    0    0 -0.52408720409E-01  0.59301307059E-01 -0.71404115879E-01  0.10659328252E+00  0.51100000000E-03 0. -1.
</event>
<event>
 8    1  0.1132255E+005  0.1043930E+01  0.7957747E-01            NaN
         13   -1    0    0    0    0  0.00000000000E+00  0.00000000000E+00  0.74505805969E-08  0.10566000000E+00  0.10566000000E+00 0.  1.
     999900   -1    0    0    0    0 -0.00000000000E+00 -0.00000000000E+00 -0.74505805969E-08  0.93827000000E+00  0.93827000000E+00 0. -1.
     999902    2    1    2    0    0 -0.13471174931E-02 -0.23135275917E-01  0.30141559359E-02  0.10205603433E+01  0.10202927391E+01 0.  0.
     999903    2    3    3    0    0 -0.79055159996E-01  0.29408008205E-01  0.97686671557E-01  0.13052538795E+00  0.19484399652E-01 0.  0.
         14    1    1    2    0    0  0.13471174931E-02  0.23135275917E-01 -0.30141559359E-02  0.23369656680E-01  0.00000000000E+00 0.  1.
     999901    1    3    3    0    0  0.77708042503E-01 -0.52543284122E-01 -0.94672515621E-01  0.89003495538E+00  0.88000000000E+00 0.  1.
        -11    1    4    4    0    0 -0.32933981076E-01  0.15522220883E-01  0.56139271490E-01  0.66913865343E-01  0.51100000000E-03 0.  1.
         11    1    4    4    0    0 -0.46121178919E-01  0.13885787321E-01  0.41547400067E-01  0.63611522602E-01  0.51100000000E-03 0. -1.
</event>
<event>
 8    1  0.1132255E+005  0.1043930E+01  0.7957747E-01            NaN
         13   -1    0    0    0    0  0.00000000000E+00  0.00000000000E+00  0.74505805969E-08  0.10566000000E+00  0.10566000000E+00 0. -1.
     999900   -1    0    0    0    0 -0.00000000000E+00 -0.00000000000E+00 -0.74505805969E-08  0.93827000000E+00  0.93827000000E+00 0. -1.
     999902    2    1    2    0    0  0.22707954297E-01 -0.95425559694E-02  0.98753736480E-03  0.10192786959E+01  0.10189805558E+01 0.  0.
     999903    2    3    3    0    0 -0.28227458172E-01  0.48373258897E-01  0.11394854935E+00  0.12871210768E+00  0.21113341616E-01 0.  0.
         14    1    1    2    0    0 -0.22707954297E-01  0.95425559694E-02 -0.98753736480E-03  0.24651304079E-01  0.00000000000E+00 0.  1.
     999901    1    3    3    0    0  0.50935412468E-01 -0.57915814867E-01 -0.11296101199E+00  0.89056658824E+00  0.88000000000E+00 0. -1.
        -11    1    4    4    0    0  0.38192016845E-03  0.35096086257E-03  0.15366484158E-01  0.15383724937E-01  0.51100000000E-03 0.  1.
         11    1    4    4    0    0 -0.28609378340E-01  0.48022298035E-01  0.98582065192E-01  0.11332838275E+00  0.51100000000E-03 0. -1.
</event>
<event>
 8    1  0.1132255E+005  0.1043930E+01  0.7957747E-01            NaN
         13   -1    0    0    0    0  0.00000000000E+00  0.00000000000E+00  0.74505805969E-08  0.10566000000E+00  0.10566000000E+00 0.  1.
     999900   -1    0    0    0    0 -0.00000000000E+00 -0.00000000000E+00 -0.74505805969E-08  0.93827000000E+00  0.93827000000E+00 0. -1.
     999902    2    1    2    0    0  0.14213134392E-01 -0.17271528016E-01  0.10218096837E-02  0.10215388642E+01  0.10212934387E+01 0.  0.
     999903    2    3    3    0    0  0.97302185178E-01  0.57789186615E-01 -0.64662117925E-01  0.13201523907E+00  0.20964935546E-01 0.  0.
         14    1    1    2    0    0 -0.14213134392E-01  0.17271528016E-01 -0.10218096837E-02  0.22391135842E-01  0.00000000000E+00 0. -1.
     999901    1    3    3    0    0 -0.83089050786E-01 -0.75060714631E-01  0.65683927609E-01  0.88952362509E+00  0.88000000000E+00 0.  1.
        -11    1    4    4    0    0  0.81292835194E-01  0.41178267940E-01 -0.44690222230E-01  0.10149705359E+00  0.51100000000E-03 0. -1.
         11    1    4    4    0    0  0.16009349984E-01  0.16610918674E-01 -0.19971895695E-01  0.30518185477E-01  0.51100000000E-03 0.  1.
</event>
<event>
 8    1  0.1132255E+005  0.1043930E+01  0.7957747E-01            NaN
         13   -1    0    0    0    0  0.00000000000E+00  0.00000000000E+00  0.74505805969E-08  0.10566000000E+00  0.10566000000E+00 0.  1.
     999900   -1    0    0    0    0 -0.00000000000E+00 -0.00000000000E+00 -0.74505805969E-08  0.93827000000E+00  0.93827000000E+00 0. -1.
     999902    2    1    2    0    0  0.13554702027E-01  0.11342448910E-01  0.15317615955E-01  0.10205417454E+01  0.10202737102E+01 0.  0.
     999903    2    3    3    0    0  0.99699586234E-01 -0.35288156663E-01  0.78249413058E-01  0.13287302030E+00  0.18628134188E-01 0.  0.
         14    1    1    2    0    0 -0.13554702027E-01 -0.11342448910E-01 -0.15317615955E-01  0.23388254592E-01  0.00000000000E+00 0. -1.
     999901    1    3    3    0    0 -0.86144884207E-01  0.46630605573E-01 -0.62931797104E-01  0.88766872511E+00  0.88000000000E+00 0. -1.
        -11    1    4    4    0    0  0.52078220196E-01 -0.28146543284E-01  0.44757160235E-01  0.74214779060E-01  0.51100000000E-03 0. -1.
         11    1    4    4    0    0  0.47621366038E-01 -0.71416133785E-02  0.33492252823E-01  0.58658241238E-01  0.51100000000E-03 0.  1.
</event>
<event>
 8    1  0.1132255E+005  0.1043930E+01  0.7957747E-01            NaN
         13   -1    0    0    0    0  0.00000000000E+00  0.00000000000E+00  0.74505805969E-08  0.10566000000E+00  0.10566000000E+00 0. -1.
     999900   -1    0    0    0    0 -0.00000000000E+00 -0.00000000000E+00 -0.74505805969E-08  0.93827000000E+00  0.93827000000E+00 0.  1.
     999902    2    1    2    0    0  0.21196304646E-01  0.10867506802E-01 -0.12716049432E-02  0.10200762159E+01  0.10197972756E+01 0.  0.
     999903    2    3    3    0    0  0.12795106260E+00  0.15491500347E-01 -0.27119253639E-01  0.13323572262E+00  0.20120707222E-01 0.  0.
         14    1    1    2    0    0 -0.21196304646E-01 -0.10867506802E-01  0.12716049432E-02  0.23853784057E-01  0.00000000000E+00 0.  1.
     999901    1    3    3    0    0 -0.10675475796E+00 -0.46239935451E-02  0.25847648696E-01  0.88684049333E+00  0.88000000000E+00 0.  1.
        -11    1    4    4    0    0  0.56468561877E-02 -0.23094268113E-03 -0.57638897997E-02  0.80885020832E-02  0.51100000000E-03 0.  1.
         11    1    4    4    0    0  0.12230420641E+00  0.15722443028E-01 -0.21355363840E-01  0.12514722053E+00  0.51100000000E-03 0. -1.
</event>
<event>
 7    1  0.1132255E+005  0.1043930E+01  0.7957747E-01            NaN
         13   -1    0    0    0    0  0.00000000000E+00  0.00000000000E+00  0.74505805969E-08  0.10566000000E+00  0.10566000000E+00 0.  1.
     999900   -1    0    0    0    0 -0.00000000000E+00 -0.00000000000E+00 -0.74505805969E-08  0.93827000000E+00  0.93827000000E+00 0. -1.
     999903    2    1    2    0    0  0.22075092107E-01 -0.40004118734E-03 -0.84671261052E-01  0.89756112985E-01  0.19986686707E-01 0.  0.
         14    1    1    2    0    0  0.39674470140E-01  0.50024946558E-01  0.25116774932E-01  0.68610576750E-01  0.00000000000E+00 0. -1.
     999901    1    1    2    0    0 -0.61749562247E-01 -0.49624905371E-01  0.59554486120E-01  0.88556331027E+00  0.88000000000E+00 0.  1.
        -11    1    3    3    0    0  0.19820813104E-02  0.12288578865E-02 -0.46712150093E-01  0.46773120757E-01  0.51100000000E-03 0. -1.
         11    1    3    3    0    0  0.20093010796E-01 -0.16288990738E-02 -0.37959110959E-01  0.42982992227E-01  0.51100000000E-03 0.  1.
</event>
<event>
 8    1  0.1132255E+005  0.1043930E+01  0.7957747E-01            NaN
         13   -1    0    0    0    0  0.00000000000E+00  0.00000000000E+00  0.74505805969E-08  0.10566000000E+00  0.10566000000E+00 0.  1.
     999900   -1    0    0    0    0 -0.00000000000E+00 -0.00000000000E+00 -0.74505805969E-08  0.93827000000E+00  0.93827000000E+00 0.  1.
     999902    2    1    2    0    0 -0.12897291583E-01  0.91069222310E-02  0.17411059801E-01  0.10204263585E+01  0.10201556410E+01 0.  0.
     999903    2    3    3    0    0 -0.76837461614E-02 -0.12041338020E+00 -0.41397119692E-01  0.12898870400E+00  0.19129614600E-01 0.  0.
         14    1    1    2    0    0  0.12897291583E-01 -0.91069222310E-02 -0.17411059801E-01  0.23503641550E-01  0.00000000000E+00 0. -1.
     999901    1    3    3    0    0 -0.52135454220E-02  0.12952030243E+00  0.58808179493E-01  0.89143765445E+00  0.88000000000E+00 0. -1.
        -11    1    4    4    0    0  0.57604654107E-02 -0.32389338431E-01 -0.14619061490E-01  0.36003198269E-01  0.51100000000E-03 0.  1.
         11    1    4    4    0    0 -0.13444211572E-01 -0.88024041768E-01 -0.26778058203E-01  0.92985505731E-01  0.51100000000E-03 0. -1.
</event>
<event>
 8    1  0.1132255E+005  0.1043930E+01  0.7957747E-01            NaN
         13   -1    0    0    0    0  0.00000000000E+00  0.00000000000E+00  0.74505805969E-08  0.10566000000E+00  0.10566000000E+00 0.  1.
     999900   -1    0    0    0    0 -0.00000000000E+00 -0.00000000000E+00 -0.74505805969E-08  0.93827000000E+00  0.93827000000E+00 0. -1.
     999902    2    1    2    0    0 -0.25107118953E-01  0.20116932318E-02 -0.19001081010E-02  0.10186708483E+01  0.10183576349E+01 0.  0.
     999903    2    3    3    0    0 -0.15001754843E-01 -0.12586769682E+00  0.16767399025E-01  0.12917451186E+00  0.18362437033E-01 0.  0.
         14    1    1    2    0    0  0.25107118953E-01 -0.20116932318E-02  0.19001081010E-02  0.25259151660E-01  0.00000000000E+00 0.  1.
     999901    1    3    3    0    0 -0.10105364110E-01  0.12787939005E+00 -0.18667507126E-01  0.88949633648E+00  0.88000000000E+00 0.  1.
        -11    1    4    4    0    0  0.40928193147E-04 -0.73937159104E-01  0.75013056750E-02  0.74318476030E-01  0.51100000000E-03 0. -1.
         11    1    4    4    0    0 -0.15042683036E-01 -0.51930537716E-01  0.92660933505E-02  0.54856035834E-01  0.51100000000E-03 0.  1.
</event>
<event>
 8    1  0.1132255E+005  0.1043930E+01  0.7957747E-01            NaN
         13   -1    0    0    0    0  0.00000000000E+00  0.00000000000E+00  0.74505805969E-08  0.10566000000E+00  0.10566000000E+00 0. -1.
     999900   -1    0    0    0    0 -0.00000000000E+00 -0.00000000000E+00 -0.74505805969E-08  0.93827000000E+00  0.93827000000E+00 0.  1.
     999902    2    1    2    0    0 -0.15640659152E-01  0.17405609238E-01 -0.22884963186E-03  0.10205283372E+01  0.10202599909E+01 0.  0.
     999903    2    3    3    0    0  0.11049463714E-01  0.18835742660E-01 -0.12757626886E+00  0.13096002999E+00  0.19948664843E-01 0.  0.
         14    1    1    2    0    0  0.15640659152E-01 -0.17405609238E-01  0.22884963186E-03  0.23401662843E-01  0.00000000000E+00 0. -1.
     999901    1    3    3    0    0 -0.26690122866E-01 -0.14301334221E-02  0.12734741922E+00  0.88956830717E+00  0.88000000000E+00 0. -1.
        -11    1    4    4    0    0 -0.18216589343E-02  0.16245099945E-01 -0.75586937496E-01  0.77336071497E-01  0.51100000000E-03 0. -1.
         11    1    4    4    0    0  0.12871122649E-01  0.25906427152E-02 -0.51989331359E-01  0.53623958489E-01  0.51100000000E-03 0.  1.
</event>
<event>
 8    1  0.1132255E+005  0.1043930E+01  0.7957747E-01            NaN
         13   -1    0    0    0    0  0.00000000000E+00  0.00000000000E+00  0.74505805969E-08  0.10566000000E+00  0.10566000000E+00 0. -1.
     999900   -1    0    0    0    0 -0.00000000000E+00 -0.00000000000E+00 -0.74505805969E-08  0.93827000000E+00  0.93827000000E+00 0.  1.
     999902    2    1    2    0    0  0.16294594329E-02  0.12489371161E-01 -0.20297534988E-01  0.10200421483E+01  0.10197624012E+01 0.  0.
     999903    2    3    3    0    0 -0.18925377945E-01 -0.10982146756E+00 -0.63993670974E-01  0.13027150660E+00  0.21367050370E-01 0.  0.
         14    1    1    2    0    0 -0.16294594329E-02 -0.12489371161E-01  0.20297534988E-01  0.23887851654E-01  0.00000000000E+00 0. -1.
     999901    1    3    3    0    0  0.20554837378E-01  0.12231083872E+00  0.43696135985E-01  0.88977064174E+00  0.88000000000E+00 0. -1.
        -11    1    4    4    0    0 -0.33593122260E-02 -0.67936271119E-01 -0.45906966615E-01  0.82062979577E-01  0.51100000000E-03 0.  1.
         11    1    4    4    0    0 -0.15566065719E-01 -0.41885196437E-01 -0.18086704358E-01  0.48208527026E-01  0.51100000000E-03 0. -1.
</event>
<event>
 8    1  0.1132255E+005  0.1043930E+01  0.7957747E-01            NaN
         13   -1    0    0    0    0  0.00000000000E+00  0.00000000000E+00  0.74505805969E-08  0.10566000000E+00  0.10566000000E+00 0.  1.
     999900   -1    0    0    0    0 -0.00000000000E+00 -0.00000000000E+00 -0.74505805969E-08  0.93827000000E+00  0.93827000000E+00 0.  1.
     999902    2    1    2    0    0 -0.42557065439E-02  0.14223019247E-01 -0.17686245512E-01  0.10208386901E+01  0.10205774946E+01 0.  0.
     999903    2    3    3    0    0 -0.56245648949E-01 -0.84882518182E-01 -0.80739904062E-01  0.13151275120E+00  0.20200413413E-01 0.  0.
         14    1    1    2    0    0  0.42557065439E-02 -0.14223019247E-01  0.17686245512E-01  0.23091309945E-01  0.00000000000E+00 0.  1.
     999901    1    3    3    0    0  0.51989942406E-01  0.99105537429E-01  0.63053658550E-01  0.88932593885E+00  0.88000000000E+00 0. -1.
        -11    1    4    4    0    0 -0.31363937870E-01 -0.32463658621E-01 -0.28147835729E-01  0.53199130698E-01  0.51100000000E-03 0. -1.
         11    1    4    4    0    0 -0.24881711080E-01 -0.52418859561E-01 -0.52592068333E-01  0.78313620504E-01  0.51100000000E-03 0.  1.
</event>
<event>
 8    1  0.1132255E+005  0.1043930E+01  0.7957747E-01            NaN
         13   -1    0    0    0    0  0.00000000000E+00  0.00000000000E+00  0.74505805969E-08  0.10566000000E+00  0.10566000000E+00 0.  1.
     999900   -1    0    0    0    0 -0.00000000000E+00 -0.00000000000E+00 -0.74505805969E-08  0.93827000000E+00  0.93827000000E+00 0. -1.
     999902    2    1    2    0    0  0.10770073556E-01 -0.15038398295E-01 -0.14884221805E-01  0.10201878862E+01  0.10199115821E+01 0.  0.
     999903    2    3    3    0    0  0.12541548890E+00 -0.34880457298E-01  0.10559994191E-01  0.13216497735E+00  0.20257754128E-01 0.  0.
         14    1    1    2    0    0 -0.10770073556E-01  0.15038398295E-01  0.14884221805E-01  0.23742113773E-01  0.00000000000E+00 0.  1.
     999901    1    3    3    0    0 -0.11464541535E+00  0.19842059003E-01 -0.25444215996E-01  0.88802290888E+00  0.88000000000E+00 0. -1.
        -11    1    4    4    0    0  0.68610383260E-01 -0.22782628519E-01  0.15277277611E-01  0.73892416292E-01  0.51100000000E-03 0. -1.
         11    1    4    4    0    0  0.56805105642E-01 -0.12097828779E-01 -0.47172834196E-02  0.58272561056E-01  0.51100000000E-03 0.  1.
</event>
<event>
 8    1  0.1132255E+005  0.1043930E+01  0.7957747E-01            NaN
         13   -1    0    0    0    0  0.00000000000E+00  0.00000000000E+00  0.74505805969E-08  0.10566000000E+00  0.10566000000E+00 0.  1.
     999900   -1    0    0    0    0 -0.00000000000E+00 -0.00000000000E+00 -0.74505805969E-08  0.93827000000E+00  0.93827000000E+00 0.  1.
     999902    2    1    2    0    0  0.10544825231E-01 -0.13751933994E-01  0.17209324222E-01  0.10195072674E+01  0.10192146969E+01 0.  0.
     999903    2    3    3    0    0 -0.19575318480E-01  0.47280898855E-01 -0.11460720858E+00  0.12709042081E+00  0.19962121959E-01 0.  0.
         14    1    1    2    0    0 -0.10544825231E-01  0.13751933994E-01 -0.17209324222E-01  0.24422732605E-01  0.00000000000E+00 0. -1.
     999901    1    3    3    0    0  0.30120143710E-01 -0.61032832850E-01  0.13181653280E+00  0.89241684658E+00  0.88000000000E+00 0. -1.
        -11    1    4    4    0    0  0.28675948746E-02  0.10891912232E-01 -0.34373456585E-01  0.36175302224E-01  0.51100000000E-03 0. -1.
         11    1    4    4    0    0 -0.22442913354E-01  0.36388986623E-01 -0.80233751999E-01  0.90915118589E-01  0.51100000000E-03 0.  1.
</event>
<event>
 8    1  0.1132255E+005  0.1043930E+01  0.7957747E-01            NaN
         13   -1    0    0    0    0  0.00000000000E+00  0.00000000000E+00  0.74505805969E-08  0.10566000000E+00  0.10566000000E+00 0.  1.
     999900   -1    0    0    0    0 -0.00000000000E+00 -0.00000000000E+00 -0.74505805969E-08  0.93827000000E+00  0.93827000000E+00 0.  1.
     999902    2    1    2    0    0  0.23610407700E-01  0.53343812966E-02 -0.83117577099E-03  0.10197102182E+01  0.10194225480E+01 0.  0.
     999903    2    3    3    0    0 -0.11948753731E+00 -0.34013800047E-01 -0.18644096460E-01  0.12710582581E+00  0.19341107904E-01 0.  0.
         14    1    1    2    0    0 -0.23610407700E-01 -0.53343812966E-02  0.83117577099E-03  0.24219781764E-01  0.00000000000E+00 0. -1.
     999901    1    3    3    0    0  0.14309794501E+00  0.39348181344E-01  0.17812920689E-01  0.89260439243E+00  0.88000000000E+00 0.  1.
        -11    1    4    4    0    0 -0.19777008920E-01 -0.67454908066E-02 -0.10557217592E-01  0.23416824983E-01  0.51100000000E-03 0. -1.
         11    1    4    4    0    0 -0.99710528391E-01 -0.27268309240E-01 -0.80868788683E-02  0.10368900082E+00  0.51100000000E-03 0.  1.
</event>
<event>
 8    1  0.1132255E+005  0.1043930E+01  0.7957747E-01            NaN
         13   -1    0    0    0    0  0.00000000000E+00  0.00000000000E+00  0.74505805969E-08  0.10566000000E+00  0.10566000000E+00 0.  1.
     999900   -1    0    0    0    0 -0.00000000000E+00 -0.00000000000E+00 -0.74505805969E-08  0.93827000000E+00  0.93827000000E+00 0. -1.
     999902    2    1    2    0    0 -0.10717185606E-02 -0.16481309003E-01  0.17645145513E-01  0.10197611505E+01  0.10194747033E+01 0.  0.
     999903    2    3    3    0    0 -0.92009835576E-01  0.34183845601E-01  0.84524377216E-01  0.13110512554E+00  0.20244467319E-01 0.  0.
         14    1    1    2    0    0  0.10717185606E-02  0.16481309003E-01 -0.17645145513E-01  0.24168849523E-01  0.00000000000E+00 0. -1.
     999901    1    3    3    0    0  0.90938117016E-01 -0.50665154604E-01 -0.66879231703E-01  0.88865602493E+00  0.88000000000E+00 0. -1.
        -11    1    4    4    0    0 -0.57012950546E-01  0.11591265605E-01  0.54829374284E-01  0.79945952828E-01  0.51100000000E-03 0. -1.
         11    1    4    4    0    0 -0.34996885031E-01  0.22592579996E-01  0.29695002932E-01  0.51159172715E-01  0.51100000000E-03 0.  1.
</event>
<event>
 8    1  0.1132255E+005  0.1043930E+01  0.7957747E-01            NaN
         13   -1    0    0    0    0  0.00000000000E+00  0.00000000000E+00  0.74505805969E-08  0.10566000000E+00  0.10566000000E+00 0.  1.
     999900   -1    0    0    0    0 -0.00000000000E+00 -0.00000000000E+00 -0.74505805969E-08  0.93827000000E+00  0.93827000000E+00 0.  1.
     999902    2    1    2    0    0  0.87922353617E-02 -0.11380798583E-01 -0.17972559141E-01  0.10209117711E+01  0.10206522452E+01 0.  0.
     999903    2    3    3    0    0 -0.39031631320E-01  0.89245457768E-01  0.81132651915E-01  0.12836787384E+00  0.20188706068E-01 0.  0.
         14    1    1    2    0    0 -0.87922353617E-02  0.11380798583E-01  0.17972559141E-01  0.23018228888E-01  0.00000000000E+00 0.  1.
     999901    1    3    3    0    0  0.47823866682E-01 -0.10062625635E+00 -0.99105211056E-01  0.89254389727E+00  0.88000000000E+00 0.  1.
        -11    1    4    4    0    0 -0.14325265792E-01  0.49674486205E-01  0.32996871067E-01  0.61333697434E-01  0.51100000000E-03 0.  1.
         11    1    4    4    0    0 -0.24706365528E-01  0.39570971563E-01  0.48135780849E-01  0.67034176410E-01  0.51100000000E-03 0. -1.
</event>
<event>
 8    1  0.1132255E+005  0.1043930E+01  0.7957747E-01            NaN
         13   -1    0    0    0    0  0.00000000000E+00  0.00000000000E+00  0.74505805969E-08  0.10566000000E+00  0.10566000000E+00 0. -1.
     999900   -1    0    0    0    0 -0.00000000000E+00 -0.00000000000E+00 -0.74505805969E-08  0.93827000000E+00  0.93827000000E+00 0. -1.
     999902    2    1    2    0    0  0.46312052672E-02 -0.52627685186E-02 -0.22563241810E-01  0.10203027980E+01  0.10200291931E+01 0.  0.
     999903    2    3    3    0    0  0.10766551403E+00 -0.52191042447E-01  0.47733710012E-01  0.13026909462E+00  0.19384584545E-01 0.  0.
         14    1    1    2    0    0 -0.46312052672E-02  0.52627685186E-02  0.22563241810E-01  0.23627202028E-01  0.00000000000E+00 0.  1.
     999901    1    3    3    0    0 -0.10303430876E+00  0.46928273929E-01 -0.70296951822E-01  0.89003370336E+00  0.88000000000E+00 0. -1.
        -11    1    4    4    0    0  0.82533132148E-01 -0.37432837346E-01  0.27224940686E-01  0.94627658379E-01  0.51100000000E-03 0.  1.
         11    1    4    4    0    0  0.25132381879E-01 -0.14758205101E-01  0.20508769326E-01  0.35641436236E-01  0.51100000000E-03 0. -1.
</event>
<event>
 8    1  0.1132255E+005  0.1043930E+01  0.7957747E-01            NaN
         13   -1    0    0    0    0  0.00000000000E+00  0.00000000000E+00  0.74505805969E-08  0.10566000000E+00  0.10566000000E+00 0.  1.
     999900   -1    0    0    0    0 -0.00000000000E+00 -0.00000000000E+00 -0.74505805969E-08  0.93827000000E+00  0.93827000000E+00 0. -1.
     999902    2    1    2    0    0  0.21609533574E-01  0.71146425318E-02 -0.13456852879E-02  0.10211396304E+01  0.10208852745E+01 0.  0.
     999903    2    3    3    0    0 -0.43922226591E-03 -0.16386589344E-02 -0.12992359664E+00  0.13147955639E+00  0.20096135614E-01 0.  0.
         14    1    1    2    0    0 -0.21609533574E-01 -0.71146425318E-02  0.13456852879E-02  0.22790369644E-01  0.00000000000E+00 0. -1.
     999901    1    3    3    0    0  0.22048755840E-01  0.87533014662E-02  0.12857791135E+00  0.88966007396E+00  0.88000000000E+00 0.  1.
        -11    1    4    4    0    0 -0.43836634505E-02  0.80312475164E-02 -0.45728053041E-01  0.46637253326E-01  0.51100000000E-03 0.  1.
         11    1    4    4    0    0  0.39444411846E-02 -0.96699064508E-02 -0.84195543595E-01  0.84842303065E-01  0.51100000000E-03 0. -1.
</event>
<event>
 8    1  0.1132255E+005  0.1043930E+01  0.7957747E-01            NaN
         13   -1    0    0    0    0  0.00000000000E+00  0.00000000000E+00  0.74505805969E-08  0.10566000000E+00  0.10566000000E+00 0.  1.
     999900   -1    0    0    0    0 -0.00000000000E+00 -0.00000000000E+00 -0.74505805969E-08  0.93827000000E+00  0.93827000000E+00 0.  1.
     999902    2    1    2    0    0 -0.15678124477E-01 -0.16206291341E-01  0.50551165246E-02  0.10208215239E+01  0.10205599355E+01 0.  0.
     999903    2    3    3    0    0 -0.86689541312E-01  0.94985183732E-01 -0.15171389006E-01  0.13075676388E+00  0.18163109689E-01 0.  0.
         14    1    1    2    0    0  0.15678124477E-01  0.16206291341E-01 -0.50551165246E-02  0.23108476133E-01  0.00000000000E+00 0. -1.
     999901    1    3    3    0    0  0.71011416835E-01 -0.11119147507E+00  0.20226505531E-01  0.89006475999E+00  0.88000000000E+00 0. -1.
        -11    1    4    4    0    0 -0.20874480757E-01  0.14431671771E-01  0.14048052152E-02  0.25421480989E-01  0.51100000000E-03 0. -1.
         11    1    4    4    0    0 -0.65815060555E-01  0.80553511961E-01 -0.16576194221E-01  0.10533528289E+00  0.51100000000E-03 0.  1.
</event>
<event>
 8    1  0.1132255E+005  0.1043930E+01  0.7957747E-01            NaN
         13   -1    0    0    0    0  0.00000000000E+00  0.00000000000E+00  0.74505805969E-08  0.10566000000E+00  0.10566000000E+00 0. -1.
     999900   -1    0    0    0    0 -0.00000000000E+00 -0.00000000000E+00 -0.74505805969E-08  0.93827000000E+00  0.93827000000E+00 0. -1.
     999902    2    1    2    0    0 -0.16120545017E-01  0.22801657643E-02 -0.16578414522E-01  0.10206939299E+01  0.10204294113E+01 0.  0.
     999903    2    3    3    0    0 -0.45212196989E-01 -0.11538278768E+00  0.36443387482E-01  0.13080505684E+00  0.20603687905E-01 0.  0.
         14    1    1    2    0    0  0.16120545017E-01 -0.22801657643E-02  0.16578414522E-01  0.23236070142E-01  0.00000000000E+00 0. -1.
     999901    1    3    3    0    0  0.29091651972E-01  0.11766295344E+00 -0.53021802004E-01  0.88988887301E+00  0.88000000000E+00 0. -1.
        -11    1    4    4    0    0 -0.31859678465E-01 -0.68594450070E-01  0.12812798029E-01  0.76711580655E-01  0.51100000000E-03 0. -1.
         11    1    4    4    0    0 -0.13352518525E-01 -0.46788337609E-01  0.23630589453E-01  0.54093476188E-01  0.51100000000E-03 0.  1.
</event>
<event>
 8    1  0.1132255E+005  0.1043930E+01  0.7957747E-01            NaN
         13   -1    0    0    0    0  0.00000000000E+00  0.00000000000E+00  0.74505805969E-08  0.10566000000E+00  0.10566000000E+00 0.  1.
     999900   -1    0    0    0    0 -0.00000000000E+00 -0.00000000000E+00 -0.74505805969E-08  0.93827000000E+00  0.93827000000E+00 0. -1.
     999902    2    1    2    0    0 -0.12310558795E-02  0.17497706630E-01  0.15868846895E-01  0.10202761306E+01  0.10200019006E+01 0.  0.
     999903    2    3    3    0    0  0.11606416307E+00  0.36695610813E-01 -0.42061741006E-01  0.13039822834E+00  0.20421804425E-01 0.  0.
         14    1    1    2    0    0  0.12310558795E-02 -0.17497706630E-01 -0.15868846895E-01  0.23653869402E-01  0.00000000000E+00 0. -1.
     999901    1    3    3    0    0 -0.11729521895E+00 -0.19197904183E-01  0.57930587901E-01  0.88987790226E+00  0.88000000000E+00 0.  1.
        -11    1    4    4    0    0  0.15788163739E-01  0.12286442800E-01 -0.96928331097E-02  0.22235892733E-01  0.51100000000E-03 0. -1.
         11    1    4    4    0    0  0.10027599933E+00  0.24409168014E-01 -0.32368907896E-01  0.10816233561E+00  0.51100000000E-03 0.  1.
</event>
<event>
 8    1  0.1132255E+005  0.1043930E+01  0.7957747E-01            NaN
         13   -1    0    0    0    0  0.00000000000E+00  0.00000000000E+00  0.74505805969E-08  0.10566000000E+00  0.10566000000E+00 0. -1.
     999900   -1    0    0    0    0 -0.00000000000E+00 -0.00000000000E+00 -0.74505805969E-08  0.93827000000E+00  0.93827000000E+00 0. -1.
     999902    2    1    2    0    0  0.14803824414E-01 -0.70777251023E-02  0.17668980214E-01  0.10198169274E+01  0.10195318166E+01 0.  0.
     999903    2    3    3    0    0 -0.11806004866E+00  0.31741031915E-01  0.36667735444E-01  0.12879467323E+00  0.17259108691E-01 0.  0.
         14    1    1    2    0    0 -0.14803824414E-01  0.70777251023E-02 -0.17668980214E-01  0.24113072631E-01  0.00000000000E+00 0. -1.
     999901    1    3    3    0    0  0.13286387308E+00 -0.38818757017E-01 -0.18998755230E-01  0.89102225414E+00  0.88000000000E+00 0.  1.
        -11    1    4    4    0    0 -0.11124292213E-01 -0.13417288703E-02  0.60558905797E-02  0.12746962199E-01  0.51100000000E-03 0.  1.
         11    1    4    4    0    0 -0.10693575645E+00  0.33082760785E-01  0.30611844864E-01  0.11604771103E+00  0.51100000000E-03 0. -1.
</event>
<event>
 8    1  0.1132255E+005  0.1043930E+01  0.7957747E-01            NaN
         13   -1    0    0    0    0  0.00000000000E+00  0.00000000000E+00  0.74505805969E-08  0.10566000000E+00  0.10566000000E+00 0.  1.
     999900   -1    0    0    0    0 -0.00000000000E+00 -0.00000000000E+00 -0.74505805969E-08  0.93827000000E+00  0.93827000000E+00 0.  1.
     999902    2    1    2    0    0 -0.11486830977E-01  0.21805070221E-01 -0.36236795773E-02  0.10190193712E+01  0.10187148470E+01 0.  0.
     999903    2    3    3    0    0  0.51476480882E-01  0.81699092452E-01  0.85156417006E-01  0.13029355404E+00  0.20005626126E-01 0.  0.
         14    1    1    2    0    0  0.11486830977E-01 -0.21805070221E-01  0.36236795773E-02  0.24910628794E-01  0.00000000000E+00 0. -1.
     999901    1    3    3    0    0 -0.62963311860E-01 -0.59894022231E-01 -0.88780096583E-01  0.88872581716E+00  0.88000000000E+00 0.  1.
        -11    1    4    4    0    0  0.24788403333E-01  0.43749376295E-01  0.31406583427E-01  0.59288341768E-01  0.51100000000E-03 0.  1.
         11    1    4    4    0    0  0.26688077549E-01  0.37949716157E-01  0.53749833579E-01  0.71005212277E-01  0.51100000000E-03 0. -1.
</event>
<event>
 8    1  0.1132255E+005  0.1043930E+01  0.7957747E-01            NaN
         13   -1    0    0    0    0  0.00000000000E+00  0.00000000000E+00  0.74505805969E-08  0.10566000000E+00  0.10566000000E+00 0.  1.
     999900   -1    0    0    0    0 -0.00000000000E+00 -0.00000000000E+00 -0.74505805969E-08  0.93827000000E+00  0.93827000000E+00 0. -1.
     999902    2    1    2    0    0 -0.15742419632E-01  0.18308166067E-01  0.82955044967E-02  0.10183990753E+01  0.10180789991E+01 0.  0.
     999903    2    3    3    0    0  0.46719111655E-01 -0.82411837854E-01 -0.80605005401E-01  0.12601504209E+00  0.20204888668E-01 0.  0.
         14    1    1    2    0    0  0.15742419632E-01 -0.18308166067E-01 -0.82955044967E-02  0.25530924689E-01  0.00000000000E+00 0.  1.
     999901    1    3    3    0    0 -0.62461531287E-01  0.10072000392E+00  0.88900509898E-01  0.89238403322E+00  0.88000000000E+00 0.  1.
        -11    1    4    4    0    0  0.40669131559E-01 -0.60028270464E-01 -0.52201194228E-01  0.89345382177E-01  0.51100000000E-03 0.  1.
         11    1    4    4    0    0  0.60499800964E-02 -0.22383567390E-01 -0.28403811173E-01  0.36669659917E-01  0.51100000000E-03 0. -1.
</event>
<event>
 8    1  0.1132255E+005  0.1043930E+01  0.7957747E-01            NaN
         13   -1    0    0    0    0  0.00000000000E+00  0.00000000000E+00  0.74505805969E-08  0.10566000000E+00  0.10566000000E+00 0. -1.
     999900   -1    0    0    0    0 -0.00000000000E+00 -0.00000000000E+00 -0.74505805969E-08  0.93827000000E+00  0.93827000000E+00 0.  1.
     999902    2    1    2    0    0 -0.40805943602E-02 -0.38223319474E-02  0.27060140222E-01  0.10162982671E+01  0.10159225636E+01 0.  0.
     999903    2    3    3    0    0 -0.33224286569E-01  0.58519325146E-01  0.10906479998E+00  0.12981047748E+00  0.20670385436E-01 0.  0.
         14    1    1    2    0    0  0.40805943602E-02  0.38223319474E-02 -0.27060140222E-01  0.27631732857E-01  0.00000000000E+00 0.  1.
     999901    1    3    3    0    0  0.29143692209E-01 -0.62341657094E-01 -0.82004659760E-01  0.88648778967E+00  0.88000000000E+00 0.  1.
        -11    1    4    4    0    0 -0.89089833356E-02  0.31012317694E-01  0.38263413793E-01  0.50054807851E-01  0.51100000000E-03 0. -1.
         11    1    4    4    0    0 -0.24315303233E-01  0.27507007452E-01  0.70801386189E-01  0.79755669627E-01  0.51100000000E-03 0.  1.
</event>
<event>
 8    1  0.1132255E+005  0.1043930E+01  0.7957747E-01            NaN
         13   -1    0    0    0    0  0.00000000000E+00  0.00000000000E+00  0.74505805969E-08  0.10566000000E+00  0.10566000000E+00 0.  1.
     999900   -1    0    0    0    0 -0.00000000000E+00 -0.00000000000E+00 -0.74505805969E-08  0.93827000000E+00  0.93827000000E+00 0. -1.
     999902    2    1    2    0    0  0.12671891312E-01 -0.18773573525E-01  0.64904482765E-02  0.10203683827E+01  0.10200963124E+01 0.  0.
     999903    2    3    3    0    0 -0.11793798097E+00  0.45855096450E-01  0.81686897469E-02  0.12838260912E+00  0.20082569758E-01 0.  0.
         14    1    1    2    0    0 -0.12671891312E-01  0.18773573525E-01 -0.64904482765E-02  0.23561617329E-01  0.00000000000E+00 0. -1.
     999901    1    3    3    0    0  0.13060987228E+00 -0.64628669975E-01 -0.16782414704E-02  0.89198577355E+00  0.88000000000E+00 0.  1.
        -11    1    4    4    0    0 -0.46299936319E-01  0.12048877841E-01  0.11089288418E-01  0.49113063425E-01  0.51100000000E-03 0.  1.
         11    1    4    4    0    0 -0.71638044647E-01  0.33806218608E-01 -0.29205986708E-02  0.79269545697E-01  0.51100000000E-03 0. -1.
</event>
<event>
 8    1  0.1132255E+005  0.1043930E+01  0.7957747E-01            NaN
         13   -1    0    0    0    0  0.00000000000E+00  0.00000000000E+00  0.74505805969E-08  0.10566000000E+00  0.10566000000E+00 0.  1.
     999900   -1    0    0    0    0 -0.00000000000E+00 -0.00000000000E+00 -0.74505805969E-08  0.93827000000E+00  0.93827000000E+00 0.  1.
     999902    2    1    2    0    0  0.72851290780E-02  0.12542568319E-01 -0.18642811202E-01  0.10203091716E+01  0.10200357161E+01 0.  0.
     999903    2    3    3    0    0  0.48185074913E-01 -0.11578031694E+00 -0.28055031868E-01  0.13001250285E+00  0.19730252126E-01 0.  0.
         14    1    1    2    0    0 -0.72851290780E-02 -0.12542568319E-01  0.18642811202E-01  0.23620828420E-01  0.00000000000E+00 0.  1.
     999901    1    3    3    0    0 -0.40899945835E-01  0.12832288526E+00  0.94122206661E-02  0.89029666873E+00  0.88000000000E+00 0. -1.
        -11    1    4    4    0    0  0.14004607975E-01 -0.53278479958E-01 -0.58902334185E-02  0.55404705955E-01  0.51100000000E-03 0.  1.
         11    1    4    4    0    0  0.34180466938E-01 -0.62501836985E-01 -0.22164798450E-01  0.74607796897E-01  0.51100000000E-03 0. -1.
</event>
<event>
 8    1  0.1132255E+005  0.1043930E+01  0.7957747E-01            NaN
         13   -1    0    0    0    0  0.00000000000E+00  0.00000000000E+00  0.74505805969E-08  0.10566000000E+00  0.10566000000E+00 0. -1.
     999900   -1    0    0    0    0 -0.00000000000E+00 -0.00000000000E+00 -0.74505805969E-08  0.93827000000E+00  0.93827000000E+00 0. -1.
     999902    2    1    2    0    0 -0.27128034756E-01 -0.10382417768E-01  0.35311320967E-02  0.10146692112E+01  0.10142472156E+01 0.  0.
     999903    2    3    3    0    0  0.17361137333E-01  0.12229213532E-01 -0.12106403297E+00  0.12449252790E+00  0.19771865614E-01 0.  0.
         14    1    1    2    0    0  0.27128034756E-01  0.10382417768E-01 -0.35311320967E-02  0.29260788820E-01  0.00000000000E+00 0. -1.
     999901    1    3    3    0    0 -0.44489172089E-01 -0.22611631301E-01  0.12459516507E+00  0.89017668328E+00  0.88000000000E+00 0.  1.
        -11    1    4    4    0    0  0.56642535343E-02  0.15610728811E-01 -0.62238328882E-01  0.64417771812E-01  0.51100000000E-03 0. -1.
         11    1    4    4    0    0  0.11696883799E-01 -0.33815152785E-02 -0.58825704089E-01  0.60074756085E-01  0.51100000000E-03 0.  1.
</event>
<event>
 8    1  0.1132255E+005  0.1043930E+01  0.7957747E-01            NaN
         13   -1    0    0    0    0  0.00000000000E+00  0.00000000000E+00  0.74505805969E-08  0.10566000000E+00  0.10566000000E+00 0.  1.
     999900   -1    0    0    0    0 -0.00000000000E+00 -0.00000000000E+00 -0.74505805969E-08  0.93827000000E+00  0.93827000000E+00 0.  1.
     999902    2    1    2    0    0  0.20445385175E-01 -0.77162523095E-03  0.14744986354E-01  0.10187104877E+01  0.10183982688E+01 0.  0.
     999903    2    3    3    0    0  0.93856707748E-03 -0.85238048820E-01 -0.93120603332E-01  0.12789620953E+00  0.20483841746E-01 0.  0.
         14    1    1    2    0    0 -0.20445385175E-01  0.77162523095E-03 -0.14744986354E-01  0.25219512348E-01  0.00000000000E+00 0. -1.
     999901    1    3    3    0    0  0.19506818098E-01  0.84466423589E-01  0.10786558969E+00  0.89081427812E+00  0.88000000000E+00 0. -1.
        -11    1    4    4    0    0 -0.52156894996E-02 -0.13958155376E-01 -0.24990135033E-01  0.29099853753E-01  0.51100000000E-03 0.  1.
         11    1    4    4    0    0  0.61542565771E-02 -0.71279893445E-01 -0.68130468299E-01  0.98796355779E-01  0.51100000000E-03 0. -1.
</event>
<event>
 8    1  0.1132255E+005  0.1043930E+01  0.7957747E-01            NaN
         13   -1    0    0    0    0  0.00000000000E+00  0.00000000000E+00  0.74505805969E-08  0.10566000000E+00  0.10566000000E+00 0.  1.
     999900   -1    0    0    0    0 -0.00000000000E+00 -0.00000000000E+00 -0.74505805969E-08  0.93827000000E+00  0.93827000000E+00 0.  1.
     999902    2    1    2    0    0  0.93958143252E-02  0.21547674358E-01 -0.17793785759E-01  0.10144477611E+01  0.10140192590E+01 0.  0.
     999903    2    3    3    0    0  0.10445829701E+00  0.36225969103E-01 -0.61640944217E-01  0.12812112763E+00  0.19787892475E-01 0.  0.
         14    1    1    2    0    0 -0.93958143252E-02 -0.21547674358E-01  0.17793785759E-01  0.29482238869E-01  0.00000000000E+00 0.  1.
     999901    1    3    3    0    0 -0.95062482688E-01 -0.14678294745E-01  0.43847158458E-01  0.88632663350E+00  0.88000000000E+00 0. -1.
        -11    1    4    4    0    0  0.39647482166E-01  0.22873460042E-01 -0.30344322421E-01  0.54919550623E-01  0.51100000000E-03 0.  1.
         11    1    4    4    0    0  0.64810814847E-01  0.13352509061E-01 -0.31296621795E-01  0.73201577005E-01  0.51100000000E-03 0. -1.
</event>
<event>
 8    1  0.1132255E+005  0.1043930E+01  0.7957747E-01            NaN
         13   -1    0    0    0    0  0.00000000000E+00  0.00000000000E+00  0.74505805969E-08  0.10566000000E+00  0.10566000000E+00 0. -1.
     999900   -1    0    0    0    0 -0.00000000000E+00 -0.00000000000E+00 -0.74505805969E-08  0.93827000000E+00  0.93827000000E+00 0.  1.
     999902    2    1    2    0    0  0.22972578107E-01  0.48637495712E-02  0.99233250131E-03  0.10204272315E+01  0.10201565344E+01 0.  0.
     999903    2    3    3    0    0  0.18879820273E-01 -0.94924089219E-01  0.85245331042E-01  0.13077958706E+00  0.21668031757E-01 0.  0.
         14    1    1    2    0    0 -0.22972578107E-01 -0.48637495712E-02 -0.99233250131E-03  0.23502768530E-01  0.00000000000E+00 0.  1.
     999901    1    3    3    0    0  0.40927578342E-02  0.99787838790E-01 -0.84252998541E-01  0.88964764441E+00  0.88000000000E+00 0.  1.
        -11    1    4    4    0    0 -0.15700302898E-02 -0.15613530958E-01  0.23257383051E-01  0.28060903967E-01  0.51100000000E-03 0. -1.
         11    1    4    4    0    0  0.20449850562E-01 -0.79310558261E-01  0.61987947992E-01  0.10271868310E+00  0.51100000000E-03 0.  1.
</event>
<event>
 8    1  0.1132255E+005  0.1043930E+01  0.7957747E-01            NaN
         13   -1    0    0    0    0  0.00000000000E+00  0.00000000000E+00  0.74505805969E-08  0.10566000000E+00  0.10566000000E+00 0.  1.
     999900   -1    0    0    0    0 -0.00000000000E+00 -0.00000000000E+00 -0.74505805969E-08  0.93827000000E+00  0.93827000000E+00 0. -1.
     999902    2    1    2    0    0 -0.79498271677E-02 -0.13593687253E-01 -0.17497391226E-01  0.10203896775E+01  0.10201181045E+01 0.  0.
     999903    2    3    3    0    0 -0.15636121252E-01  0.76937641957E-01 -0.10385144727E+00  0.13150721973E+00  0.18577855147E-01 0.  0.
         14    1    1    2    0    0  0.79498271677E-02  0.13593687253E-01  0.17497391226E-01  0.23540322530E-01  0.00000000000E+00 0.  1.
     999901    1    3    3    0    0  0.76862940844E-02 -0.90531329211E-01  0.86354056048E-01  0.88888245774E+00  0.88000000000E+00 0.  1.
        -11    1    4    4    0    0  0.10547601366E-02  0.36343665655E-01 -0.53787351761E-01  0.64925456353E-01  0.51100000000E-03 0. -1.
         11    1    4    4    0    0 -0.16690881389E-01  0.40593976303E-01 -0.50064095513E-01  0.66581763375E-01  0.51100000000E-03 0.  1.
</event>
<event>
 8    1  0.1132255E+005  0.1043930E+01  0.7957747E-01            NaN
         13   -1    0    0    0    0  0.00000000000E+00  0.00000000000E+00  0.74505805969E-08  0.10566000000E+00  0.10566000000E+00 0. -1.
     999900   -1    0    0    0    0 -0.00000000000E+00 -0.00000000000E+00 -0.74505805969E-08  0.93827000000E+00  0.93827000000E+00 0. -1.
     999902    2    1    2    0    0 -0.14644051258E-01 -0.83282901919E-02 -0.17672070859E-01  0.10195146208E+01  0.10192222286E+01 0.  0.
     999903    2    3    3    0    0 -0.10407413993E+00  0.52503471724E-01  0.52189802480E-01  0.13014466098E+00  0.25016317750E-01 0.  0.
         14    1    1    2    0    0  0.14644051258E-01  0.83282901919E-02  0.17672070859E-01  0.24415379235E-01  0.00000000000E+00 0. -1.
     999901    1    3    3    0    0  0.89430088673E-01 -0.60831761916E-01 -0.69861873339E-01  0.88936995978E+00  0.88000000000E+00 0. -1.
        -11    1    4    4    0    0 -0.71447925276E-01  0.22619315028E-01  0.34228999047E-01  0.82391291623E-01  0.51100000000E-03 0.  1.
         11    1    4    4    0    0 -0.32626214655E-01  0.29884156696E-01  0.17960803434E-01  0.47753369359E-01  0.51100000000E-03 0. -1.
</event>
<event>
 8    1  0.1132255E+005  0.1043930E+01  0.7957747E-01            NaN
         13   -1    0    0    0    0  0.00000000000E+00  0.00000000000E+00  0.74505805969E-08  0.10566000000E+00  0.10566000000E+00 0. -1.
     999900   -1    0    0    0    0 -0.00000000000E+00 -0.00000000000E+00 -0.74505805969E-08  0.93827000000E+00  0.93827000000E+00 0. -1.
     999902    2    1    2    0    0  0.12031052131E-01  0.70890277180E-02  0.15934211102E-01  0.10227427488E+01  0.10225232666E+01 0.  0.
     999903    2    3    3    0    0  0.14432545144E-01  0.77722372985E-01  0.10683162628E+00  0.13524222672E+00  0.25067865741E-01 0.  0.
         14    1    1    2    0    0 -0.12031052131E-01 -0.70890277180E-02 -0.15934211102E-01  0.21187251186E-01  0.00000000000E+00 0. -1.
     999901    1    3    3    0    0 -0.24014930127E-02 -0.70633345267E-01 -0.90897415177E-01  0.88750052209E+00  0.88000000000E+00 0. -1.
        -11    1    4    4    0    0  0.14091536691E-02  0.47291738046E-01  0.46023440790E-01  0.66006911946E-01  0.51100000000E-03 0.  1.
         11    1    4    4    0    0  0.13023391474E-01  0.30430634939E-01  0.60808185490E-01  0.69235314774E-01  0.51100000000E-03 0. -1.
</event>
<event>
 8    1  0.1132255E+005  0.1043930E+01  0.7957747E-01            NaN
         13   -1    0    0    0    0  0.00000000000E+00  0.00000000000E+00  0.74505805969E-08  0.10566000000E+00  0.10566000000E+00 0. -1.
     999900   -1    0    0    0    0 -0.00000000000E+00 -0.00000000000E+00 -0.74505805969E-08  0.93827000000E+00  0.93827000000E+00 0. -1.
     999902    2    1    2    0    0  0.18045312040E-01  0.84177629058E-02  0.12098545545E-01  0.10206304974E+01  0.10203645159E+01 0.  0.
     999903    2    3    3    0    0  0.23841618179E-01 -0.73300438831E-01 -0.10207470914E+00  0.12948124289E+00  0.20118869817E-01 0.  0.
         14    1    1    2    0    0 -0.18045312040E-01 -0.84177629058E-02 -0.12098545545E-01  0.23299502640E-01  0.00000000000E+00 0.  1.
     999901    1    3    3    0    0 -0.57963061389E-02  0.81718201737E-01  0.11417325469E+00  0.89114925447E+00  0.88000000000E+00 0.  1.
        -11    1    4    4    0    0  0.43412859519E-02 -0.24350656275E-01 -0.47871069568E-01  0.53886006043E-01  0.51100000000E-03 0.  1.
         11    1    4    4    0    0  0.19500332227E-01 -0.48949782557E-01 -0.54203639576E-01  0.75595236845E-01  0.51100000000E-03 0. -1.
</event>
<event>
 8    1  0.1132255E+005  0.1043930E+01  0.7957747E-01            NaN
         13   -1    0    0    0    0  0.00000000000E+00  0.00000000000E+00  0.74505805969E-08  0.10566000000E+00  0.10566000000E+00 0.  1.
     999900   -1    0    0    0    0 -0.00000000000E+00 -0.00000000000E+00 -0.74505805969E-08  0.93827000000E+00  0.93827000000E+00 0.  1.
     999902    2    1    2    0    0  0.25771620196E-01  0.13026123584E-02 -0.22224522379E-02  0.10180299517E+01  0.10177004324E+01 0.  0.
     999903    2    3    3    0    0  0.88526056351E-01  0.32730925347E-01 -0.88651234178E-01  0.13101484900E+00  0.19941745436E-01 0.  0.
         14    1    1    2    0    0 -0.25771620196E-01 -0.13026123584E-02  0.22224522379E-02  0.25900048271E-01  0.00000000000E+00 0.  1.
     999901    1    3    3    0    0 -0.62754436155E-01 -0.31428312989E-01  0.86428781940E-01  0.88701510272E+00  0.88000000000E+00 0.  1.
        -11    1    4    4    0    0  0.25776717370E-01  0.19385189043E-01 -0.27582478407E-01  0.42441476749E-01  0.51100000000E-03 0. -1.
         11    1    4    4    0    0  0.62749338981E-01  0.13345736304E-01 -0.61068755772E-01  0.88573372255E-01  0.51100000000E-03 0.  1.
</event>
<event>
 8    1  0.1132255E+005  0.1043930E+01  0.7957747E-01            NaN
         13   -1    0    0    0    0  0.00000000000E+00  0.00000000000E+00  0.74505805969E-08  0.10566000000E+00  0.10566000000E+00 0.  1.
     999900   -1    0    0    0    0 -0.00000000000E+00 -0.00000000000E+00 -0.74505805969E-08  0.93827000000E+00  0.93827000000E+00 0.  1.
     999902    2    1    2    0    0  0.12254296670E-01  0.14692626452E-01  0.14000171755E-01  0.10202224934E+01  0.10199470036E+01 0.  0.
     999903    2    3    3    0    0 -0.11333859529E+00  0.43768691994E-01 -0.39456765025E-01  0.12922494225E+00  0.19517013461E-01 0.  0.
         14    1    1    2    0    0 -0.12254296670E-01 -0.14692626452E-01 -0.14000171755E-01  0.23707506577E-01  0.00000000000E+00 0. -1.
     999901    1    3    3    0    0  0.12559289196E+00 -0.29076065541E-01  0.53456936781E-01  0.89099755117E+00  0.88000000000E+00 0. -1.
        -11    1    4    4    0    0 -0.14873325906E-01  0.13321165929E-01 -0.56888913142E-02  0.20767616392E-01  0.51100000000E-03 0.  1.
         11    1    4    4    0    0 -0.98465269379E-01  0.30447526065E-01 -0.33767873711E-01  0.10845732586E+00  0.51100000000E-03 0. -1.
</event>
<event>
 8    1  0.1132255E+005  0.1043930E+01  0.7957747E-01            NaN
         13   -1    0    0    0    0  0.00000000000E+00  0.00000000000E+00  0.74505805969E-08  0.10566000000E+00  0.10566000000E+00 0.  1.
     999900   -1    0    0    0    0 -0.00000000000E+00 -0.00000000000E+00 -0.74505805969E-08  0.93827000000E+00  0.93827000000E+00 0.  1.
     999902    2    1    2    0    0  0.48218983199E-02  0.46479452599E-02 -0.19020462856E-01  0.10237648790E+01  0.10235662633E+01 0.  0.
     999903    2    3    3    0    0 -0.87865818638E-01 -0.27664128371E-01  0.91443417706E-01  0.13144355127E+00  0.20731677333E-01 0.  0.
         14    1    1    2    0    0 -0.48218983199E-02 -0.46479452599E-02  0.19020462856E-01  0.20165121021E-01  0.00000000000E+00 0. -1.
     999901    1    3    3    0    0  0.92687716958E-01  0.32312073631E-01 -0.11046388056E+00  0.89232132771E+00  0.88000000000E+00 0.  1.
        -11    1    4    4    0    0 -0.41417584786E-01 -0.22872112852E-01  0.52125280522E-01  0.70397839926E-01  0.51100000000E-03 0.  1.
         11    1    4    4    0    0 -0.46448233852E-01 -0.47920155188E-02  0.39318137185E-01  0.61045711343E-01  0.51100000000E-03 0. -1.
</event>
<event>
 8    1  0.1132255E+005  0.1043930E+01  0.7957747E-01            NaN
         13   -1    0    0    0    0  0.00000000000E+00  0.00000000000E+00  0.74505805969E-08  0.10566000000E+00  0.10566000000E+00 0.  1.
     999900   -1    0    0    0    0 -0.00000000000E+00 -0.00000000000E+00 -0.74505805969E-08  0.93827000000E+00  0.93827000000E+00 0. -1.
     999902    2    1    2    0    0  0.37971975066E-02 -0.15694935266E-01  0.17105547920E-01  0.10204066186E+01  0.10201354409E+01 0.  0.
     999903    2    3    3    0    0 -0.54896631947E-01 -0.10213199460E+00 -0.57857666800E-01  0.13106089597E+00  0.19617959238E-01 0.  0.
         14    1    1    2    0    0 -0.37971975066E-02  0.15694935266E-01 -0.17105547920E-01  0.23523381380E-01  0.00000000000E+00 0. -1.
     999901    1    3    3    0    0  0.58693829454E-01  0.86437059330E-01  0.74963214721E-01  0.88934572265E+00  0.88000000000E+00 0.  1.
        -11    1    4    4    0    0 -0.20777950831E-01 -0.41108238346E-01 -0.33752839829E-01  0.57106267766E-01  0.51100000000E-03 0.  1.
         11    1    4    4    0    0 -0.34118681116E-01 -0.61023756249E-01 -0.24104826971E-01  0.73954628200E-01  0.51100000000E-03 0. -1.
</event>
<event>
 8    1  0.1132255E+005  0.1043930E+01  0.7957747E-01            NaN
         13   -1    0    0    0    0  0.00000000000E+00  0.00000000000E+00  0.74505805969E-08  0.10566000000E+00  0.10566000000E+00 0. -1.
     999900   -1    0    0    0    0 -0.00000000000E+00 -0.00000000000E+00 -0.74505805969E-08  0.93827000000E+00  0.93827000000E+00 0. -1.
     999902    2    1    2    0    0  0.51114520433E-02 -0.10419358461E-02 -0.22851710152E-01  0.10204904345E+01  0.10202212082E+01 0.  0.
     999903    2    3    3    0    0  0.98291257043E-01  0.84415665928E-01 -0.51989268513E-02  0.13127893072E+00  0.20492753475E-01 0.  0.
         14    1    1    2    0    0 -0.51114520433E-02  0.10419358461E-02  0.22851710152E-01  0.23439565465E-01  0.00000000000E+00 0. -1.
     999901    1    3    3    0    0 -0.93179805000E-01 -0.85457601775E-01 -0.17652783301E-01  0.88921150382E+00  0.88000000000E+00 0.  1.
        -11    1    4    4    0    0  0.41556629182E-01  0.31768966431E-01  0.74928678836E-02  0.52845291628E-01  0.51100000000E-03 0. -1.
         11    1    4    4    0    0  0.56734627861E-01  0.52646699497E-01 -0.12691794735E-01  0.78433639091E-01  0.51100000000E-03 0.  1.
</event>
<event>
 8    1  0.1132255E+005  0.1043930E+01  0.7957747E-01            NaN
         13   -1    0    0    0    0  0.00000000000E+00  0.00000000000E+00  0.74505805969E-08  0.10566000000E+00  0.10566000000E+00 0.  1.
     999900   -1    0    0    0    0 -0.00000000000E+00 -0.00000000000E+00 -0.74505805969E-08  0.93827000000E+00  0.93827000000E+00 0. -1.
     999902    2    1    2    0    0  0.83099496685E-02  0.18252471500E-01  0.28396653999E-03  0.10238728662E+01  0.10236763930E+01 0.  0.
     999903    2    3    3    0    0  0.12025053962E+00 -0.54689069732E-01  0.52175103971E-02  0.13377427392E+00  0.20426632648E-01 0.  0.
         14    1    1    2    0    0 -0.83099496685E-02 -0.18252471500E-01 -0.28396653999E-03  0.20057133802E-01  0.00000000000E+00 0. -1.
     999901    1    3    3    0    0 -0.11194058995E+00  0.72941541232E-01 -0.49335438571E-02  0.89009859228E+00  0.88000000000E+00 0. -1.
        -11    1    4    4    0    0  0.56549187045E-01 -0.36095249934E-01  0.64754324711E-02  0.67400815795E-01  0.51100000000E-03 0. -1.
         11    1    4    4    0    0  0.63701352577E-01 -0.18593819799E-01 -0.12579220741E-02  0.66373458127E-01  0.51100000000E-03 0.  1.
</event>
<event>
 8    1  0.1132255E+005  0.1043930E+01  0.7957747E-01            NaN
         13   -1    0    0    0    0  0.00000000000E+00  0.00000000000E+00  0.74505805969E-08  0.10566000000E+00  0.10566000000E+00 0.  1.
     999900   -1    0    0    0    0 -0.00000000000E+00 -0.00000000000E+00 -0.74505805969E-08  0.93827000000E+00  0.93827000000E+00 0. -1.
     999902    2    1    2    0    0 -0.48531354453E-02  0.23259300580E-01  0.14289840048E-01  0.10162037035E+01  0.10158253883E+01 0.  0.
     999903    2    3    3    0    0 -0.13616762270E-01  0.11002915135E+00 -0.62043703035E-01  0.12860434687E+00  0.19945590606E-01 0.  0.
         14    1    1    2    0    0  0.48531354453E-02 -0.23259300580E-01 -0.14289840048E-01  0.27726296466E-01  0.00000000000E+00 0. -1.
     999901    1    3    3    0    0  0.87636268248E-02 -0.86769850772E-01  0.76333543083E-01  0.88759935667E+00  0.88000000000E+00 0.  1.
        -11    1    4    4    0    0  0.10919732078E-02  0.55418040796E-01 -0.37650865336E-01  0.67008957854E-01  0.51100000000E-03 0.  1.
         11    1    4    4    0    0 -0.14708735478E-01  0.54611110556E-01 -0.24392837699E-01  0.61595389012E-01  0.51100000000E-03 0. -1.
</event>
<event>
 8    1  0.1132255E+005  0.1043930E+01  0.7957747E-01            NaN
         13   -1    0    0    0    0  0.00000000000E+00  0.00000000000E+00  0.74505805969E-08  0.10566000000E+00  0.10566000000E+00 0.  1.
     999900   -1    0    0    0    0 -0.00000000000E+00 -0.00000000000E+00 -0.74505805969E-08  0.93827000000E+00  0.93827000000E+00 0. -1.
     999902    2    1    2    0    0  0.62298923990E-03 -0.12349927102E-01 -0.20173394091E-01  0.10202683296E+01  0.10199939166E+01 0.  0.
     999903    2    3    3    0    0  0.11866439249E+00 -0.20639384569E-01  0.45698443568E-01  0.12990796047E+00  0.16748379331E-01 0.  0.
         14    1    1    2    0    0 -0.62298923990E-03  0.12349927102E-01  0.20173394091E-01  0.23661670359E-01  0.00000000000E+00 0.  1.
     999901    1    3    3    0    0 -0.11804140325E+00  0.82894574666E-02 -0.65871837659E-01  0.89036036917E+00  0.88000000000E+00 0.  1.
        -11    1    4    4    0    0  0.39271783963E-01 -0.14238236179E-02  0.21052544665E-01  0.44584426061E-01  0.51100000000E-03 0.  1.
         11    1    4    4    0    0  0.79392608525E-01 -0.19215560951E-01  0.24645898903E-01  0.85323534414E-01  0.51100000000E-03 0. -1.
</event>
<event>
 8    1  0.1132255E+005  0.1043930E+01  0.7957747E-01            NaN
         13   -1    0    0    0    0  0.00000000000E+00  0.00000000000E+00  0.74505805969E-08  0.10566000000E+00  0.10566000000E+00 0.  1.
     999900   -1    0    0    0    0 -0.00000000000E+00 -0.00000000000E+00 -0.74505805969E-08  0.93827000000E+00  0.93827000000E+00 0. -1.
     999902    2    1    2    0    0  0.24528182413E-01  0.21936367204E-02  0.81209334410E-03  0.10192905343E+01  0.10189926840E+01 0.  0.
     999903    2    3    3    0    0 -0.10000588659E+00  0.63113701813E-01 -0.42641886171E-01  0.12737784966E+00  0.20549195116E-01 0.  0.
         14    1    1    2    0    0 -0.24528182413E-01 -0.21936367204E-02 -0.81209334410E-03  0.24639465703E-01  0.00000000000E+00 0.  1.
     999901    1    3    3    0    0  0.12453406900E+00 -0.60920065092E-01  0.43453979515E-01  0.89191268463E+00  0.88000000000E+00 0.  1.
        -11    1    4    4    0    0 -0.65241105488E-01  0.35453919397E-01 -0.35771074870E-01  0.82420951003E-01  0.51100000000E-03 0.  1.
         11    1    4    4    0    0 -0.34764781101E-01  0.27659782416E-01 -0.68708113009E-02  0.44956898661E-01  0.51100000000E-03 0. -1.
</event>
<event>
 8    1  0.1132255E+005  0.1043930E+01  0.7957747E-01            NaN
         13   -1    0    0    0    0  0.00000000000E+00  0.00000000000E+00  0.74505805969E-08  0.10566000000E+00  0.10566000000E+00 0.  1.
     999900   -1    0    0    0    0 -0.00000000000E+00 -0.00000000000E+00 -0.74505805969E-08  0.93827000000E+00  0.93827000000E+00 0. -1.
     999902    2    1    2    0    0  0.85557760373E-02  0.37879095235E-02  0.21265470102E-01  0.10206970540E+01  0.10204326074E+01 0.  0.
     999903    2    3    3    0    0  0.65261862498E-01  0.81790382373E-01  0.80906880621E-01  0.13342197608E+00  0.17513509753E-01 0.  0.
         14    1    1    2    0    0 -0.85557760373E-02 -0.37879095235E-02 -0.21265470102E-01  0.23232946021E-01  0.00000000000E+00 0. -1.
     999901    1    3    3    0    0 -0.56706086460E-01 -0.78002472850E-01 -0.59641410519E-01  0.88727507790E+00  0.88000000000E+00 0. -1.
        -11    1    4    4    0    0  0.46980030413E-02  0.20413985500E-02  0.81557480420E-02  0.96444744668E-02  0.51100000000E-03 0.  1.
         11    1    4    4    0    0  0.60563859456E-01  0.79748983823E-01  0.72751132579E-01  0.12377750161E+00  0.51100000000E-03 0. -1.
</event>
<event>
 8    1  0.1132255E+005  0.1043930E+01  0.7957747E-01            NaN
         13   -1    0    0    0    0  0.00000000000E+00  0.00000000000E+00  0.74505805969E-08  0.10566000000E+00  0.10566000000E+00 0.  1.
     999900   -1    0    0    0    0 -0.00000000000E+00 -0.00000000000E+00 -0.74505805969E-08  0.93827000000E+00  0.93827000000E+00 0.  1.
     999902    2    1    2    0    0  0.19146519546E-01 -0.12511062533E-01  0.38453804824E-02  0.10207372674E+01  0.10204737459E+01 0.  0.
     999903    2    3    3    0    0 -0.19646303069E-01 -0.61227350268E-01 -0.11228744112E+00  0.13092549399E+00  0.19956199470E-01 0.  0.
         14    1    1    2    0    0 -0.19146519546E-01  0.12511062533E-01 -0.38453804824E-02  0.23192732644E-01  0.00000000000E+00 0. -1.
     999901    1    3    3    0    0  0.38792822615E-01  0.48716287734E-01  0.11613282160E+00  0.88981177337E+00  0.88000000000E+00 0. -1.
        -11    1    4    4    0    0 -0.10569791931E-01 -0.29743714772E-01 -0.74469195522E-01  0.80884678850E-01  0.51100000000E-03 0. -1.
         11    1    4    4    0    0 -0.90765111385E-02 -0.31483635495E-01 -0.37818245596E-01  0.50040815135E-01  0.51100000000E-03 0.  1.
</event>
<event>
 8    1  0.1132255E+005  0.1043930E+01  0.7957747E-01            NaN
         13   -1    0    0    0    0  0.00000000000E+00  0.00000000000E+00  0.74505805969E-08  0.10566000000E+00  0.10566000000E+00 0.  1.
     999900   -1    0    0    0    0 -0.00000000000E+00 -0.00000000000E+00 -0.74505805969E-08  0.93827000000E+00  0.93827000000E+00 0.  1.
     999902    2    1    2    0    0 -0.74732513189E-02 -0.66832861523E-02 -0.20846196025E-01  0.10207982105E+01  0.10205360879E+01 0.  0.
     999903    2    3    3    0    0 -0.57076135312E-01  0.11445735105E+00  0.15194496655E-01  0.13038570402E+00  0.20282718083E-01 0.  0.
         14    1    1    2    0    0  0.74732513189E-02  0.66832861523E-02  0.20846196025E-01  0.23131789550E-01  0.00000000000E+00 0.  1.
     999901    1    3    3    0    0  0.49602883993E-01 -0.12114063720E+00 -0.36040692680E-01  0.89041250643E+00  0.88000000000E+00 0.  1.
        -11    1    4    4    0    0 -0.36470102972E-01  0.73044891526E-01  0.19456422597E-01  0.83931150892E-01  0.51100000000E-03 0. -1.
         11    1    4    4    0    0 -0.20606032340E-01  0.41412459521E-01 -0.42619259419E-02  0.46454553126E-01  0.51100000000E-03 0.  1.
</event>
<event>
 8    1  0.1132255E+005  0.1043930E+01  0.7957747E-01            NaN
         13   -1    0    0    0    0  0.00000000000E+00  0.00000000000E+00  0.74505805969E-08  0.10566000000E+00  0.10566000000E+00 0.  1.
     999900   -1    0    0    0    0 -0.00000000000E+00 -0.00000000000E+00 -0.74505805969E-08  0.93827000000E+00  0.93827000000E+00 0. -1.
     999902    2    1    2    0    0  0.11605385718E-02  0.14152172516E-01 -0.19151618419E-01  0.10200885377E+01  0.10198098889E+01 0.  0.
     999903    2    3    3    0    0 -0.43511811795E-01  0.16085705502E-01 -0.12263366838E+00  0.13289752551E+00  0.21695805549E-01 0.  0.
         14    1    1    2    0    0 -0.11605385718E-02 -0.14152172516E-01  0.19151618419E-01  0.23841462303E-01  0.00000000000E+00 0.  1.
     999901    1    3    3    0    0  0.44672350367E-01 -0.19335329861E-02  0.10348204997E+00  0.88719101219E+00  0.88000000000E+00 0.  1.
        -11    1    4    4    0    0 -0.41854849447E-01  0.20303786931E-01 -0.10872127854E+00  0.11825671108E+00  0.51100000000E-03 0.  1.
         11    1    4    4    0    0 -0.16569623480E-02 -0.42180814294E-02 -0.13912389842E-01  0.14640814433E-01  0.51100000000E-03 0. -1.
</event>
<event>
 8    1  0.1132255E+005  0.1043930E+01  0.7957747E-01            NaN
         13   -1    0    0    0    0  0.00000000000E+00  0.00000000000E+00  0.74505805969E-08  0.10566000000E+00  0.10566000000E+00 0.  1.
     999900   -1    0    0    0    0 -0.00000000000E+00 -0.00000000000E+00 -0.74505805969E-08  0.93827000000E+00  0.93827000000E+00 0. -1.
     999902    2    1    2    0    0 -0.21937497630E-01  0.70645328624E-02 -0.36477722789E-02  0.10205961690E+01  0.10203293941E+01 0.  0.
     999903    2    3    3    0    0  0.51980775411E-02 -0.94904496205E-01  0.86184451945E-01  0.12975170960E+00  0.19335536616E-01 0.  0.
         14    1    1    2    0    0  0.21937497630E-01 -0.70645328624E-02  0.36477722789E-02  0.23333831007E-01  0.00000000000E+00 0.  1.
     999901    1    3    3    0    0 -0.27135575171E-01  0.10196902907E+00 -0.89832224224E-01  0.89084445940E+00  0.88000000000E+00 0.  1.
        -11    1    4    4    0    0  0.83500349262E-02 -0.20316716851E-01  0.15047612610E-01  0.26630505687E-01  0.51100000000E-03 0. -1.
         11    1    4    4    0    0 -0.31519573851E-02 -0.74587779354E-01  0.71136839335E-01  0.10312120391E+00  0.51100000000E-03 0.  1.
</event>
<event>
 8    1  0.1132255E+005  0.1043930E+01  0.7957747E-01            NaN
         13   -1    0    0    0    0  0.00000000000E+00  0.00000000000E+00  0.74505805969E-08  0.10566000000E+00  0.10566000000E+00 0. -1.
     999900   -1    0    0    0    0 -0.00000000000E+00 -0.00000000000E+00 -0.74505805969E-08  0.93827000000E+00  0.93827000000E+00 0. -1.
     999902    2    1    2    0    0  0.14102412117E-01 -0.59947285032E-02  0.25163358048E-01  0.10144680010E+01  0.10140400957E+01 0.  0.
     999903    2    3    3    0    0 -0.20502679220E-02 -0.10428869174E+00  0.70736979406E-01  0.12767627390E+00  0.20424882789E-01 0.  0.
         14    1    1    2    0    0 -0.14102412117E-01  0.59947285032E-02 -0.25163358048E-01  0.29461999008E-01  0.00000000000E+00 0.  1.
     999901    1    3    3    0    0  0.16152680039E-01  0.98293963238E-01 -0.45573621358E-01  0.88679172710E+00  0.88000000000E+00 0. -1.
        -11    1    4    4    0    0 -0.94296410622E-02 -0.57804277792E-01  0.46179409066E-01  0.74585867323E-01  0.51100000000E-03 0.  1.
         11    1    4    4    0    0  0.73793731401E-02 -0.46484413949E-01  0.24557570340E-01  0.53090406573E-01  0.51100000000E-03 0. -1.
</event>
<event>
 8    1  0.1132255E+005  0.1043930E+01  0.7957747E-01            NaN
         13   -1    0    0    0    0  0.00000000000E+00  0.00000000000E+00  0.74505805969E-08  0.10566000000E+00  0.10566000000E+00 0. -1.
     999900   -1    0    0    0    0 -0.00000000000E+00 -0.00000000000E+00 -0.74505805969E-08  0.93827000000E+00  0.93827000000E+00 0. -1.
     999902    2    1    2    0    0  0.13306417009E-01  0.62097338533E-02 -0.19467763107E-01  0.10195452644E+01  0.10192536146E+01 0.  0.
     999903    2    3    3    0    0 -0.40871654797E-01  0.22571366797E-01  0.11550339396E+00  0.12745772404E+00  0.26916140809E-01 0.  0.
         14    1    1    2    0    0 -0.13306417009E-01 -0.62097338533E-02  0.19467763107E-01  0.24384735564E-01  0.00000000000E+00 0. -1.
     999901    1    3    3    0    0  0.54178071806E-01 -0.16361632944E-01 -0.13497115706E+00  0.89208754040E+00  0.88000000000E+00 0. -1.
        -11    1    4    4    0    0 -0.15198431148E-01  0.23467640847E-01  0.54235060888E-01  0.61019877310E-01  0.51100000000E-03 0.  1.
         11    1    4    4    0    0 -0.25673223648E-01 -0.89627405050E-03  0.61268333069E-01  0.66437846727E-01  0.51100000000E-03 0. -1.
</event>
<event>
 8    1  0.1132255E+005  0.1043930E+01  0.7957747E-01            NaN
         13   -1    0    0    0    0  0.00000000000E+00  0.00000000000E+00  0.74505805969E-08  0.10566000000E+00  0.10566000000E+00 0. -1.
     999900   -1    0    0    0    0 -0.00000000000E+00 -0.00000000000E+00 -0.74505805969E-08  0.93827000000E+00  0.93827000000E+00 0. -1.
     999902    2    1    2    0    0 -0.97244650046E-02 -0.14157066596E-01  0.17521625500E-01  0.10193944113E+01  0.10190990975E+01 0.  0.
     999903    2    3    3    0    0  0.11261316132E+00 -0.58366766988E-01  0.18696952410E-01  0.12983138719E+00  0.20450170636E-01 0.  0.
         14    1    1    2    0    0  0.97244650046E-02  0.14157066596E-01 -0.17521625500E-01  0.24535588731E-01  0.00000000000E+00 0.  1.
     999901    1    3    3    0    0 -0.12233762632E+00  0.44209700391E-01 -0.11753269106E-02  0.88956302408E+00  0.88000000000E+00 0. -1.
        -11    1    4    4    0    0  0.31724109870E-01 -0.15222895314E-01 -0.39109959215E-02  0.35407805620E-01  0.51100000000E-03 0. -1.
         11    1    4    4    0    0  0.80889051446E-01 -0.43143871674E-01  0.22607948332E-01  0.94423581565E-01  0.51100000000E-03 0.  1.
</event>
<event>
 8    1  0.1132255E+005  0.1043930E+01  0.7957747E-01            NaN
         13   -1    0    0    0    0  0.00000000000E+00  0.00000000000E+00  0.74505805969E-08  0.10566000000E+00  0.10566000000E+00 0. -1.
     999900   -1    0    0    0    0 -0.00000000000E+00 -0.00000000000E+00 -0.74505805969E-08  0.93827000000E+00  0.93827000000E+00 0.  1.
     999902    2    1    2    0    0 -0.98792596643E-02 -0.21741688918E-01 -0.71743673081E-03  0.10200382541E+01  0.10197584146E+01 0.  0.
     999903    2    3    3    0    0  0.53108550805E-01 -0.97369503358E-01  0.68460237059E-01  0.13185326143E+00  0.19928375212E-01 0.  0.
         14    1    1    2    0    0  0.98792596643E-02  0.21741688918E-01  0.71743673081E-03  0.23891745939E-01  0.00000000000E+00 0.  1.
     999901    1    3    3    0    0 -0.62987810470E-01  0.75627814440E-01 -0.69177673790E-01  0.88818499263E+00  0.88000000000E+00 0.  1.
        -11    1    4    4    0    0  0.43408987266E-01 -0.61705329534E-01  0.50240919701E-01  0.90643802887E-01  0.51100000000E-03 0.  1.
         11    1    4    4    0    0  0.96995635394E-02 -0.35664173824E-01  0.18219317358E-01  0.41209458543E-01  0.51100000000E-03 0. -1.
</event>
<event>
 8    1  0.1132255E+005  0.1043930E+01  0.7957747E-01            NaN
         13   -1    0    0    0    0  0.00000000000E+00  0.00000000000E+00  0.74505805969E-08  0.10566000000E+00  0.10566000000E+00 0. -1.
     999900   -1    0    0    0    0 -0.00000000000E+00 -0.00000000000E+00 -0.74505805969E-08  0.93827000000E+00  0.93827000000E+00 0. -1.
     999902    2    1    2    0    0 -0.59220380992E-02  0.16014074598E-01  0.16755002390E-01  0.10200082270E+01  0.10197276753E+01 0.  0.
     999903    2    3    3    0    0 -0.80537179430E-01  0.65227638141E-01 -0.76503057856E-01  0.13057781374E+00  0.21376752134E-01 0.  0.
         14    1    1    2    0    0  0.59220380992E-02 -0.16014074598E-01 -0.16755002390E-01  0.23921773044E-01  0.00000000000E+00 0.  1.
     999901    1    3    3    0    0  0.74615141330E-01 -0.49213563543E-01  0.93258060246E-01  0.88943041322E+00  0.88000000000E+00 0.  1.
        -11    1    4    4    0    0 -0.18858920077E-01  0.17022399430E-01 -0.30804764787E-01  0.39932638323E-01  0.51100000000E-03 0.  1.
         11    1    4    4    0    0 -0.61678259353E-01  0.48205238712E-01 -0.45698293069E-01  0.90645175417E-01  0.51100000000E-03 0. -1.
</event>
<event>
 8    1  0.1132255E+005  0.1043930E+01  0.7957747E-01            NaN
         13   -1    0    0    0    0  0.00000000000E+00  0.00000000000E+00  0.74505805969E-08  0.10566000000E+00  0.10566000000E+00 0. -1.
     999900   -1    0    0    0    0 -0.00000000000E+00 -0.00000000000E+00 -0.74505805969E-08  0.93827000000E+00  0.93827000000E+00 0.  1.
     999902    2    1    2    0    0 -0.88206780168E-03  0.23669238623E-01 -0.27403001832E-02  0.10200863395E+01  0.10198076387E+01 0.  0.
     999903    2    3    3    0    0  0.93352927598E-01 -0.29482238272E-01 -0.82558807340E-01  0.12987495566E+00  0.21623505098E-01 0.  0.
         14    1    1    2    0    0  0.88206780168E-03 -0.23669238623E-01  0.27403001832E-02  0.23843660492E-01  0.00000000000E+00 0.  1.
     999901    1    3    3    0    0 -0.94234995399E-01  0.53151476894E-01  0.79818507157E-01  0.89021138385E+00  0.88000000000E+00 0.  1.
        -11    1    4    4    0    0  0.81546761650E-01 -0.26222679902E-01 -0.61299787795E-01  0.10533483935E+00  0.51100000000E-03 0. -1.
         11    1    4    4    0    0  0.11806165948E-01 -0.32595583698E-02 -0.21259019545E-01  0.24540116304E-01  0.51100000000E-03 0.  1.
</event>
<event>
 8    1  0.1132255E+005  0.1043930E+01  0.7957747E-01            NaN
         13   -1    0    0    0    0  0.00000000000E+00  0.00000000000E+00  0.74505805969E-08  0.10566000000E+00  0.10566000000E+00 0.  1.
     999900   -1    0    0    0    0 -0.00000000000E+00 -0.00000000000E+00 -0.74505805969E-08  0.93827000000E+00  0.93827000000E+00 0. -1.
     999902    2    1    2    0    0  0.43608718525E-02 -0.26361190929E-01  0.19539389181E-01  0.10108283789E+01  0.10102862437E+01 0.  0.
     999903    2    3    3    0    0  0.32517260542E-01  0.10381244852E+00 -0.42940488071E-01  0.11861669230E+00  0.19789832591E-01 0.  0.
         14    1    1    2    0    0 -0.43608718525E-02  0.26361190929E-01 -0.19539389181E-01  0.33101621110E-01  0.00000000000E+00 0.  1.
     999901    1    3    3    0    0 -0.28156388690E-01 -0.13017363945E+00  0.62479877252E-01  0.89221168659E+00  0.88000000000E+00 0.  1.
        -11    1    4    4    0    0  0.13676941648E-01  0.17719460827E-01 -0.72787583993E-02  0.23543140608E-01  0.51100000000E-03 0. -1.
         11    1    4    4    0    0  0.18840318894E-01  0.86092987696E-01 -0.35661729672E-01  0.95073551689E-01  0.51100000000E-03 0.  1.
</event>
<event>
 8    1  0.1132255E+005  0.1043930E+01  0.7957747E-01            NaN
         13   -1    0    0    0    0  0.00000000000E+00  0.00000000000E+00  0.74505805969E-08  0.10566000000E+00  0.10566000000E+00 0. -1.
     999900   -1    0    0    0    0 -0.00000000000E+00 -0.00000000000E+00 -0.74505805969E-08  0.93827000000E+00  0.93827000000E+00 0. -1.
     999902    2    1    2    0    0 -0.21922098884E-02 -0.24112218457E-01  0.22378604371E-02  0.10196151304E+01  0.10193251696E+01 0.  0.
     999903    2    3    3    0    0  0.43546450449E-01 -0.73731632396E-01  0.97732409649E-01  0.13188019238E+00  0.22541390484E-01 0.  0.
         14    1    1    2    0    0  0.21922098884E-02  0.24112218457E-01 -0.22378604371E-02  0.24314869575E-01  0.00000000000E+00 0. -1.
     999901    1    3    3    0    0 -0.45738660337E-01  0.49619413940E-01 -0.95494549212E-01  0.88773493804E+00  0.88000000000E+00 0. -1.
        -11    1    4    4    0    0  0.37920630406E-01 -0.53321009509E-01  0.60869969636E-01  0.89367323950E-01  0.51100000000E-03 0. -1.
         11    1    4    4    0    0  0.56258200427E-02 -0.20410622887E-01  0.36862440013E-01  0.42512868435E-01  0.51100000000E-03 0.  1.
</event>
<event>
 8    1  0.1132255E+005  0.1043930E+01  0.7957747E-01            NaN
         13   -1    0    0    0    0  0.00000000000E+00  0.00000000000E+00  0.74505805969E-08  0.10566000000E+00  0.10566000000E+00 0.  1.
     999900   -1    0    0    0    0 -0.00000000000E+00 -0.00000000000E+00 -0.74505805969E-08  0.93827000000E+00  0.93827000000E+00 0.  1.
     999902    2    1    2    0    0 -0.76510610466E-02  0.39694125816E-02  0.25690812463E-01  0.10168317931E+01  0.10164706502E+01 0.  0.
     999903    2    3    3    0    0  0.36094687092E-01  0.12586392015E-01  0.12314037545E+00  0.13033060296E+00  0.19007111889E-01 0.  0.
         14    1    1    2    0    0  0.76510610466E-02 -0.39694125816E-02 -0.25690812463E-01  0.27098206885E-01  0.00000000000E+00 0. -1.
     999901    1    3    3    0    0 -0.43745748138E-01 -0.86169794332E-02 -0.97449562987E-01  0.88650119015E+00  0.88000000000E+00 0.  1.
        -11    1    4    4    0    0  0.13385300868E-02  0.71278478716E-02  0.16369246180E-01  0.17911203745E-01  0.51100000000E-03 0. -1.
         11    1    4    4    0    0  0.34756157005E-01  0.54585441431E-02  0.10677112927E+00  0.11241939922E+00  0.51100000000E-03 0.  1.
</event>
<event>
 8    1  0.1132255E+005  0.1043930E+01  0.7957747E-01            NaN
         13   -1    0    0    0    0  0.00000000000E+00  0.00000000000E+00  0.74505805969E-08  0.10566000000E+00  0.10566000000E+00 0.  1.
     999900   -1    0    0    0    0 -0.00000000000E+00 -0.00000000000E+00 -0.74505805969E-08  0.93827000000E+00  0.93827000000E+00 0. -1.
     999902    2    1    2    0    0 -0.59306374032E-02  0.54821184919E-02 -0.22853416793E-01  0.10196915029E+01  0.10194033825E+01 0.  0.
     999903    2    3    3    0    0  0.22540251629E-01 -0.26176823598E-01 -0.12634723391E+00  0.13260421839E+00  0.20663159956E-01 0.  0.
         14    1    1    2    0    0  0.59306374032E-02 -0.54821184919E-02  0.22853416793E-01  0.24238497113E-01  0.00000000000E+00 0.  1.
     999901    1    3    3    0    0 -0.28470889032E-01  0.31658942090E-01  0.10349381712E+00  0.88708728450E+00  0.88000000000E+00 0.  1.
        -11    1    4    4    0    0  0.24101117818E-01 -0.26704917998E-01 -0.10131891654E+00  0.10751651267E+00  0.51100000000E-03 0. -1.
         11    1    4    4    0    0 -0.15608661898E-02  0.52809440062E-03 -0.25028317372E-01  0.25087705723E-01  0.51100000000E-03 0.  1.
</event>
<event>
 8    1  0.1132255E+005  0.1043930E+01  0.7957747E-01            NaN
         13   -1    0    0    0    0  0.00000000000E+00  0.00000000000E+00  0.74505805969E-08  0.10566000000E+00  0.10566000000E+00 0. -1.
     999900   -1    0    0    0    0 -0.00000000000E+00 -0.00000000000E+00 -0.74505805969E-08  0.93827000000E+00  0.93827000000E+00 0.  1.
     999902    2    1    2    0    0  0.17356042397E-02 -0.98632936888E-02  0.21167556857E-01  0.10205128621E+01  0.10202441567E+01 0.  0.
     999903    2    3    3    0    0  0.85738325306E-01  0.93764976755E-01  0.21150255938E-01  0.13045933793E+00  0.20721347297E-01 0.  0.
         14    1    1    2    0    0 -0.17356042397E-02  0.98632936888E-02 -0.21167556857E-01  0.23417137907E-01  0.00000000000E+00 0.  1.
     999901    1    3    3    0    0 -0.84002721067E-01 -0.10362827044E+00  0.17300918991E-04  0.89005352417E+00  0.88000000000E+00 0. -1.
        -11    1    4    4    0    0  0.62227980400E-02  0.14863529216E-01  0.69023728934E-02  0.17537148821E-01  0.51100000000E-03 0.  1.
         11    1    4    4    0    0  0.79515527266E-01  0.78901447539E-01  0.14247883045E-01  0.11292218911E+00  0.51100000000E-03 0. -1.
</event>
<event>
 8    1  0.1132255E+005  0.1043930E+01  0.7957747E-01            NaN
         13   -1    0    0    0    0  0.00000000000E+00  0.00000000000E+00  0.74505805969E-08  0.10566000000E+00  0.10566000000E+00 0. -1.
     999900   -1    0    0    0    0 -0.00000000000E+00 -0.00000000000E+00 -0.74505805969E-08  0.93827000000E+00  0.93827000000E+00 0.  1.
     999902    2    1    2    0    0  0.12862330539E-01 -0.18747604723E-01 -0.77053575273E-02  0.10199240681E+01  0.10196415154E+01 0.  0.
     999903    2    3    3    0    0  0.65382009920E-01  0.10938026098E+00  0.48710838390E-02  0.12900699368E+00  0.19499442216E-01 0.  0.
         14    1    1    2    0    0 -0.12862330539E-01  0.18747604723E-01  0.77053575273E-02  0.24005931858E-01  0.00000000000E+00 0. -1.
     999901    1    3    3    0    0 -0.52519679381E-01 -0.12812786570E+00 -0.12576441366E-01  0.89091707446E+00  0.88000000000E+00 0.  1.
        -11    1    4    4    0    0  0.57823936187E-01  0.82020480333E-01  0.65437125647E-02  0.10056862376E+00  0.51100000000E-03 0.  1.
         11    1    4    4    0    0  0.75580737331E-02  0.27359780649E-01 -0.16726287258E-02  0.28438369917E-01  0.51100000000E-03 0. -1.
</event>
<event>
 8    1  0.1132255E+005  0.1043930E+01  0.7957747E-01            NaN
         13   -1    0    0    0    0  0.00000000000E+00  0.00000000000E+00  0.74505805969E-08  0.10566000000E+00  0.10566000000E+00 0. -1.
     999900   -1    0    0    0    0 -0.00000000000E+00 -0.00000000000E+00 -0.74505805969E-08  0.93827000000E+00  0.93827000000E+00 0.  1.
     999902    2    1    2    0    0  0.12094469713E-02  0.11837047699E-01  0.18929312156E-01  0.10215716164E+01  0.10213269163E+01 0.  0.
     999903    2    3    3    0    0 -0.30193717997E-01 -0.12312910111E+00 -0.19956019514E-01  0.12987991565E+00  0.19952784992E-01 0.  0.
         14    1    1    2    0    0 -0.12094469713E-02 -0.11837047699E-01 -0.18929312156E-01  0.22358383638E-01  0.00000000000E+00 0.  1.
     999901    1    3    3    0    0  0.31403164969E-01  0.13496614881E+00  0.38885331671E-01  0.89169170071E+00  0.88000000000E+00 0. -1.
        -11    1    4    4    0    0 -0.14959156489E-01 -0.74527632407E-01 -0.21241631832E-01  0.78927893669E-01  0.51100000000E-03 0.  1.
         11    1    4    4    0    0 -0.15234561508E-01 -0.48601468701E-01  0.12856123179E-02  0.50952021984E-01  0.51100000000E-03 0. -1.
</event>
<event>
 8    1  0.1132255E+005  0.1043930E+01  0.7957747E-01            NaN
         13   -1    0    0    0    0  0.00000000000E+00  0.00000000000E+00  0.74505805969E-08  0.10566000000E+00  0.10566000000E+00 0. -1.
     999900   -1    0    0    0    0 -0.00000000000E+00 -0.00000000000E+00 -0.74505805969E-08  0.93827000000E+00  0.93827000000E+00 0. -1.
     999902    2    1    2    0    0  0.20183328876E-01  0.29043202657E-02 -0.15953153625E-01  0.10180397518E+01  0.10177104850E+01 0.  0.
     999903    2    3    3    0    0 -0.66644968654E-01 -0.10279019274E+00  0.25036042365E-01  0.12652946162E+00  0.19378484707E-01 0.  0.
         14    1    1    2    0    0 -0.20183328876E-01 -0.29043202657E-02  0.15953153625E-01  0.25890248189E-01  0.00000000000E+00 0. -1.
     999901    1    3    3    0    0  0.86828297530E-01  0.10569451301E+00 -0.40989195989E-01  0.89151029019E+00  0.88000000000E+00 0.  1.
        -11    1    4    4    0    0 -0.26884551527E-01 -0.25265335054E-01  0.78616532807E-02  0.37725097475E-01  0.51100000000E-03 0.  1.
         11    1    4    4    0    0 -0.39760417127E-01 -0.77524857687E-01  0.17174389084E-01  0.88804364143E-01  0.51100000000E-03 0. -1.
</event>
<event>
 8    1  0.1132255E+005  0.1043930E+01  0.7957747E-01            NaN
         13   -1    0    0    0    0  0.00000000000E+00  0.00000000000E+00  0.74505805969E-08  0.10566000000E+00  0.10566000000E+00 0.  1.
     999900   -1    0    0    0    0 -0.00000000000E+00 -0.00000000000E+00 -0.74505805969E-08  0.93827000000E+00  0.93827000000E+00 0. -1.
     999902    2    1    2    0    0  0.18591618636E-01  0.11844591387E-01  0.77267878579E-02  0.10205709358E+01  0.10203035770E+01 0.  0.
     999903    2    3    3    0    0 -0.47855437508E-01 -0.33822452406E-01  0.11522093548E+00  0.13037113694E+00  0.16931278406E-01 0.  0.
         14    1    1    2    0    0 -0.18591618636E-01 -0.11844591387E-01 -0.77267878579E-02  0.23359064177E-01  0.00000000000E+00 0. -1.
     999901    1    3    3    0    0  0.66447056145E-01  0.45667043793E-01 -0.10749414762E+00  0.89019979888E+00  0.88000000000E+00 0. -1.
        -11    1    4    4    0    0 -0.17682678796E-01 -0.13441819672E-01  0.27237204570E-01  0.35149481920E-01  0.51100000000E-03 0. -1.
         11    1    4    4    0    0 -0.30172758713E-01 -0.20380632734E-01  0.87983730909E-01  0.95221655019E-01  0.51100000000E-03 0.  1.
</event>
<event>
 8    1  0.1132255E+005  0.1043930E+01  0.7957747E-01            NaN
         13   -1    0    0    0    0  0.00000000000E+00  0.00000000000E+00  0.74505805969E-08  0.10566000000E+00  0.10566000000E+00 0.  1.
     999900   -1    0    0    0    0 -0.00000000000E+00 -0.00000000000E+00 -0.74505805969E-08  0.93827000000E+00  0.93827000000E+00 0. -1.
     999902    2    1    2    0    0 -0.15605709640E-01 -0.16112417008E-01  0.77448092141E-02  0.10201996350E+01  0.10199236074E+01 0.  0.
     999903    2    3    3    0    0  0.68017654352E-01  0.10087070963E+00  0.34935640016E-01  0.12811373091E+00  0.19782005430E-01 0.  0.
         14    1    1    2    0    0  0.15605709640E-01  0.16112417008E-01 -0.77448092141E-02  0.23730365041E-01  0.00000000000E+00 0. -1.
     999901    1    3    3    0    0 -0.83623363991E-01 -0.11698312664E+00 -0.27190830802E-01  0.89208590405E+00  0.88000000000E+00 0. -1.
        -11    1    4    4    0    0  0.29951204968E-01  0.39725781801E-01  0.46270861045E-02  0.49968824937E-01  0.51100000000E-03 0. -1.
         11    1    4    4    0    0  0.38066449383E-01  0.61144927832E-01  0.30308553911E-01  0.78144905973E-01  0.51100000000E-03 0.  1.
</event>
<event>
 8    1  0.1132255E+005  0.1043930E+01  0.7957747E-01            NaN
         13   -1    0    0    0    0  0.00000000000E+00  0.00000000000E+00  0.74505805969E-08  0.10566000000E+00  0.10566000000E+00 0. -1.
     999900   -1    0    0    0    0 -0.00000000000E+00 -0.00000000000E+00 -0.74505805969E-08  0.93827000000E+00  0.93827000000E+00 0.  1.
     999902    2    1    2    0    0 -0.26375967582E-02  0.23329473406E-01  0.95132056826E-02  0.10185977611E+01  0.10182827095E+01 0.  0.
     999903    2    3    3    0    0  0.91912624110E-01  0.68053070251E-01 -0.56914918338E-01  0.12991748110E+00  0.23666286646E-01 0.  0.
         14    1    1    2    0    0  0.26375967582E-02 -0.23329473406E-01 -0.95132056826E-02  0.25332238915E-01  0.00000000000E+00 0.  1.
     999901    1    3    3    0    0 -0.94550220868E-01 -0.44723596844E-01  0.66428124020E-01  0.88868027999E+00  0.88000000000E+00 0. -1.
        -11    1    4    4    0    0  0.52169261206E-01  0.23954174024E-01 -0.27070434398E-01  0.63470495567E-01  0.51100000000E-03 0. -1.
         11    1    4    4    0    0  0.39743362903E-01  0.44098896226E-01 -0.29844483940E-01  0.66446985529E-01  0.51100000000E-03 0.  1.
</event>
<event>
 8    1  0.1132255E+005  0.1043930E+01  0.7957747E-01            NaN
         13   -1    0    0    0    0  0.00000000000E+00  0.00000000000E+00  0.74505805969E-08  0.10566000000E+00  0.10566000000E+00 0.  1.
     999900   -1    0    0    0    0 -0.00000000000E+00 -0.00000000000E+00 -0.74505805969E-08  0.93827000000E+00  0.93827000000E+00 0.  1.
     999902    2    1    2    0    0  0.13770788989E-01  0.14484452259E-01 -0.12450842257E-01  0.10203830796E+01  0.10201113526E+01 0.  0.
     999903    2    3    3    0    0  0.10020074306E+00 -0.81625732106E-01  0.46296987454E-02  0.13077695926E+00  0.19448133875E-01 0.  0.
         14    1    1    2    0    0 -0.13770788989E-01 -0.14484452259E-01  0.12450842257E-01  0.23546920384E-01  0.00000000000E+00 0. -1.
     999901    1    3    3    0    0 -0.86429954068E-01  0.96110184365E-01 -0.17080541003E-01  0.88960612036E+00  0.88000000000E+00 0. -1.
        -11    1    4    4    0    0  0.51651023230E-01 -0.29700916630E-01  0.88889262463E-03  0.59590468201E-01  0.51100000000E-03 0. -1.
         11    1    4    4    0    0  0.48549719828E-01 -0.51924815476E-01  0.37408061208E-02  0.71186491057E-01  0.51100000000E-03 0.  1.
</event>
<event>
 8    1  0.1470806E+005  0.1043930E+01  0.7957747E-01            NaN
         13   -1    0    0    0    0  0.00000000000E+00  0.00000000000E+00  0.74505805969E-08  0.10566000000E+00  0.10566000000E+00 0. -1.
     999900   -1    0    0    0    0 -0.00000000000E+00 -0.00000000000E+00 -0.74505805969E-08  0.93827000000E+00  0.93827000000E+00 0. -1.
     999902    2    1    2    0    0  0.20253848711E-01 -0.10966288187E-01 -0.62292253634E-02  0.10200703874E+01  0.10197913091E+01 0.  0.
     999903    2    3    3    0    0  0.39887499012E-01  0.94096278858E-01  0.77264051957E-01  0.12968016365E+00  0.20052153158E-01 0.  0.
         14    1    1    2    0    0 -0.20253848711E-01  0.10966288187E-01  0.62292253634E-02  0.23859612588E-01  0.00000000000E+00 0. -1.
     999901    1    3    3    0    0 -0.19633650300E-01 -0.10506256705E+00 -0.83493277321E-01  0.89039022376E+00  0.88000000000E+00 0. -1.
        -11    1    4    4    0    0  0.34565709986E-01  0.58382895780E-01  0.46667669858E-01  0.82349762340E-01  0.51100000000E-03 0.  1.
         11    1    4    4    0    0  0.53217890261E-02  0.35713383078E-01  0.30596382099E-01  0.47330401306E-01  0.51100000000E-03 0. -1.
</event>
<event>
 8    1  0.1132255E+005  0.1043930E+01  0.7957747E-01            NaN
         13   -1    0    0    0    0  0.00000000000E+00  0.00000000000E+00  0.74505805969E-08  0.10566000000E+00  0.10566000000E+00 0.  1.
     999900   -1    0    0    0    0 -0.00000000000E+00 -0.00000000000E+00 -0.74505805969E-08  0.93827000000E+00  0.93827000000E+00 0.  1.
     999902    2    1    2    0    0  0.14051745925E-01 -0.87097070171E-02 -0.18707371787E-01  0.10189644974E+01  0.10186586134E+01 0.  0.
     999903    2    3    3    0    0 -0.29942562386E-01  0.22560815440E-01  0.11923865295E+00  0.12658428110E+00  0.20004410228E-01 0.  0.
         14    1    1    2    0    0 -0.14051745925E-01  0.87097070171E-02  0.18707371787E-01  0.24965502579E-01  0.00000000000E+00 0.  1.
     999901    1    3    3    0    0  0.43994308311E-01 -0.31270522457E-01 -0.13794602474E+00  0.89238021632E+00  0.88000000000E+00 0.  1.
        -11    1    4    4    0    0 -0.42945654698E-02  0.13813737180E-01  0.54760036505E-01  0.56640845214E-01  0.51100000000E-03 0.  1.
         11    1    4    4    0    0 -0.25647996916E-01  0.87470782602E-02  0.64478616446E-01  0.69943435887E-01  0.51100000000E-03 0. -1.
</event>
<event>
 8    1  0.1132255E+005  0.1043930E+01  0.7957747E-01            NaN
         13   -1    0    0    0    0  0.00000000000E+00  0.00000000000E+00  0.74505805969E-08  0.10566000000E+00  0.10566000000E+00 0.  1.
     999900   -1    0    0    0    0 -0.00000000000E+00 -0.00000000000E+00 -0.74505805969E-08  0.93827000000E+00  0.93827000000E+00 0. -1.
     999902    2    1    2    0    0  0.10103566983E-01 -0.46144572884E-02 -0.20572709434E-01  0.10205502726E+01  0.10202824350E+01 0.  0.
     999903    2    3    3    0    0  0.32942447350E-01  0.26702938078E-01  0.11965032670E+00  0.12860582722E+00  0.20615682764E-01 0.  0.
         14    1    1    2    0    0 -0.10103566983E-01  0.46144572884E-02  0.20572709434E-01  0.23379727443E-01  0.00000000000E+00 0.  1.
     999901    1    3    3    0    0 -0.22838880367E-01 -0.31317395366E-01 -0.14022303613E+00  0.89194444534E+00  0.88000000000E+00 0. -1.
        -11    1    4    4    0    0  0.13249877940E-01  0.82288310580E-02  0.73464112697E-01  0.75103328164E-01  0.51100000000E-03 0.  1.
         11    1    4    4    0    0  0.19692569410E-01  0.18474107020E-01  0.46186214003E-01  0.53502499054E-01  0.51100000000E-03 0. -1.
</event>
<event>
 8    1  0.1132255E+005  0.1043930E+01  0.7957747E-01            NaN
         13   -1    0    0    0    0  0.00000000000E+00  0.00000000000E+00  0.74505805969E-08  0.10566000000E+00  0.10566000000E+00 0. -1.
     999900   -1    0    0    0    0 -0.00000000000E+00 -0.00000000000E+00 -0.74505805969E-08  0.93827000000E+00  0.93827000000E+00 0.  1.
     999902    2    1    2    0    0 -0.20509983520E-01  0.24708218434E-02 -0.11134835185E-01  0.10204619592E+01  0.10201920708E+01 0.  0.
     999903    2    3    3    0    0  0.57748826851E-01  0.42194166221E-02 -0.11584525344E+00  0.13080372668E+00  0.18351067813E-01 0.  0.
         14    1    1    2    0    0  0.20509983520E-01 -0.24708218434E-02  0.11134835185E-01  0.23468040804E-01  0.00000000000E+00 0. -1.
     999901    1    3    3    0    0 -0.78258810371E-01 -0.17485947787E-02  0.10471041826E+00  0.88965823251E+00  0.88000000000E+00 0. -1.
        -11    1    4    4    0    0  0.23848691346E-01 -0.27559078816E-02 -0.65007928281E-01  0.69301132513E-01  0.51100000000E-03 0.  1.
         11    1    4    4    0    0  0.33900135505E-01  0.69753245037E-02 -0.50837325162E-01  0.61502594172E-01  0.51100000000E-03 0. -1.
</event>
<event>
 8    1  0.1132255E+005  0.1043930E+01  0.7957747E-01            NaN
         13   -1    0    0    0    0  0.00000000000E+00  0.00000000000E+00  0.74505805969E-08  0.10566000000E+00  0.10566000000E+00 0.  1.
     999900   -1    0    0    0    0 -0.00000000000E+00 -0.00000000000E+00 -0.74505805969E-08  0.93827000000E+00  0.93827000000E+00 0. -1.
     999902    2    1    2    0    0  0.12069988535E-02  0.18073536759E-01  0.18334253446E-01  0.10181568662E+01  0.10178306095E+01 0.  0.
     999903    2    3    3    0    0  0.39542486350E-01  0.11051802341E+00  0.56262336877E-01  0.13167272520E+00  0.19859866177E-01 0.  0.
         14    1    1    2    0    0 -0.12069988535E-02 -0.18073536759E-01 -0.18334253446E-01  0.25773133814E-01  0.00000000000E+00 0. -1.
     999901    1    3    3    0    0 -0.38335487496E-01 -0.92444486651E-01 -0.37928083431E-01  0.88648414099E+00  0.88000000000E+00 0. -1.
        -11    1    4    4    0    0  0.31156665769E-02  0.31493866050E-01  0.10446672267E-01  0.33331142486E-01  0.51100000000E-03 0. -1.
         11    1    4    4    0    0  0.36426819773E-01  0.79024157360E-01  0.45815664610E-01  0.98341582710E-01  0.51100000000E-03 0.  1.
</event>
<event>
 7    1  0.1132255E+005  0.1043930E+01  0.7957747E-01            NaN
         13   -1    0    0    0    0  0.00000000000E+00  0.00000000000E+00  0.74505805969E-08  0.10566000000E+00  0.10566000000E+00 0. -1.
     999900   -1    0    0    0    0 -0.00000000000E+00 -0.00000000000E+00 -0.74505805969E-08  0.93827000000E+00  0.93827000000E+00 0. -1.
     999903    2    1    2    0    0 -0.71918894217E-01  0.39004910737E-01 -0.47252542281E-01  0.96651572057E-01  0.20371873306E-01 0.  0.
         14    1    1    2    0    0 -0.28152234286E-01 -0.13974019480E-01 -0.46694111775E-01  0.56286424564E-01  0.00000000000E+00 0.  1.
     999901    1    1    2    0    0  0.10007112850E+00 -0.25030891257E-01  0.93946654056E-01  0.89099200338E+00  0.88000000000E+00 0.  1.
        -11    1    3    3    0    0 -0.40683351036E-01  0.24367360929E-01 -0.38433032408E-01  0.61043119442E-01  0.51100000000E-03 0. -1.
         11    1    3    3    0    0 -0.31235543182E-01  0.14637549808E-01 -0.88195098736E-02  0.35608452615E-01  0.51100000000E-03 0.  1.
</event>
<event>
 8    1  0.1132255E+005  0.1043930E+01  0.7957747E-01            NaN
         13   -1    0    0    0    0  0.00000000000E+00  0.00000000000E+00  0.74505805969E-08  0.10566000000E+00  0.10566000000E+00 0. -1.
     999900   -1    0    0    0    0 -0.00000000000E+00 -0.00000000000E+00 -0.74505805969E-08  0.93827000000E+00  0.93827000000E+00 0.  1.
     999902    2    1    2    0    0 -0.73638442239E-03  0.22103222609E-01 -0.84029740403E-02  0.10202719214E+01  0.10199975926E+01 0.  0.
     999903    2    3    3    0    0 -0.18448269858E-03 -0.91695669853E-01  0.86772963626E-01  0.12785444528E+00  0.20225777062E-01 0.  0.
         14    1    1    2    0    0  0.73638442239E-03 -0.22103222609E-01  0.84029740403E-02  0.23658078629E-01  0.00000000000E+00 0. -1.
     999901    1    3    3    0    0 -0.55190172381E-03  0.11379889246E+00 -0.95175937666E-01  0.89241747609E+00  0.88000000000E+00 0.  1.
        -11    1    4    4    0    0 -0.79172041161E-02 -0.46472884778E-01  0.52659845786E-01  0.70680489669E-01  0.51100000000E-03 0. -1.
         11    1    4    4    0    0  0.77327214175E-02 -0.45222785076E-01  0.34113117840E-01  0.57173955611E-01  0.51100000000E-03 0.  1.
</event>
<event>
 8    1  0.1132255E+005  0.1043930E+01  0.7957747E-01            NaN
         13   -1    0    0    0    0  0.00000000000E+00  0.00000000000E+00  0.74505805969E-08  0.10566000000E+00  0.10566000000E+00 0. -1.
     999900   -1    0    0    0    0 -0.00000000000E+00 -0.00000000000E+00 -0.74505805969E-08  0.93827000000E+00  0.93827000000E+00 0. -1.
     999902    2    1    2    0    0 -0.24441387044E-01  0.21351752235E-02  0.48277888169E-02  0.10189250421E+01  0.10186181785E+01 0.  0.
     999903    2    3    3    0    0  0.63978040207E-01 -0.10230677380E+00 -0.36763766094E-01  0.12737808695E+00  0.17712620993E-01 0.  0.
         14    1    1    2    0    0  0.24441387044E-01 -0.21351752235E-02 -0.48277888169E-02  0.25004957883E-01  0.00000000000E+00 0.  1.
     999901    1    3    3    0    0 -0.88419427251E-01  0.10444194903E+00  0.41591554911E-01  0.89154695517E+00  0.88000000000E+00 0.  1.
        -11    1    4    4    0    0  0.45875610812E-01 -0.66259117484E-01 -0.32173016786E-01  0.86776762138E-01  0.51100000000E-03 0. -1.
         11    1    4    4    0    0  0.18102429396E-01 -0.36047656319E-01 -0.45907493086E-02  0.40601324810E-01  0.51100000000E-03 0.  1.
</event>
<event>
 8    1  0.1132255E+005  0.1043930E+01  0.7957747E-01            NaN
         13   -1    0    0    0    0  0.00000000000E+00  0.00000000000E+00  0.74505805969E-08  0.10566000000E+00  0.10566000000E+00 0.  1.
     999900   -1    0    0    0    0 -0.00000000000E+00 -0.00000000000E+00 -0.74505805969E-08  0.93827000000E+00  0.93827000000E+00 0. -1.
     999902    2    1    2    0    0 -0.53158214272E-02 -0.25060049162E-01  0.23661262610E-01  0.10090570969E+01  0.10084543150E+01 0.  0.
     999903    2    3    3    0    0 -0.97717914173E-01  0.20548501189E-01  0.67152402595E-01  0.12197775104E+00  0.19952316259E-01 0.  0.
         14    1    1    2    0    0  0.53158214272E-02  0.25060049162E-01 -0.23661262610E-01  0.34872903087E-01  0.00000000000E+00 0.  1.
     999901    1    3    3    0    0  0.92402092746E-01 -0.45608550351E-01 -0.43491139985E-01  0.88707934587E+00  0.88000000000E+00 0. -1.
        -11    1    4    4    0    0 -0.36002668027E-01  0.11283700845E-01  0.36300866124E-01  0.52359602865E-01  0.51100000000E-03 0. -1.
         11    1    4    4    0    0 -0.61715246146E-01  0.92648003435E-02  0.30851536471E-01  0.69618148179E-01  0.51100000000E-03 0.  1.
</event>
<event>
 8    1  0.1132255E+005  0.1043930E+01  0.7957747E-01            NaN
         13   -1    0    0    0    0  0.00000000000E+00  0.00000000000E+00  0.74505805969E-08  0.10566000000E+00  0.10566000000E+00 0.  1.
     999900   -1    0    0    0    0 -0.00000000000E+00 -0.00000000000E+00 -0.74505805969E-08  0.93827000000E+00  0.93827000000E+00 0.  1.
     999902    2    1    2    0    0 -0.18023408561E-02  0.20735981482E-01 -0.48217415061E-02  0.10225646413E+01  0.10223414142E+01 0.  0.
     999903    2    3    3    0    0  0.89537725443E-01  0.95677252549E-01 -0.21947720235E-01  0.13450355053E+00  0.20937090259E-01 0.  0.
         14    1    1    2    0    0  0.18023408561E-02 -0.20735981482E-01  0.48217415061E-02  0.21365358685E-01  0.00000000000E+00 0. -1.
     999901    1    3    3    0    0 -0.91340066299E-01 -0.74941271067E-01  0.17125978729E-01  0.88806109079E+00  0.88000000000E+00 0. -1.
        -11    1    4    4    0    0  0.45981505421E-01  0.37149436646E-01 -0.16328915393E-01  0.61329226987E-01  0.51100000000E-03 0.  1.
         11    1    4    4    0    0  0.43556220022E-01  0.58527815903E-01 -0.56188048419E-02  0.73174323542E-01  0.51100000000E-03 0. -1.
</event>
<event>
 8    1  0.1132255E+005  0.1043930E+01  0.7957747E-01            NaN
         13   -1    0    0    0    0  0.00000000000E+00  0.00000000000E+00  0.74505805969E-08  0.10566000000E+00  0.10566000000E+00 0.  1.
     999900   -1    0    0    0    0 -0.00000000000E+00 -0.00000000000E+00 -0.74505805969E-08  0.93827000000E+00  0.93827000000E+00 0. -1.
     999902    2    1    2    0    0 -0.15812972974E-01  0.15392371839E-01 -0.11059905364E-01  0.10192460633E+01  0.10189471236E+01 0.  0.
     999903    2    3    3    0    0 -0.80467393089E-01  0.78893710988E-03  0.10004968239E+00  0.12978623011E+00  0.18944730285E-01 0.  0.
         14    1    1    2    0    0  0.15812972974E-01 -0.15392371839E-01  0.11059905364E-01  0.24683936715E-01  0.00000000000E+00 0. -1.
     999901    1    3    3    0    0  0.64654420114E-01  0.14603434729E-01 -0.11110958776E+00  0.88945983318E+00  0.88000000000E+00 0. -1.
        -11    1    4    4    0    0 -0.53427895409E-01  0.59173629292E-03  0.51499816077E-01  0.74211739884E-01  0.51100000000E-03 0.  1.
         11    1    4    4    0    0 -0.27039497680E-01  0.19720081696E-03  0.48549866318E-01  0.55574490222E-01  0.51100000000E-03 0. -1.
</event>
<event>
 8    1  0.1132255E+005  0.1043930E+01  0.7957747E-01            NaN
         13   -1    0    0    0    0  0.00000000000E+00  0.00000000000E+00  0.74505805969E-08  0.10566000000E+00  0.10566000000E+00 0.  1.
     999900   -1    0    0    0    0 -0.00000000000E+00 -0.00000000000E+00 -0.74505805969E-08  0.93827000000E+00  0.93827000000E+00 0.  1.
     999902    2    1    2    0    0  0.86891897732E-02 -0.19486804114E-03 -0.24551700381E-01  0.10178853079E+01  0.10175520498E+01 0.  0.
     999903    2    3    3    0    0  0.11964965608E+00 -0.40595405572E-01 -0.23859646520E-01  0.12999741668E+00  0.19131608897E-01 0.  0.
         14    1    1    2    0    0 -0.86891897732E-02  0.19486804114E-03  0.24551700381E-01  0.26044692051E-01  0.00000000000E+00 0. -1.
     999901    1    3    3    0    0 -0.11096046631E+00  0.40400537531E-01 -0.69205386077E-03  0.88788789126E+00  0.88000000000E+00 0. -1.
        -11    1    4    4    0    0  0.35514688530E-01 -0.18597281729E-01 -0.11173100598E-02  0.40108122517E-01  0.51100000000E-03 0.  1.
         11    1    4    4    0    0  0.84134967549E-01 -0.21998123843E-01 -0.22742336460E-01  0.89889294167E-01  0.51100000000E-03 0. -1.
</event>
<event>
 8    1  0.1132255E+005  0.1043930E+01  0.7957747E-01            NaN
         13   -1    0    0    0    0  0.00000000000E+00  0.00000000000E+00  0.74505805969E-08  0.10566000000E+00  0.10566000000E+00 0.  1.
     999900   -1    0    0    0    0 -0.00000000000E+00 -0.00000000000E+00 -0.74505805969E-08  0.93827000000E+00  0.93827000000E+00 0.  1.
     999902    2    1    2    0    0  0.20873152387E-01 -0.30287564492E-03 -0.12552704363E-01  0.10195712108E+01  0.10192801888E+01 0.  0.
     999903    2    3    3    0    0  0.91379150835E-01  0.91017030673E-01  0.16590934961E-01  0.13156232976E+00  0.19978448593E-01 0.  0.
         14    1    1    2    0    0 -0.20873152387E-01  0.30287564492E-03  0.12552704363E-01  0.24358789195E-01  0.00000000000E+00 0. -1.
     999901    1    3    3    0    0 -0.70505998449E-01 -0.91319906318E-01 -0.29143639324E-01  0.88800888105E+00  0.88000000000E+00 0.  1.
        -11    1    4    4    0    0  0.22456654188E-01  0.16246119453E-01  0.10649300244E-01  0.29696909457E-01  0.51100000000E-03 0.  1.
         11    1    4    4    0    0  0.68922496648E-01  0.74770911220E-01  0.59416347172E-02  0.10186542030E+00  0.51100000000E-03 0. -1.
</event>
<event>
 8    1  0.1132255E+005  0.1043930E+01  0.7957747E-01            NaN
         13   -1    0    0    0    0  0.00000000000E+00  0.00000000000E+00  0.74505805969E-08  0.10566000000E+00  0.10566000000E+00 0. -1.
     999900   -1    0    0    0    0 -0.00000000000E+00 -0.00000000000E+00 -0.74505805969E-08  0.93827000000E+00  0.93827000000E+00 0. -1.
     999902    2    1    2    0    0 -0.29513612602E-02 -0.23582851107E-01  0.78088024005E-02  0.10189132297E+01  0.10186060725E+01 0.  0.
     999903    2    3    3    0    0  0.81172286261E-01 -0.62149147190E-01  0.79562997727E-01  0.13115604907E+00  0.20498342567E-01 0.  0.
         14    1    1    2    0    0  0.29513612602E-02  0.23582851107E-01 -0.78088024005E-02  0.25016770267E-01  0.00000000000E+00 0. -1.
     999901    1    3    3    0    0 -0.84123647521E-01  0.38566296083E-01 -0.71754195327E-01  0.88775718066E+00  0.88000000000E+00 0.  1.
        -11    1    4    4    0    0  0.68315799209E-01 -0.43710695748E-01  0.68179686649E-01  0.10595472683E+00  0.51100000000E-03 0.  1.
         11    1    4    4    0    0  0.12856487052E-01 -0.18438451442E-01  0.11383311079E-01  0.25201322247E-01  0.51100000000E-03 0. -1.
</event>
<event>
 8    1  0.1132255E+005  0.1043930E+01  0.7957747E-01            NaN
         13   -1    0    0    0    0  0.00000000000E+00  0.00000000000E+00  0.74505805969E-08  0.10566000000E+00  0.10566000000E+00 0. -1.
     999900   -1    0    0    0    0 -0.00000000000E+00 -0.00000000000E+00 -0.74505805969E-08  0.93827000000E+00  0.93827000000E+00 0.  1.
     999902    2    1    2    0    0  0.53919129365E-02  0.21039110785E-01 -0.11493914253E-01  0.10193571090E+01  0.10190608857E+01 0.  0.
     999903    2    3    3    0    0  0.18429015085E-01  0.10404764386E+00 -0.77854913050E-01  0.13286730941E+00  0.20658984338E-01 0.  0.
         14    1    1    2    0    0 -0.53919129365E-02 -0.21039110785E-01  0.11493914253E-01  0.24572891010E-01  0.00000000000E+00 0. -1.
     999901    1    3    3    0    0 -0.13037102149E-01 -0.83008533077E-01  0.66360998797E-01  0.88648979958E+00  0.88000000000E+00 0. -1.
        -11    1    4    4    0    0  0.93315560250E-02  0.39616163691E-01 -0.42347956263E-01  0.58737797746E-01  0.51100000000E-03 0.  1.
         11    1    4    4    0    0  0.90974590601E-02  0.64431480171E-01 -0.35506956787E-01  0.74129511665E-01  0.51100000000E-03 0. -1.
</event>
<event>
 8    1  0.1132255E+005  0.1043930E+01  0.7957747E-01            NaN
         13   -1    0    0    0    0  0.00000000000E+00  0.00000000000E+00  0.74505805969E-08  0.10566000000E+00  0.10566000000E+00 0.  1.
     999900   -1    0    0    0    0 -0.00000000000E+00 -0.00000000000E+00 -0.74505805969E-08  0.93827000000E+00  0.93827000000E+00 0. -1.
     999902    2    1    2    0    0  0.20986689949E-01  0.39674656735E-02  0.74372345558E-02  0.10213137581E+01  0.10210633174E+01 0.  0.
     999903    2    3    3    0    0 -0.11515128829E+00 -0.47548160922E-01 -0.25093222840E-01  0.12876368134E+00  0.20730870630E-01 0.  0.
         14    1    1    2    0    0 -0.20986689949E-01 -0.39674656735E-02 -0.74372345558E-02  0.22616241879E-01  0.00000000000E+00 0. -1.
     999901    1    3    3    0    0  0.13613797824E+00  0.51515626595E-01  0.32530457396E-01  0.89255007678E+00  0.88000000000E+00 0. -1.
        -11    1    4    4    0    0 -0.56215792733E-01 -0.25255836789E-01 -0.20336633029E-02  0.61664167488E-01  0.51100000000E-03 0.  1.
         11    1    4    4    0    0 -0.58935495560E-01 -0.22292324133E-01 -0.23059559537E-01  0.67099513852E-01  0.51100000000E-03 0. -1.
</event>
<event>
 8    1  0.1132255E+005  0.1043930E+01  0.7957747E-01            NaN
         13   -1    0    0    0    0  0.00000000000E+00  0.00000000000E+00  0.74505805969E-08  0.10566000000E+00  0.10566000000E+00 0.  1.
     999900   -1    0    0    0    0 -0.00000000000E+00 -0.00000000000E+00 -0.74505805969E-08  0.93827000000E+00  0.93827000000E+00 0. -1.
     999902    2    1    2    0    0  0.10561015288E-01  0.12720074921E-01 -0.18118010779E-01  0.10194025121E+01  0.10191073957E+01 0.  0.
     999903    2    3    3    0    0  0.69713406257E-01  0.41630029404E-01  0.98547276113E-01  0.12926455647E+00  0.20118190017E-01 0.  0.
         14    1    1    2    0    0 -0.10561015288E-01 -0.12720074921E-01  0.18118010779E-01  0.24527487937E-01  0.00000000000E+00 0. -1.
     999901    1    3    3    0    0 -0.59152390969E-01 -0.28909954483E-01 -0.11666528689E+00  0.89013795560E+00  0.88000000000E+00 0. -1.
        -11    1    4    4    0    0  0.32017167931E-01  0.19359479645E-01  0.61107936364E-01  0.71654235758E-01  0.51100000000E-03 0.  1.
         11    1    4    4    0    0  0.37696238326E-01  0.22270549758E-01  0.37439339749E-01  0.57610320710E-01  0.51100000000E-03 0. -1.
</event>
<event>
 8    1  0.1132255E+005  0.1043930E+01  0.7957747E-01            NaN
         13   -1    0    0    0    0  0.00000000000E+00  0.00000000000E+00  0.74505805969E-08  0.10566000000E+00  0.10566000000E+00 0. -1.
     999900   -1    0    0    0    0 -0.00000000000E+00 -0.00000000000E+00 -0.74505805969E-08  0.93827000000E+00  0.93827000000E+00 0.  1.
     999902    2    1    2    0    0  0.11004086900E-01  0.40603307710E-02  0.18788067842E-01  0.10217812369E+01  0.10215411535E+01 0.  0.
     999903    2    3    3    0    0  0.62122694075E-01  0.11591053666E+00 -0.13187182242E-02  0.13300237608E+00  0.19834601049E-01 0.  0.
         14    1    1    2    0    0 -0.11004086900E-01 -0.40603307710E-02 -0.18788067842E-01  0.22148763119E-01  0.00000000000E+00 0.  1.
     999901    1    3    3    0    0 -0.51118607175E-01 -0.11185020589E+00  0.20106786066E-01  0.88877886080E+00  0.88000000000E+00 0.  1.
        -11    1    4    4    0    0  0.22099570761E-01  0.60649299076E-01  0.30872132832E-02  0.64626004929E-01  0.51100000000E-03 0.  1.
         11    1    4    4    0    0  0.40023123313E-01  0.55261237581E-01 -0.44059315074E-02  0.68376371154E-01  0.51100000000E-03 0. -1.
</event>
<event>
 8    1  0.1132255E+005  0.1043930E+01  0.7957747E-01            NaN
         13   -1    0    0    0    0  0.00000000000E+00  0.00000000000E+00  0.74505805969E-08  0.10566000000E+00  0.10566000000E+00 0.  1.
     999900   -1    0    0    0    0 -0.00000000000E+00 -0.00000000000E+00 -0.74505805969E-08  0.93827000000E+00  0.93827000000E+00 0.  1.
     999902    2    1    2    0    0 -0.29502390970E-02 -0.21124772834E-01  0.83569408001E-02  0.10210215213E+01  0.10207644922E+01 0.  0.
     999903    2    3    3    0    0 -0.10682860887E-01 -0.11391337366E-01 -0.12803351296E+00  0.13042796129E+00  0.19364569752E-01 0.  0.
         14    1    1    2    0    0  0.29502390970E-02  0.21124772834E-01 -0.83569408001E-02  0.22908478726E-01  0.00000000000E+00 0. -1.
     999901    1    3    3    0    0  0.77326217897E-02 -0.97334354678E-02  0.13639045376E+00  0.89059355998E+00  0.88000000000E+00 0. -1.
        -11    1    4    4    0    0  0.93207698094E-03 -0.60858812286E-02 -0.91785003948E-01  0.91992688778E-01  0.51100000000E-03 0.  1.
         11    1    4    4    0    0 -0.11614937868E-01 -0.53054561376E-02 -0.36248509013E-01  0.38435272513E-01  0.51100000000E-03 0. -1.
</event>
<event>
 8    1  0.1132255E+005  0.1043930E+01  0.7957747E-01            NaN
         13   -1    0    0    0    0  0.00000000000E+00  0.00000000000E+00  0.74505805969E-08  0.10566000000E+00  0.10566000000E+00 0.  1.
     999900   -1    0    0    0    0 -0.00000000000E+00 -0.00000000000E+00 -0.74505805969E-08  0.93827000000E+00  0.93827000000E+00 0. -1.
     999902    2    1    2    0    0  0.51093834110E-02  0.58286100244E-02  0.22281131881E-01  0.10203391685E+01  0.10200664152E+01 0.  0.
     999903    2    3    3    0    0 -0.26146397260E-01 -0.61447990359E-01  0.11290552023E+00  0.13258027974E+00  0.19245375247E-01 0.  0.
         14    1    1    2    0    0 -0.51093834110E-02 -0.58286100244E-02 -0.22281131881E-01  0.23590831515E-01  0.00000000000E+00 0. -1.
     999901    1    3    3    0    0  0.31255780671E-01  0.67276600383E-01 -0.90624388350E-01  0.88775888875E+00  0.88000000000E+00 0. -1.
        -11    1    4    4    0    0 -0.46671631059E-02 -0.31873761147E-02  0.20333846825E-01  0.21110855635E-01  0.51100000000E-03 0.  1.
         11    1    4    4    0    0 -0.21479234154E-01 -0.58260614244E-01  0.92571673405E-01  0.11146942410E+00  0.51100000000E-03 0. -1.
</event>
<event>
 8    1  0.1132255E+005  0.1043930E+01  0.7957747E-01            NaN
         13   -1    0    0    0    0  0.00000000000E+00  0.00000000000E+00  0.74505805969E-08  0.10566000000E+00  0.10566000000E+00 0. -1.
     999900   -1    0    0    0    0 -0.00000000000E+00 -0.00000000000E+00 -0.74505805969E-08  0.93827000000E+00  0.93827000000E+00 0. -1.
     999902    2    1    2    0    0  0.11155481356E-01 -0.33346470968E-02 -0.20440402900E-01  0.10204060823E+01  0.10201348921E+01 0.  0.
     999903    2    3    3    0    0 -0.12365397634E+00  0.57870818986E-02 -0.34223609447E-01  0.12998664591E+00  0.20036878276E-01 0.  0.
         14    1    1    2    0    0 -0.11155481356E-01  0.33346470968E-02  0.20440402900E-01  0.23523917749E-01  0.00000000000E+00 0. -1.
     999901    1    3    3    0    0  0.13480945769E+00 -0.91217289954E-02  0.13783206546E-01  0.89041943634E+00  0.88000000000E+00 0. -1.
        -11    1    4    4    0    0 -0.11546259063E+00  0.38925334650E-03 -0.32999389965E-01  0.12008739406E+00  0.51100000000E-03 0.  1.
         11    1    4    4    0    0 -0.81913857065E-02  0.53978285521E-02 -0.12242194813E-02  0.98992518510E-02  0.51100000000E-03 0. -1.
</event>
<event>
 8    1  0.1132255E+005  0.1043930E+01  0.7957747E-01            NaN
         13   -1    0    0    0    0  0.00000000000E+00  0.00000000000E+00  0.74505805969E-08  0.10566000000E+00  0.10566000000E+00 0.  1.
     999900   -1    0    0    0    0 -0.00000000000E+00 -0.00000000000E+00 -0.74505805969E-08  0.93827000000E+00  0.93827000000E+00 0.  1.
     999902    2    1    2    0    0 -0.33386732090E-01  0.16542288399E-01 -0.62924181556E-02  0.10061422280E+01  0.10054323783E+01 0.  0.
     999903    2    3    3    0    0 -0.38196142259E-01 -0.57776512572E-01 -0.94331684366E-01  0.11861908635E+00  0.19363632982E-01 0.  0.
         14    1    1    2    0    0  0.33386732090E-01 -0.16542288399E-01  0.62924181556E-02  0.37787771982E-01  0.00000000000E+00 0.  1.
     999901    1    3    3    0    0  0.48094101691E-02  0.74318800971E-01  0.88039266211E-01  0.88752314167E+00  0.88000000000E+00 0. -1.
        -11    1    4    4    0    0 -0.22408434423E-01 -0.33432375453E-01 -0.38515528837E-01  0.55709682680E-01  0.51100000000E-03 0.  1.
         11    1    4    4    0    0 -0.15787707836E-01 -0.24344137119E-01 -0.55816155530E-01  0.62909403668E-01  0.51100000000E-03 0. -1.
</event>
<event>
 8    1  0.1132255E+005  0.1043930E+01  0.7957747E-01            NaN
         13   -1    0    0    0    0  0.00000000000E+00  0.00000000000E+00  0.74505805969E-08  0.10566000000E+00  0.10566000000E+00 0. -1.
     999900   -1    0    0    0    0 -0.00000000000E+00 -0.00000000000E+00 -0.74505805969E-08  0.93827000000E+00  0.93827000000E+00 0.  1.
     999902    2    1    2    0    0  0.12227002239E-01  0.18214353443E-01 -0.11153828591E-01  0.10193196333E+01  0.10190224947E+01 0.  0.
     999903    2    3    3    0    0 -0.36973528646E-01 -0.10193644951E+00  0.62472736928E-01  0.12675155255E+00  0.20125398280E-01 0.  0.
         14    1    1    2    0    0 -0.12227002239E-01 -0.18214353443E-01  0.11153828591E-01  0.24610366664E-01  0.00000000000E+00 0. -1.
     999901    1    3    3    0    0  0.49200530886E-01  0.12015080295E+00 -0.73626565519E-01  0.89256808079E+00  0.88000000000E+00 0.  1.
        -11    1    4    4    0    0  0.23462493733E-02 -0.37528131386E-02  0.16947852901E-02  0.47667505446E-02  0.51100000000E-03 0.  1.
         11    1    4    4    0    0 -0.39319778020E-01 -0.98183636368E-01  0.60777951638E-01  0.12198480201E+00  0.51100000000E-03 0. -1.
</event>
<event>
 8    1  0.1132255E+005  0.1043930E+01  0.7957747E-01            NaN
         13   -1    0    0    0    0  0.00000000000E+00  0.00000000000E+00  0.74505805969E-08  0.10566000000E+00  0.10566000000E+00 0.  1.
     999900   -1    0    0    0    0 -0.00000000000E+00 -0.00000000000E+00 -0.74505805969E-08  0.93827000000E+00  0.93827000000E+00 0. -1.
     999902    2    1    2    0    0 -0.83514557950E-02 -0.85645747353E-02 -0.20392879009E-01  0.10202874902E+01  0.10200135266E+01 0.  0.
     999903    2    3    3    0    0  0.50762093715E-01 -0.10558121247E+00 -0.57857195108E-01  0.13219390579E+00  0.20089577349E-01 0.  0.
         14    1    1    2    0    0  0.83514557950E-02  0.85645747353E-02  0.20392879009E-01  0.23642509777E-01  0.00000000000E+00 0.  1.
     999901    1    3    3    0    0 -0.59113549510E-01  0.97016637730E-01  0.37464316099E-01  0.88809358443E+00  0.88000000000E+00 0. -1.
        -11    1    4    4    0    0  0.13456053105E-01 -0.29986472772E-01 -0.65804408946E-02  0.33523383449E-01  0.51100000000E-03 0. -1.
         11    1    4    4    0    0  0.37306040609E-01 -0.75594739693E-01 -0.51276754213E-01  0.98670522340E-01  0.51100000000E-03 0.  1.
</event>
<event>
 8    1  0.1132255E+005  0.1043930E+01  0.7957747E-01            NaN
         13   -1    0    0    0    0  0.00000000000E+00  0.00000000000E+00  0.74505805969E-08  0.10566000000E+00  0.10566000000E+00 0. -1.
     999900   -1    0    0    0    0 -0.00000000000E+00 -0.00000000000E+00 -0.74505805969E-08  0.93827000000E+00  0.93827000000E+00 0. -1.
     999902    2    1    2    0    0  0.20390979514E-01 -0.12335121120E-01  0.47237416568E-02  0.10196347125E+01  0.10193452241E+01 0.  0.
     999903    2    3    3    0    0 -0.43287195977E-01 -0.12108015565E+00 -0.10471095910E-01  0.13052770228E+00  0.19840659891E-01 0.  0.
         14    1    1    2    0    0 -0.20390979514E-01  0.12335121120E-01 -0.47237416568E-02  0.24295287482E-01  0.00000000000E+00 0.  1.
     999901    1    3    3    0    0  0.63678175492E-01  0.10874503453E+00  0.15194837567E-01  0.88910701024E+00  0.88000000000E+00 0. -1.
        -11    1    4    4    0    0 -0.77591854113E-02 -0.48238602153E-01 -0.74480164676E-02  0.49425719684E-01  0.51100000000E-03 0.  1.
         11    1    4    4    0    0 -0.35528010566E-01 -0.72841553496E-01 -0.30230794425E-02  0.81101982594E-01  0.51100000000E-03 0. -1.
</event>
<event>
 8    1  0.1132255E+005  0.1043930E+01  0.7957747E-01            NaN
         13   -1    0    0    0    0  0.00000000000E+00  0.00000000000E+00  0.74505805969E-08  0.10566000000E+00  0.10566000000E+00 0.  1.
     999900   -1    0    0    0    0 -0.00000000000E+00 -0.00000000000E+00 -0.74505805969E-08  0.93827000000E+00  0.93827000000E+00 0. -1.
     999902    2    1    2    0    0 -0.12396588131E-01 -0.19310552592E-01 -0.59887576539E-02  0.10202142235E+01  0.10199385392E+01 0.  0.
     999903    2    3    3    0    0 -0.20924716414E-01  0.10988929428E+00 -0.60812541248E-01  0.12905151292E+00  0.21038703867E-01 0.  0.
         14    1    1    2    0    0  0.12396588131E-01  0.19310552592E-01  0.59887576539E-02  0.23715776541E-01  0.00000000000E+00 0.  1.
     999901    1    3    3    0    0  0.85281282833E-02 -0.12919984687E+00  0.54823783594E-01  0.89116271054E+00  0.88000000000E+00 0.  1.
        -11    1    4    4    0    0 -0.85158180606E-02  0.14850803200E-01 -0.38443415622E-02  0.17552936962E-01  0.51100000000E-03 0.  1.
         11    1    4    4    0    0 -0.12408898354E-01  0.95038491078E-01 -0.56968199686E-01  0.11149857596E+00  0.51100000000E-03 0. -1.
</event>
<event>
 8    1  0.1132255E+005  0.1043930E+01  0.7957747E-01            NaN
         13   -1    0    0    0    0  0.00000000000E+00  0.00000000000E+00  0.74505805969E-08  0.10566000000E+00  0.10566000000E+00 0. -1.
     999900   -1    0    0    0    0 -0.00000000000E+00 -0.00000000000E+00 -0.74505805969E-08  0.93827000000E+00  0.93827000000E+00 0. -1.
     999902    2    1    2    0    0 -0.19672505085E-01  0.13804305084E-01  0.31462888128E-02  0.10196923139E+01  0.10194042130E+01 0.  0.
     999903    2    3    3    0    0  0.32599078574E-01  0.73894043561E-01  0.10079990350E+00  0.13071575424E+00  0.20073820332E-01 0.  0.
         14    1    1    2    0    0  0.19672505085E-01 -0.13804305084E-01 -0.31462888128E-02  0.24237686120E-01  0.00000000000E+00 0.  1.
     999901    1    3    3    0    0 -0.52271583659E-01 -0.60089738477E-01 -0.97653614689E-01  0.88897655964E+00  0.88000000000E+00 0. -1.
        -11    1    4    4    0    0  0.59924264993E-02  0.26629900100E-01  0.46780640957E-01  0.54164104756E-01  0.51100000000E-03 0.  1.
         11    1    4    4    0    0  0.26606652075E-01  0.47264143461E-01  0.54019262545E-01  0.76551649483E-01  0.51100000000E-03 0. -1.
</event>
<event>
 8    1  0.1132255E+005  0.1043930E+01  0.7957747E-01            NaN
         13   -1    0    0    0    0  0.00000000000E+00  0.00000000000E+00  0.74505805969E-08  0.10566000000E+00  0.10566000000E+00 0.  1.
     999900   -1    0    0    0    0 -0.00000000000E+00 -0.00000000000E+00 -0.74505805969E-08  0.93827000000E+00  0.93827000000E+00 0.  1.
     999902    2    1    2    0    0  0.11883317818E-01 -0.19801448613E-01 -0.66874924817E-02  0.10198876797E+01  0.10196042595E+01 0.  0.
     999903    2    3    3    0    0  0.23784581553E-01 -0.80746429713E-01  0.98927550123E-01  0.13139993751E+00  0.19839132386E-01 0.  0.
         14    1    1    2    0    0 -0.11883317818E-01  0.19801448613E-01  0.66874924817E-02  0.24042320297E-01  0.00000000000E+00 0.  1.
     999901    1    3    3    0    0 -0.11901263735E-01  0.60944981100E-01 -0.10561504260E+00  0.88848774219E+00  0.88000000000E+00 0.  1.
        -11    1    4    4    0    0  0.11422552324E-01 -0.65756085547E-01  0.81027052241E-01  0.10497610111E+00  0.51100000000E-03 0.  1.
         11    1    4    4    0    0  0.12362029229E-01 -0.14990344166E-01  0.17900497882E-01  0.26423836404E-01  0.51100000000E-03 0. -1.
</event>
<event>
 8    1  0.1132255E+005  0.1043930E+01  0.7957747E-01            NaN
         13   -1    0    0    0    0  0.00000000000E+00  0.00000000000E+00  0.74505805969E-08  0.10566000000E+00  0.10566000000E+00 0.  1.
     999900   -1    0    0    0    0 -0.00000000000E+00 -0.00000000000E+00 -0.74505805969E-08  0.93827000000E+00  0.93827000000E+00 0.  1.
     999902    2    1    2    0    0  0.32257973169E-02 -0.72747108646E-02  0.21938775173E-01  0.10205925399E+01  0.10203256811E+01 0.  0.
     999903    2    3    3    0    0  0.98349699312E-01 -0.81859244844E-01 -0.18835246277E-01  0.13139406362E+00  0.23152410927E-01 0.  0.
         14    1    1    2    0    0 -0.32257973169E-02  0.72747108646E-02 -0.21938775173E-01  0.23337460072E-01  0.00000000000E+00 0. -1.
     999901    1    3    3    0    0 -0.95123901995E-01  0.74584533979E-01  0.40774021451E-01  0.88919847631E+00  0.88000000000E+00 0. -1.
        -11    1    4    4    0    0  0.83430438127E-01 -0.73824204500E-01 -0.89352780615E-02  0.11176203063E+00  0.51100000000E-03 0. -1.
         11    1    4    4    0    0  0.14919261184E-01 -0.80350403436E-02 -0.98999682159E-02  0.19632032989E-01  0.51100000000E-03 0.  1.
</event>
<event>
 8    1  0.1132255E+005  0.1043930E+01  0.7957747E-01            NaN
         13   -1    0    0    0    0  0.00000000000E+00  0.00000000000E+00  0.74505805969E-08  0.10566000000E+00  0.10566000000E+00 0.  1.
     999900   -1    0    0    0    0 -0.00000000000E+00 -0.00000000000E+00 -0.74505805969E-08  0.93827000000E+00  0.93827000000E+00 0. -1.
     999902    2    1    2    0    0  0.17124949031E-02  0.18886790110E-01  0.10346667167E-02  0.10249375274E+01  0.10247615435E+01 0.  0.
     999903    2    3    3    0    0 -0.58305842475E-01 -0.20676912749E-01  0.11764107129E+00  0.13433967149E+00  0.19509477025E-01 0.  0.
         14    1    1    2    0    0 -0.17124949031E-02 -0.18886790110E-01 -0.10346667167E-02  0.18992472579E-01  0.00000000000E+00 0. -1.
     999901    1    3    3    0    0  0.60018337378E-01  0.39563702859E-01 -0.11660640457E+00  0.89059785593E+00  0.88000000000E+00 0. -1.
        -11    1    4    4    0    0 -0.34251579500E-01 -0.19214123736E-01  0.58361062219E-01  0.70346485012E-01  0.51100000000E-03 0.  1.
         11    1    4    4    0    0 -0.24054262975E-01 -0.14627890131E-02  0.59280009071E-01  0.63993186476E-01  0.51100000000E-03 0. -1.
</event>
<event>
 8    1  0.1132255E+005  0.1043930E+01  0.7957747E-01            NaN
         13   -1    0    0    0    0  0.00000000000E+00  0.00000000000E+00  0.74505805969E-08  0.10566000000E+00  0.10566000000E+00 0. -1.
     999900   -1    0    0    0    0 -0.00000000000E+00 -0.00000000000E+00 -0.74505805969E-08  0.93827000000E+00  0.93827000000E+00 0. -1.
     999902    2    1    2    0    0  0.19087666967E-01 -0.12376030359E-01  0.44363792152E-03  0.10211769349E+01  0.10209234204E+01 0.  0.
     999903    2    3    3    0    0  0.38540775982E-01  0.36754617462E-01  0.11874544675E+00  0.13168968822E+00  0.20134536051E-01 0.  0.
         14    1    1    2    0    0 -0.19087666967E-01  0.12376030359E-01 -0.44363792152E-03  0.22753065118E-01  0.00000000000E+00 0.  1.
     999901    1    3    3    0    0 -0.19453109015E-01 -0.49130647820E-01 -0.11830180882E+00  0.88948724666E+00  0.88000000000E+00 0. -1.
        -11    1    4    4    0    0  0.24762907848E-01  0.18658284757E-01  0.88960475519E-01  0.94210193295E-01  0.51100000000E-03 0. -1.
         11    1    4    4    0    0  0.13777868134E-01  0.18096332705E-01  0.29784971228E-01  0.37479494923E-01  0.51100000000E-03 0.  1.
</event>
<event>
 7    1  0.1132255E+005  0.1043930E+01  0.7957747E-01            NaN
         13   -1    0    0    0    0  0.00000000000E+00  0.00000000000E+00  0.74505805969E-08  0.10566000000E+00  0.10566000000E+00 0. -1.
     999900   -1    0    0    0    0 -0.00000000000E+00 -0.00000000000E+00 -0.74505805969E-08  0.93827000000E+00  0.93827000000E+00 0.  1.
     999902    2    1    2    0    0 -0.20092625467E-02 -0.22706833828E-01  0.67594802019E-02  0.10201533726E+01  0.10198762550E+01 0.  0.
         14    1    1    2    0    0  0.20092625467E-02  0.22706833828E-01 -0.67594802019E-02  0.23776627411E-01  0.00000000000E+00 0. -1.
     999901    1    3    3    0    0 -0.99058791044E-01 -0.62800514938E-01  0.71553561890E-01  0.89066068790E+00  0.88000000000E+00 0. -1.
        -11    1    3    3    0    0  0.65693332207E-01  0.87309145763E-02 -0.28324393066E-01  0.72072013496E-01  0.51100000000E-03 0.  1.
         11    1    3    3    0    0  0.31356196290E-01  0.31362766534E-01 -0.36469688623E-01  0.57420671188E-01  0.51100000000E-03 0. -1.
</event>
<event>
 8    1  0.1132255E+005  0.1043930E+01  0.7957747E-01            NaN
         13   -1    0    0    0    0  0.00000000000E+00  0.00000000000E+00  0.74505805969E-08  0.10566000000E+00  0.10566000000E+00 0.  1.
     999900   -1    0    0    0    0 -0.00000000000E+00 -0.00000000000E+00 -0.74505805969E-08  0.93827000000E+00  0.93827000000E+00 0.  1.
     999902    2    1    2    0    0 -0.18592286372E-01 -0.23038086113E-02 -0.14744087956E-01  0.10200895139E+01  0.10198108882E+01 0.  0.
     999903    2    3    3    0    0  0.19373234523E-01 -0.66432801414E-01 -0.11028007935E+00  0.13178718130E+00  0.20433451364E-01 0.  0.
         14    1    1    2    0    0  0.18592286372E-01  0.23038086113E-02  0.14744087956E-01  0.23840486075E-01  0.00000000000E+00 0.  1.
     999901    1    3    3    0    0 -0.37965520896E-01  0.64128992803E-01  0.95535991392E-01  0.88830233262E+00  0.88000000000E+00 0.  1.
        -11    1    4    4    0    0  0.20543709945E-01 -0.57536521305E-01 -0.82980270258E-01  0.10304601727E+00  0.51100000000E-03 0. -1.
         11    1    4    4    0    0 -0.11704754212E-02 -0.88962801088E-02 -0.27299809090E-01  0.28741164030E-01  0.51100000000E-03 0.  1.
</event>
<event>
 8    1  0.1132255E+005  0.1043930E+01  0.7957747E-01            NaN
         13   -1    0    0    0    0  0.00000000000E+00  0.00000000000E+00  0.74505805969E-08  0.10566000000E+00  0.10566000000E+00 0. -1.
     999900   -1    0    0    0    0 -0.00000000000E+00 -0.00000000000E+00 -0.74505805969E-08  0.93827000000E+00  0.93827000000E+00 0.  1.
     999902    2    1    2    0    0  0.10052746736E-01 -0.14707041452E-02  0.18748898041E-01  0.10226053226E+01  0.10223829537E+01 0.  0.
     999903    2    3    3    0    0 -0.11238541847E+00  0.64714565176E-01 -0.46304335778E-02  0.13136002119E+00  0.20385215728E-01 0.  0.
         14    1    1    2    0    0 -0.10052746736E-01  0.14707041452E-02 -0.18748898041E-01  0.21324677380E-01  0.00000000000E+00 0.  1.
     999901    1    3    3    0    0  0.12243816521E+00 -0.66185269321E-01  0.23379331618E-01  0.89124530143E+00  0.88000000000E+00 0. -1.
        -11    1    4    4    0    0 -0.65608748571E-01  0.27663517758E-01  0.25807404915E-02  0.71250961021E-01  0.51100000000E-03 0.  1.
         11    1    4    4    0    0 -0.46776669902E-01  0.37051047418E-01 -0.72111740693E-02  0.60109060169E-01  0.51100000000E-03 0. -1.
</event>
<event>
 8    1  0.1132255E+005  0.1043930E+01  0.7957747E-01            NaN
         13   -1    0    0    0    0  0.00000000000E+00  0.00000000000E+00  0.74505805969E-08  0.10566000000E+00  0.10566000000E+00 0. -1.
     999900   -1    0    0    0    0 -0.00000000000E+00 -0.00000000000E+00 -0.74505805969E-08  0.93827000000E+00  0.93827000000E+00 0.  1.
     999902    2    1    2    0    0 -0.11630581788E-01 -0.84736332031E-02  0.17896406013E-01  0.10209658052E+01  0.10207075101E+01 0.  0.
     999903    2    3    3    0    0 -0.56906613705E-01  0.24036015985E-01 -0.11218765585E+00  0.12965852967E+00  0.20227986585E-01 0.  0.
         14    1    1    2    0    0  0.11630581788E-01  0.84736332031E-02 -0.17896406013E-01  0.22964194751E-01  0.00000000000E+00 0.  1.
     999901    1    3    3    0    0  0.45276031917E-01 -0.32509649189E-01  0.13008406187E+00  0.89130727558E+00  0.88000000000E+00 0. -1.
        -11    1    4    4    0    0 -0.14143632142E-01 -0.34414796556E-03 -0.38684724238E-01  0.41193807524E-01  0.51100000000E-03 0. -1.
         11    1    4    4    0    0 -0.42762981563E-01  0.24380163951E-01 -0.73502931616E-01  0.88464722141E-01  0.51100000000E-03 0.  1.
</event>
<event>
 8    1  0.1132255E+005  0.1043930E+01  0.7957747E-01            NaN
         13   -1    0    0    0    0  0.00000000000E+00  0.00000000000E+00  0.74505805969E-08  0.10566000000E+00  0.10566000000E+00 0. -1.
     999900   -1    0    0    0    0 -0.00000000000E+00 -0.00000000000E+00 -0.74505805969E-08  0.93827000000E+00  0.93827000000E+00 0.  1.
     999902    2    1    2    0    0 -0.14938610757E-01 -0.15658756633E-01 -0.10145456861E-01  0.10200283464E+01  0.10197482721E+01 0.  0.
     999903    2    3    3    0    0  0.49352343234E-01  0.11633525796E+00 -0.33628693143E-02  0.12783904464E+00  0.19025415030E-01 0.  0.
         14    1    1    2    0    0  0.14938610757E-01  0.15658756633E-01  0.10145456861E-01  0.23901653616E-01  0.00000000000E+00 0.  1.
     999901    1    3    3    0    0 -0.64290953991E-01 -0.13199401459E+00 -0.67825875463E-02  0.89218930174E+00  0.88000000000E+00 0.  1.
        -11    1    4    4    0    0  0.34036461119E-01  0.63856511069E-01 -0.88129435330E-02  0.72897625380E-01  0.51100000000E-03 0. -1.
         11    1    4    4    0    0  0.15315882115E-01  0.52478746891E-01  0.54500742187E-02  0.54941419260E-01  0.51100000000E-03 0.  1.
</event>
<event>
 8    1  0.1175162E+005  0.1043930E+01  0.7957747E-01            NaN
         13   -1    0    0    0    0  0.00000000000E+00  0.00000000000E+00  0.74505805969E-08  0.10566000000E+00  0.10566000000E+00 0. -1.
     999900   -1    0    0    0    0 -0.00000000000E+00 -0.00000000000E+00 -0.74505805969E-08  0.93827000000E+00  0.93827000000E+00 0.  1.
     999902    2    1    2    0    0 -0.21887569464E-01 -0.78900666417E-03  0.77804683089E-02  0.10206872825E+01  0.10204226109E+01 0.  0.
     999903    2    3    3    0    0 -0.28446218117E-01  0.95990606188E-01 -0.81911950436E-01  0.13082547341E+00  0.19553850457E-01 0.  0.
         14    1    1    2    0    0  0.21887569464E-01  0.78900666417E-03 -0.77804683089E-02  0.23242717476E-01  0.00000000000E+00 0.  1.
     999901    1    3    3    0    0  0.65586486529E-02 -0.96779612852E-01  0.89692418745E-01  0.88986180911E+00  0.88000000000E+00 0. -1.
        -11    1    4    4    0    0 -0.99508302758E-02  0.66131176164E-01 -0.53178282948E-01  0.85443211447E-01  0.51100000000E-03 0.  1.
         11    1    4    4    0    0 -0.18495387842E-01  0.29859430024E-01 -0.28733667488E-01  0.45382261965E-01  0.51100000000E-03 0. -1.
</event>
<event>
 8    1  0.1132255E+005  0.1043930E+01  0.7957747E-01            NaN
         13   -1    0    0    0    0  0.00000000000E+00  0.00000000000E+00  0.74505805969E-08  0.10566000000E+00  0.10566000000E+00 0. -1.
     999900   -1    0    0    0    0 -0.00000000000E+00 -0.00000000000E+00 -0.74505805969E-08  0.93827000000E+00  0.93827000000E+00 0.  1.
     999902    2    1    2    0    0 -0.12825669071E-01 -0.95013503892E-02 -0.17657271495E-01  0.10201276328E+01  0.10198499079E+01 0.  0.
     999903    2    3    3    0    0  0.73337162095E-01  0.41735453240E-01 -0.98101651888E-01  0.13079049661E+00  0.19027151627E-01 0.  0.
         14    1    1    2    0    0  0.12825669071E-01  0.95013503892E-02  0.17657271495E-01  0.23802367172E-01  0.00000000000E+00 0.  1.
     999901    1    3    3    0    0 -0.86162831165E-01 -0.51236803629E-01  0.80444380393E-01  0.88933713622E+00  0.88000000000E+00 0. -1.
        -11    1    4    4    0    0  0.47598279834E-01  0.32911757050E-01 -0.55136161321E-01  0.79931454393E-01  0.51100000000E-03 0. -1.
         11    1    4    4    0    0  0.25738882261E-01  0.88236961896E-02 -0.42965490567E-01  0.50859042216E-01  0.51100000000E-03 0.  1.
</event>
<event>
 8    1  0.1132255E+005  0.1043930E+01  0.7957747E-01            NaN
         13   -1    0    0    0    0  0.00000000000E+00  0.00000000000E+00  0.74505805969E-08  0.10566000000E+00  0.10566000000E+00 0. -1.
     999900   -1    0    0    0    0 -0.00000000000E+00 -0.00000000000E+00 -0.74505805969E-08  0.93827000000E+00  0.93827000000E+00 0.  1.
     999902    2    1    2    0    0 -0.12441338192E-01  0.17089696835E-01  0.97643097582E-02  0.10206451041E+01  0.10203794598E+01 0.  0.
     999903    2    3    3    0    0  0.52991017131E-02  0.12743995682E+00  0.33155044418E-01  0.13326749021E+00  0.19797573212E-01 0.  0.
         14    1    1    2    0    0  0.12441338192E-01 -0.17089696835E-01 -0.97643097582E-02  0.23284895941E-01  0.00000000000E+00 0. -1.
     999901    1    3    3    0    0 -0.17740439905E-01 -0.11035025998E+00 -0.23390734660E-01  0.88737761385E+00  0.88000000000E+00 0.  1.
        -11    1    4    4    0    0  0.11729983443E-01  0.93209156461E-01  0.28176307163E-01  0.98080093628E-01  0.51100000000E-03 0.  1.
         11    1    4    4    0    0 -0.64308817299E-02  0.34230800356E-01  0.49787372549E-02  0.35187396585E-01  0.51100000000E-03 0. -1.
</event>
<event>
 8    1  0.1132255E+005  0.1043930E+01  0.7957747E-01            NaN
         13   -1    0    0    0    0  0.00000000000E+00  0.00000000000E+00  0.74505805969E-08  0.10566000000E+00  0.10566000000E+00 0. -1.
     999900   -1    0    0    0    0 -0.00000000000E+00 -0.00000000000E+00 -0.74505805969E-08  0.93827000000E+00  0.93827000000E+00 0.  1.
     999902    2    1    2    0    0 -0.23147221129E-01 -0.48561360582E-02 -0.14127502551E-02  0.10202367147E+01  0.10199615592E+01 0.  0.
     999903    2    3    3    0    0  0.34554311305E-01  0.74609812685E-01  0.97729378412E-01  0.12924094284E+00  0.19788009573E-01 0.  0.
         14    1    1    2    0    0  0.23147221129E-01  0.48561360582E-02  0.14127502551E-02  0.23693285266E-01  0.00000000000E+00 0.  1.
     999901    1    3    3    0    0 -0.57701532434E-01 -0.79465948744E-01 -0.99142128667E-01  0.89099577189E+00  0.88000000000E+00 0.  1.
        -11    1    4    4    0    0  0.48809033347E-02  0.32591832101E-01  0.34218254446E-01  0.47510007318E-01  0.51100000000E-03 0.  1.
         11    1    4    4    0    0  0.29673407970E-01  0.42017980585E-01  0.63511123966E-01  0.81730935522E-01  0.51100000000E-03 0. -1.
</event>
<event>
 8    1  0.1132255E+005  0.1043930E+01  0.7957747E-01            NaN
         13   -1    0    0    0    0  0.00000000000E+00  0.00000000000E+00  0.74505805969E-08  0.10566000000E+00  0.10566000000E+00 0.  1.
     999900   -1    0    0    0    0 -0.00000000000E+00 -0.00000000000E+00 -0.74505805969E-08  0.93827000000E+00  0.93827000000E+00 0.  1.
     999902    2    1    2    0    0  0.14873834700E-01  0.63375938201E-02  0.16346110386E-01  0.10209388848E+01  0.10206799768E+01 0.  0.
     999903    2    3    3    0    0 -0.21112821477E-01 -0.67376530452E-01  0.10887600762E+00  0.13229351490E+00  0.25734042877E-01 0.  0.
         14    1    1    2    0    0 -0.14873834700E-01 -0.63375938201E-02 -0.16346110386E-01  0.22991115215E-01  0.00000000000E+00 0. -1.
     999901    1    3    3    0    0  0.35986656177E-01  0.73714124272E-01 -0.92529897232E-01  0.88864536989E+00  0.88000000000E+00 0.  1.
        -11    1    4    4    0    0 -0.14072597863E-02 -0.45761481126E-01  0.62894264586E-01  0.77794878840E-01  0.51100000000E-03 0.  1.
         11    1    4    4    0    0 -0.19705561691E-01 -0.21615049325E-01  0.45981743032E-01  0.54498636057E-01  0.51100000000E-03 0. -1.
</event>
<event>
 8    1  0.1132255E+005  0.1043930E+01  0.7957747E-01            NaN
         13   -1    0    0    0    0  0.00000000000E+00  0.00000000000E+00  0.74505805969E-08  0.10566000000E+00  0.10566000000E+00 0.  1.
     999900   -1    0    0    0    0 -0.00000000000E+00 -0.00000000000E+00 -0.74505805969E-08  0.93827000000E+00  0.93827000000E+00 0.  1.
     999902    2    1    2    0    0  0.73652894820E-02 -0.14258619078E-01  0.17545992854E-01  0.10201514893E+01  0.10198743273E+01 0.  0.
     999903    2    3    3    0    0 -0.57067788291E-01 -0.52519920926E-01  0.10554395397E+00  0.13259349686E+00  0.20650293864E-01 0.  0.
         14    1    1    2    0    0 -0.73652894820E-02  0.14258619078E-01 -0.17545992854E-01  0.23778510727E-01  0.00000000000E+00 0. -1.
     999901    1    3    3    0    0  0.64433077773E-01  0.38261301848E-01 -0.87997961115E-01  0.88755799241E+00  0.88000000000E+00 0.  1.
        -11    1    4    4    0    0 -0.10975731954E-01 -0.16542765167E-01  0.15333794976E-01  0.25090160635E-01  0.51100000000E-03 0. -1.
         11    1    4    4    0    0 -0.46092056336E-01 -0.35977155758E-01  0.90210158993E-01  0.10750333623E+00  0.51100000000E-03 0.  1.
</event>
<event>
 8    1  0.1132255E+005  0.1043930E+01  0.7957747E-01            NaN
         13   -1    0    0    0    0  0.00000000000E+00  0.00000000000E+00  0.74505805969E-08  0.10566000000E+00  0.10566000000E+00 0.  1.
     999900   -1    0    0    0    0 -0.00000000000E+00 -0.00000000000E+00 -0.74505805969E-08  0.93827000000E+00  0.93827000000E+00 0. -1.
     999902    2    1    2    0    0  0.13338663427E-01 -0.47116264376E-03 -0.19875475554E-01  0.10199888959E+01  0.10197078853E+01 0.  0.
     999903    2    3    3    0    0  0.11678298883E+00 -0.51532844403E-01 -0.28235900186E-01  0.13242035180E+00  0.21070903637E-01 0.  0.
         14    1    1    2    0    0 -0.13338663427E-01  0.47116264376E-03  0.19875475554E-01  0.23941104084E-01  0.00000000000E+00 0.  1.
     999901    1    3    3    0    0 -0.10344432540E+00  0.51061681759E-01  0.83604246321E-02  0.88756854411E+00  0.88000000000E+00 0.  1.
        -11    1    4    4    0    0  0.48610377871E-01 -0.10792031488E-01 -0.14074899723E-01  0.51747470505E-01  0.51100000000E-03 0.  1.
         11    1    4    4    0    0  0.68172610957E-01 -0.40740812915E-01 -0.14161000463E-01  0.80672881297E-01  0.51100000000E-03 0. -1.
</event>
<event>
 8    1  0.1132255E+005  0.1043930E+01  0.7957747E-01            NaN
         13   -1    0    0    0    0  0.00000000000E+00  0.00000000000E+00  0.74505805969E-08  0.10566000000E+00  0.10566000000E+00 0.  1.
     999900   -1    0    0    0    0 -0.00000000000E+00 -0.00000000000E+00 -0.74505805969E-08  0.93827000000E+00  0.93827000000E+00 0. -1.
     999902    2    1    2    0    0 -0.13358756751E-02  0.16067803418E-01 -0.17199900289E-01  0.10203546858E+01  0.10200822954E+01 0.  0.
     999903    2    3    3    0    0  0.85610643898E-01 -0.84202270922E-01  0.41062556007E-01  0.12849802752E+00  0.20159483965E-01 0.  0.
         14    1    1    2    0    0  0.13358756751E-02 -0.16067803418E-01  0.17199900289E-01  0.23575314217E-01  0.00000000000E+00 0.  1.
     999901    1    3    3    0    0 -0.86946519573E-01  0.10027007434E+00 -0.58262456296E-01  0.89185665826E+00  0.88000000000E+00 0. -1.
        -11    1    4    4    0    0  0.69727157551E-01 -0.72385513712E-01  0.41377958901E-01  0.10869193024E+00  0.51100000000E-03 0. -1.
         11    1    4    4    0    0  0.15883486347E-01 -0.11816757209E-01 -0.31540289401E-03  0.19806097280E-01  0.51100000000E-03 0.  1.
</event>
<event>
 8    1  0.1132255E+005  0.1043930E+01  0.7957747E-01            NaN
         13   -1    0    0    0    0  0.00000000000E+00  0.00000000000E+00  0.74505805969E-08  0.10566000000E+00  0.10566000000E+00 0. -1.
     999900   -1    0    0    0    0 -0.00000000000E+00 -0.00000000000E+00 -0.74505805969E-08  0.93827000000E+00  0.93827000000E+00 0. -1.
     999902    2    1    2    0    0  0.12942265794E-01 -0.17590669646E-01 -0.97175368938E-02  0.10200267696E+01  0.10197466578E+01 0.  0.
     999903    2    3    3    0    0  0.18529683971E-01  0.61158376512E-01  0.10979559788E+00  0.12844613893E+00  0.18964205465E-01 0.  0.
         14    1    1    2    0    0 -0.12942265794E-01  0.17590669646E-01  0.97175368938E-02  0.23903230446E-01  0.00000000000E+00 0. -1.
     999901    1    3    3    0    0 -0.55874181768E-02 -0.78749046158E-01 -0.11951313477E+00  0.89158063062E+00  0.88000000000E+00 0. -1.
        -11    1    4    4    0    0  0.97519819870E-02  0.28171952309E-01  0.33415434993E-01  0.44784064871E-01  0.51100000000E-03 0. -1.
         11    1    4    4    0    0  0.87777019836E-02  0.32986424202E-01  0.76380162882E-01  0.83662074064E-01  0.51100000000E-03 0.  1.
</event>
<event>
 8    1  0.1132255E+005  0.1043930E+01  0.7957747E-01            NaN
         13   -1    0    0    0    0  0.00000000000E+00  0.00000000000E+00  0.74505805969E-08  0.10566000000E+00  0.10566000000E+00 0. -1.
     999900   -1    0    0    0    0 -0.00000000000E+00 -0.00000000000E+00 -0.74505805969E-08  0.93827000000E+00  0.93827000000E+00 0.  1.
     999902    2    1    2    0    0 -0.28438443699E-02  0.22674070590E-01 -0.48740225105E-02  0.10205642767E+01  0.10202967637E+01 0.  0.
     999903    2    3    3    0    0 -0.99023983797E-01 -0.51349814813E-01  0.62943616599E-01  0.12964936105E+00  0.20112312184E-01 0.  0.
         14    1    1    2    0    0  0.28438443699E-02 -0.22674070590E-01  0.48740225105E-02  0.23365723258E-01  0.00000000000E+00 0.  1.
     999901    1    3    3    0    0  0.96180139427E-01  0.74023885403E-01 -0.67817639110E-01  0.89091491569E+00  0.88000000000E+00 0.  1.
        -11    1    4    4    0    0 -0.79291488599E-01 -0.31411285909E-01  0.47328873491E-01  0.97540209317E-01  0.51100000000E-03 0. -1.
         11    1    4    4    0    0 -0.19732495198E-01 -0.19938528904E-01  0.15614743108E-01  0.32109151732E-01  0.51100000000E-03 0.  1.
</event>
<event>
 8    1  0.1132255E+005  0.1043930E+01  0.7957747E-01            NaN
         13   -1    0    0    0    0  0.00000000000E+00  0.00000000000E+00  0.74505805969E-08  0.10566000000E+00  0.10566000000E+00 0. -1.
     999900   -1    0    0    0    0 -0.00000000000E+00 -0.00000000000E+00 -0.74505805969E-08  0.93827000000E+00  0.93827000000E+00 0.  1.
     999902    2    1    2    0    0 -0.83640120549E-02  0.17046788710E-01 -0.14986294229E-01  0.10197403593E+01  0.10194534132E+01 0.  0.
     999903    2    3    3    0    0 -0.67865256199E-01  0.68961660521E-01  0.84649127854E-01  0.13060439145E+00  0.23035377123E-01 0.  0.
         14    1    1    2    0    0  0.83640120549E-02 -0.17046788710E-01  0.14986294229E-01  0.24189640710E-01  0.00000000000E+00 0. -1.
     999901    1    3    3    0    0  0.59501244145E-01 -0.51914871810E-01 -0.99635422083E-01  0.88913596784E+00  0.88000000000E+00 0. -1.
        -11    1    4    4    0    0 -0.28894702799E-01  0.33278640200E-01  0.24077766224E-01  0.50223218642E-01  0.51100000000E-03 0. -1.
         11    1    4    4    0    0 -0.38970553400E-01  0.35683020321E-01  0.60571361630E-01  0.80381172810E-01  0.51100000000E-03 0.  1.
</event>
<event>
 8    1  0.1132255E+005  0.1043930E+01  0.7957747E-01            NaN
         13   -1    0    0    0    0  0.00000000000E+00  0.00000000000E+00  0.74505805969E-08  0.10566000000E+00  0.10566000000E+00 0.  1.
     999900   -1    0    0    0    0 -0.00000000000E+00 -0.00000000000E+00 -0.74505805969E-08  0.93827000000E+00  0.93827000000E+00 0. -1.
     999902    2    1    2    0    0  0.12355157664E-01  0.16851436462E-01 -0.20251235444E-01  0.10148313167E+01  0.10144140516E+01 0.  0.
     999903    2    3    3    0    0 -0.69718396330E-01 -0.76384241371E-01 -0.67173566330E-01  0.12487026981E+00  0.19623688518E-01 0.  0.
         14    1    1    2    0    0 -0.12355157664E-01 -0.16851436462E-01  0.20251235444E-01  0.29098683282E-01  0.00000000000E+00 0.  1.
     999901    1    3    3    0    0  0.82073553995E-01  0.93235677833E-01  0.46922330885E-01  0.88996104691E+00  0.88000000000E+00 0.  1.
        -11    1    4    4    0    0 -0.45967888182E-01 -0.62662136115E-01 -0.52144784769E-01  0.93589153998E-01  0.51100000000E-03 0. -1.
         11    1    4    4    0    0 -0.23750508148E-01 -0.13722105256E-01 -0.15028781560E-01  0.31281115807E-01  0.51100000000E-03 0.  1.
</event>
<event>
 8    1  0.1132255E+005  0.1043930E+01  0.7957747E-01            NaN
         13   -1    0    0    0    0  0.00000000000E+00  0.00000000000E+00  0.74505805969E-08  0.10566000000E+00  0.10566000000E+00 0. -1.
     999900   -1    0    0    0    0 -0.00000000000E+00 -0.00000000000E+00 -0.74505805969E-08  0.93827000000E+00  0.93827000000E+00 0.  1.
     999902    2    1    2    0    0  0.48838133545E-02  0.11508356952E-01 -0.19518918586E-01  0.10207506537E+01  0.10204874399E+01 0.  0.
     999903    2    3    3    0    0 -0.19163849353E-01 -0.12420590750E+00  0.21587019544E-01  0.12907450743E+00  0.19996711608E-01 0.  0.
         14    1    1    2    0    0 -0.48838133545E-02 -0.11508356952E-01  0.19518918586E-01  0.23179346310E-01  0.00000000000E+00 0. -1.
     999901    1    3    3    0    0  0.24047662707E-01  0.13571426445E+00 -0.41105938129E-01  0.89167614626E+00  0.88000000000E+00 0. -1.
        -11    1    4    4    0    0 -0.19197498255E-01 -0.80587618213E-01  0.72648337704E-02  0.83162173368E-01  0.51100000000E-03 0.  1.
         11    1    4    4    0    0  0.33648902047E-04 -0.43618289289E-01  0.14322185773E-01  0.45912334062E-01  0.51100000000E-03 0. -1.
</event>
<event>
 8    1  0.1132255E+005  0.1043930E+01  0.7957747E-01            NaN
         13   -1    0    0    0    0  0.00000000000E+00  0.00000000000E+00  0.74505805969E-08  0.10566000000E+00  0.10566000000E+00 0. -1.
     999900   -1    0    0    0    0 -0.00000000000E+00 -0.00000000000E+00 -0.74505805969E-08  0.93827000000E+00  0.93827000000E+00 0.  1.
     999902    2    1    2    0    0 -0.20452144006E-01  0.85187418216E-02 -0.71544541275E-02  0.10206481322E+01  0.10203825578E+01 0.  0.
     999903    2    3    3    0    0  0.29322799919E-01  0.11782085291E+00 -0.46673275685E-01  0.13161144349E+00  0.20039895667E-01 0.  0.
         14    1    1    2    0    0  0.20452144006E-01 -0.85187418216E-02  0.71544541275E-02  0.23281867849E-01  0.00000000000E+00 0. -1.
     999901    1    3    3    0    0 -0.49774943925E-01 -0.10930211109E+00  0.39518821557E-01  0.88903668866E+00  0.88000000000E+00 0. -1.
        -11    1    4    4    0    0  0.19105422178E-01  0.40805986022E-01 -0.21637351083E-01  0.49985815335E-01  0.51100000000E-03 0.  1.
         11    1    4    4    0    0  0.10217377741E-01  0.77014866888E-01 -0.25035924602E-01  0.81625628153E-01  0.51100000000E-03 0. -1.
</event>
<event>
 7    1  0.1132255E+005  0.1043930E+01  0.7957747E-01            NaN
         13   -1    0    0    0    0  0.00000000000E+00  0.00000000000E+00  0.74505805969E-08  0.10566000000E+00  0.10566000000E+00 0. -1.
     999900   -1    0    0    0    0 -0.00000000000E+00 -0.00000000000E+00 -0.74505805969E-08  0.93827000000E+00  0.93827000000E+00 0. -1.
     999902    2    1    2    0    0  0.10714839030E-01  0.19811558387E-01 -0.26434816351E-02  0.10212519574E+01  0.10210001307E+01 0.  0.
         14    1    1    2    0    0 -0.10714839030E-01 -0.19811558387E-01  0.26434816351E-02  0.22678042604E-01  0.00000000000E+00 0.  1.
     999901    1    3    3    0    0  0.58044841692E-01  0.75893962611E-01 -0.10207921350E+00  0.89103830616E+00  0.88000000000E+00 0. -1.
        -11    1    3    3    0    0 -0.39604881464E-01 -0.40521745152E-01  0.42915054779E-01  0.71081091112E-01  0.51100000000E-03 0. -1.
         11    1    3    3    0    0 -0.77251211973E-02 -0.15560659071E-01  0.56520677085E-01  0.59132560129E-01  0.51100000000E-03 0.  1.
</event>
<event>
 8    1  0.1132255E+005  0.1043930E+01  0.7957747E-01            NaN
         13   -1    0    0    0    0  0.00000000000E+00  0.00000000000E+00  0.74505805969E-08  0.10566000000E+00  0.10566000000E+00 0. -1.
     999900   -1    0    0    0    0 -0.00000000000E+00 -0.00000000000E+00 -0.74505805969E-08  0.93827000000E+00  0.93827000000E+00 0. -1.
     999902    2    1    2    0    0 -0.18388872427E-01 -0.14480106289E-01 -0.28554652798E-02  0.10203508187E+01  0.10200783379E+01 0.  0.
     999903    2    3    3    0    0 -0.86602848415E-01  0.45633047130E-03 -0.96354220748E-01  0.13264689234E+00  0.28474560572E-01 0.  0.
         14    1    1    2    0    0  0.18388872427E-01  0.14480106289E-01  0.28554652798E-02  0.23579181267E-01  0.00000000000E+00 0.  1.
     999901    1    3    3    0    0  0.68213975988E-01 -0.14936436760E-01  0.93498755468E-01  0.88770392640E+00  0.88000000000E+00 0.  1.
        -11    1    4    4    0    0 -0.52839026958E-01 -0.66190819889E-02 -0.75301460444E-01  0.92229854615E-01  0.51100000000E-03 0. -1.
         11    1    4    4    0    0 -0.33763821457E-01  0.70754124602E-02 -0.21052760304E-01  0.40417037723E-01  0.51100000000E-03 0.  1.
</event>
<event>
 8    1  0.1132255E+005  0.1043930E+01  0.7957747E-01            NaN
         13   -1    0    0    0    0  0.00000000000E+00  0.00000000000E+00  0.74505805969E-08  0.10566000000E+00  0.10566000000E+00 0.  1.
     999900   -1    0    0    0    0 -0.00000000000E+00 -0.00000000000E+00 -0.74505805969E-08  0.93827000000E+00  0.93827000000E+00 0.  1.
     999902    2    1    2    0    0 -0.21034125974E-01 -0.11202221344E-01  0.14780733729E-02  0.10200530463E+01  0.10197735574E+01 0.  0.
     999903    2    3    3    0    0  0.11759297552E+00 -0.31524086933E-01 -0.35242712585E-01  0.12821288816E+00  0.19355101464E-01 0.  0.
         14    1    1    2    0    0  0.21034125974E-01  0.11202221344E-01 -0.14780733729E-02  0.23876953730E-01  0.00000000000E+00 0. -1.
     999901    1    3    3    0    0 -0.13862710149E+00  0.20321865589E-01  0.36720785958E-01  0.89184015811E+00  0.88000000000E+00 0. -1.
        -11    1    4    4    0    0  0.61368547154E-01 -0.75954320363E-02 -0.13049137810E-01  0.63200714286E-01  0.51100000000E-03 0. -1.
         11    1    4    4    0    0  0.56224428365E-01 -0.23928654897E-01 -0.22193574775E-01  0.65012173879E-01  0.51100000000E-03 0.  1.
</event>
<event>
 8    1  0.1132255E+005  0.1043930E+01  0.7957747E-01            NaN
         13   -1    0    0    0    0  0.00000000000E+00  0.00000000000E+00  0.74505805969E-08  0.10566000000E+00  0.10566000000E+00 0.  1.
     999900   -1    0    0    0    0 -0.00000000000E+00 -0.00000000000E+00 -0.74505805969E-08  0.93827000000E+00  0.93827000000E+00 0.  1.
     999902    2    1    2    0    0  0.28872858567E-02  0.12229429506E-01 -0.47682245500E-02  0.10304900844E+01  0.10304024373E+01 0.  0.
     999903    2    3    3    0    0  0.95389462331E-01 -0.49510613611E-01 -0.87019478245E-01  0.13968496863E+00  0.19724362651E-01 0.  0.
         14    1    1    2    0    0 -0.28872858567E-02 -0.12229429506E-01  0.47682245500E-02  0.13439915589E-01  0.00000000000E+00 0.  1.
     999901    1    3    3    0    0 -0.92502176474E-01  0.61740043117E-01  0.82251253695E-01  0.89080511579E+00  0.88000000000E+00 0.  1.
        -11    1    4    4    0    0  0.32956006574E-01 -0.23241631829E-01 -0.42713517726E-01  0.58745021380E-01  0.51100000000E-03 0.  1.
         11    1    4    4    0    0  0.62433455757E-01 -0.26268981782E-01 -0.44305960518E-01  0.80939947246E-01  0.51100000000E-03 0. -1.
</event>
<event>
 8    1  0.1132255E+005  0.1043930E+01  0.7957747E-01            NaN
         13   -1    0    0    0    0  0.00000000000E+00  0.00000000000E+00  0.74505805969E-08  0.10566000000E+00  0.10566000000E+00 0. -1.
     999900   -1    0    0    0    0 -0.00000000000E+00 -0.00000000000E+00 -0.74505805969E-08  0.93827000000E+00  0.93827000000E+00 0. -1.
     999902    2    1    2    0    0 -0.60263649249E-02 -0.13787248523E-01 -0.19379701582E-01  0.10193947574E+01  0.10190994521E+01 0.  0.
     999903    2    3    3    0    0  0.16094154262E-01 -0.12894690273E+00  0.12910189727E-01  0.13102901042E+00  0.10751885805E-01 0.  0.
         14    1    1    2    0    0  0.60263649249E-02  0.13787248523E-01  0.19379701582E-01  0.24535242600E-01  0.00000000000E+00 0. -1.
     999901    1    3    3    0    0 -0.22120519187E-01  0.11515965421E+00 -0.32289891309E-01  0.88836574698E+00  0.88000000000E+00 0. -1.
        -11    1    4    4    0    0  0.75289485657E-02 -0.76825390834E-01  0.27918768781E-02  0.77245591724E-01  0.51100000000E-03 0.  1.
         11    1    4    4    0    0  0.85652056964E-02 -0.52121511894E-01  0.10118312849E-01  0.53783418696E-01  0.51100000000E-03 0. -1.
</event>
<event>
 8    1  0.1132255E+005  0.1043930E+01  0.7957747E-01            NaN
         13   -1    0    0    0    0  0.00000000000E+00  0.00000000000E+00  0.74505805969E-08  0.10566000000E+00  0.10566000000E+00 0.  1.
     999900   -1    0    0    0    0 -0.00000000000E+00 -0.00000000000E+00 -0.74505805969E-08  0.93827000000E+00  0.93827000000E+00 0.  1.
     999902    2    1    2    0    0  0.13825169390E-01  0.14937005819E-01 -0.10847200580E-01  0.10208667996E+01  0.10206062470E+01 0.  0.
     999903    2    3    3    0    0 -0.11184185232E+00 -0.35487820590E-01 -0.51131259283E-01  0.12959934882E+00  0.20337162967E-01 0.  0.
         14    1    1    2    0    0 -0.13825169390E-01 -0.14937005819E-01  0.10847200580E-01  0.23063200383E-01  0.00000000000E+00 0. -1.
     999901    1    3    3    0    0  0.12566702171E+00  0.50424826409E-01  0.40284058704E-01  0.89126745080E+00  0.88000000000E+00 0.  1.
        -11    1    4    4    0    0 -0.28855862000E-01 -0.12374913516E-01 -0.47436245328E-02  0.31757870693E-01  0.51100000000E-03 0.  1.
         11    1    4    4    0    0 -0.82985990323E-01 -0.23112907075E-01 -0.46387634750E-01  0.97841478127E-01  0.51100000000E-03 0. -1.
</event>
<event>
 8    1  0.1132255E+005  0.1043930E+01  0.7957747E-01            NaN
         13   -1    0    0    0    0  0.00000000000E+00  0.00000000000E+00  0.74505805969E-08  0.10566000000E+00  0.10566000000E+00 0. -1.
     999900   -1    0    0    0    0 -0.00000000000E+00 -0.00000000000E+00 -0.74505805969E-08  0.93827000000E+00  0.93827000000E+00 0.  1.
     999902    2    1    2    0    0  0.21113542775E-01  0.10160448815E-01 -0.34971545624E-02  0.10202393584E+01  0.10199642650E+01 0.  0.
     999903    2    3    3    0    0 -0.31960759036E-01  0.23910175970E-01  0.12161442879E+00  0.12970084448E+00  0.20953594869E-01 0.  0.
         14    1    1    2    0    0 -0.21113542775E-01 -0.10160448815E-01  0.34971545624E-02  0.23690641584E-01  0.00000000000E+00 0. -1.
     999901    1    3    3    0    0  0.53074301810E-01 -0.13749727155E-01 -0.12511158335E+00  0.89053851393E+00  0.88000000000E+00 0.  1.
        -11    1    4    4    0    0 -0.13686753466E-01  0.22578326839E-01  0.63764999823E-01  0.69016986218E-01  0.51100000000E-03 0. -1.
         11    1    4    4    0    0 -0.18274005569E-01  0.13318491317E-02  0.57849428962E-01  0.60683858265E-01  0.51100000000E-03 0.  1.
</event>
<event>
 8    1  0.1132255E+005  0.1043930E+01  0.7957747E-01            NaN
         13   -1    0    0    0    0  0.00000000000E+00  0.00000000000E+00  0.74505805969E-08  0.10566000000E+00  0.10566000000E+00 0.  1.
     999900   -1    0    0    0    0 -0.00000000000E+00 -0.00000000000E+00 -0.74505805969E-08  0.93827000000E+00  0.93827000000E+00 0. -1.
     999902    2    1    2    0    0 -0.12228206923E-01  0.20028345868E-01 -0.59697609534E-02  0.10197163318E+01  0.10194288085E+01 0.  0.
     999903    2    3    3    0    0  0.11105748720E+00  0.64281462551E-01  0.18881866680E-02  0.12998634574E+00  0.20664291419E-01 0.  0.
         14    1    1    2    0    0  0.12228206923E-01 -0.20028345868E-01  0.59697609534E-02  0.24213668218E-01  0.00000000000E+00 0. -1.
     999901    1    3    3    0    0 -0.12328569413E+00 -0.44253116683E-01 -0.78579476214E-02  0.88972998604E+00  0.88000000000E+00 0. -1.
        -11    1    4    4    0    0  0.45247017554E-01  0.19460800397E-01 -0.74424541492E-02  0.49816328592E-01  0.51100000000E-03 0.  1.
         11    1    4    4    0    0  0.65810469649E-01  0.44820662154E-01  0.93306408171E-02  0.80170017153E-01  0.51100000000E-03 0. -1.
</event>
<event>
 8    1  0.1132255E+005  0.1043930E+01  0.7957747E-01            NaN
         13   -1    0    0    0    0  0.00000000000E+00  0.00000000000E+00  0.74505805969E-08  0.10566000000E+00  0.10566000000E+00 0. -1.
     999900   -1    0    0    0    0 -0.00000000000E+00 -0.00000000000E+00 -0.74505805969E-08  0.93827000000E+00  0.93827000000E+00 0.  1.
     999902    2    1    2    0    0  0.20012035078E-01 -0.66455497580E-02  0.14571934791E-01  0.10182982587E+01  0.10179756173E+01 0.  0.
     999903    2    3    3    0    0  0.73324807754E-01 -0.83607829237E-01  0.67207032847E-01  0.13176800102E+00  0.21891192008E-01 0.  0.
         14    1    1    2    0    0 -0.20012035078E-01  0.66455497580E-02 -0.14571934791E-01  0.25631741321E-01  0.00000000000E+00 0.  1.
     999901    1    3    3    0    0 -0.53312772676E-01  0.76962279479E-01 -0.52635098055E-01  0.88653025766E+00  0.88000000000E+00 0. -1.
        -11    1    4    4    0    0  0.47990801669E-01 -0.38444185862E-01  0.34319777027E-01  0.70421450479E-01  0.51100000000E-03 0. -1.
         11    1    4    4    0    0  0.25334006085E-01 -0.45163643375E-01  0.32887255820E-01  0.61346550544E-01  0.51100000000E-03 0.  1.
</event>
<event>
 8    1  0.1132255E+005  0.1043930E+01  0.7957747E-01            NaN
         13   -1    0    0    0    0  0.00000000000E+00  0.00000000000E+00  0.74505805969E-08  0.10566000000E+00  0.10566000000E+00 0. -1.
     999900   -1    0    0    0    0 -0.00000000000E+00 -0.00000000000E+00 -0.74505805969E-08  0.93827000000E+00  0.93827000000E+00 0.  1.
     999902    2    1    2    0    0  0.23655123642E-01 -0.32710342742E-02  0.22166761775E-03  0.10200487589E+01  0.10197691684E+01 0.  0.
     999903    2    3    3    0    0 -0.48457550874E-01  0.11764613974E+00 -0.33116933535E-02  0.12885086537E+00  0.20070619338E-01 0.  0.
         14    1    1    2    0    0 -0.23655123642E-01  0.32710342742E-02 -0.22166761775E-03  0.23881241096E-01  0.00000000000E+00 0.  1.
     999901    1    3    3    0    0  0.72112674516E-01 -0.12091717402E+00  0.35333609712E-02  0.89119789353E+00  0.88000000000E+00 0. -1.
        -11    1    4    4    0    0 -0.36107185103E-01  0.64635562247E-01  0.26946239653E-02  0.74087831945E-01  0.51100000000E-03 0.  1.
         11    1    4    4    0    0 -0.12350365771E-01  0.53010577497E-01 -0.60063173188E-02  0.54763033426E-01  0.51100000000E-03 0. -1.
</event>
<event>
 8    1  0.1132255E+005  0.1043930E+01  0.7957747E-01            NaN
         13   -1    0    0    0    0  0.00000000000E+00  0.00000000000E+00  0.74505805969E-08  0.10566000000E+00  0.10566000000E+00 0.  1.
     999900   -1    0    0    0    0 -0.00000000000E+00 -0.00000000000E+00 -0.74505805969E-08  0.93827000000E+00  0.93827000000E+00 0. -1.
     999902    2    1    2    0    0  0.11536033347E-01  0.96218872535E-02  0.18340326193E-01  0.10202228630E+01  0.10199473819E+01 0.  0.
     999903    2    3    3    0    0 -0.10937801562E-01 -0.11525464610E+00 -0.51720870328E-01  0.12836648830E+00  0.19990946457E-01 0.  0.
         14    1    1    2    0    0 -0.11536033347E-01 -0.96218872535E-02 -0.18340326193E-01  0.23707136997E-01  0.00000000000E+00 0. -1.
     999901    1    3    3    0    0  0.22473834909E-01  0.12487653336E+00  0.70061196521E-01  0.89185637470E+00  0.88000000000E+00 0.  1.
        -11    1    4    4    0    0  0.57352023208E-02 -0.21459910395E-01 -0.99039655532E-02  0.24326322256E-01  0.51100000000E-03 0.  1.
         11    1    4    4    0    0 -0.16673003883E-01 -0.93794735707E-01 -0.41816904775E-01  0.10404016605E+00  0.51100000000E-03 0. -1.
</event>
<event>
 8    1  0.1132255E+005  0.1043930E+01  0.7957747E-01            NaN
         13   -1    0    0    0    0  0.00000000000E+00  0.00000000000E+00  0.74505805969E-08  0.10566000000E+00  0.10566000000E+00 0. -1.
     999900   -1    0    0    0    0 -0.00000000000E+00 -0.00000000000E+00 -0.74505805969E-08  0.93827000000E+00  0.93827000000E+00 0.  1.
     999902    2    1    2    0    0  0.34866236706E-03 -0.16331609406E-01 -0.29405294077E-01  0.10102920103E+01  0.10097318613E+01 0.  0.
     999903    2    3    3    0    0 -0.98960469655E-01 -0.20330506334E-01  0.62064439397E-01  0.11998587923E+00  0.18387836601E-01 0.  0.
         14    1    1    2    0    0 -0.34866236706E-03  0.16331609406E-01  0.29405294077E-01  0.33637989699E-01  0.00000000000E+00 0. -1.
     999901    1    3    3    0    0  0.99309132022E-01  0.39988969279E-02 -0.91469733474E-01  0.89030613107E+00  0.88000000000E+00 0.  1.
        -11    1    4    4    0    0 -0.92634257150E-02 -0.77856505442E-02  0.69810758850E-02  0.13979411715E-01  0.51100000000E-03 0. -1.
         11    1    4    4    0    0 -0.89697043940E-01 -0.12544855790E-01  0.55083363512E-01  0.10600646752E+00  0.51100000000E-03 0.  1.
</event>
<event>
 8    1  0.1132255E+005  0.1043930E+01  0.7957747E-01            NaN
         13   -1    0    0    0    0  0.00000000000E+00  0.00000000000E+00  0.74505805969E-08  0.10566000000E+00  0.10566000000E+00 0.  1.
     999900   -1    0    0    0    0 -0.00000000000E+00 -0.00000000000E+00 -0.74505805969E-08  0.93827000000E+00  0.93827000000E+00 0.  1.
     999902    2    1    2    0    0 -0.20801511161E-02 -0.23977740024E-01  0.14378717102E-02  0.10198192862E+01  0.10195342319E+01 0.  0.
     999903    2    3    3    0    0 -0.91951392998E-01  0.70558830787E-01  0.52883261079E-01  0.12871848862E+00  0.18390289145E-01 0.  0.
         14    1    1    2    0    0  0.20801511161E-02  0.23977740024E-01 -0.14378717102E-02  0.24110713809E-01  0.00000000000E+00 0. -1.
     999901    1    3    3    0    0  0.89871241882E-01 -0.94536570811E-01 -0.51445389369E-01  0.89110079757E+00  0.88000000000E+00 0.  1.
        -11    1    4    4    0    0 -0.79803879795E-01  0.59972229207E-01  0.52033421063E-01  0.11257471090E+00  0.51100000000E-03 0. -1.
         11    1    4    4    0    0 -0.12147513203E-01  0.10586601580E-01  0.84984001613E-03  0.16143777720E-01  0.51100000000E-03 0.  1.
</event>
<event>
 8    1  0.1132255E+005  0.1043930E+01  0.7957747E-01            NaN
         13   -1    0    0    0    0  0.00000000000E+00  0.00000000000E+00  0.74505805969E-08  0.10566000000E+00  0.10566000000E+00 0. -1.
     999900   -1    0    0    0    0 -0.00000000000E+00 -0.00000000000E+00 -0.74505805969E-08  0.93827000000E+00  0.93827000000E+00 0. -1.
     999902    2    1    2    0    0 -0.15056343545E-01 -0.18397964802E-01 -0.19774780119E-02  0.10200744135E+01  0.10197954305E+01 0.  0.
     999903    2    3    3    0    0  0.48612266889E-01 -0.70152834393E-01 -0.97530069512E-01  0.13110728458E+00  0.19809920413E-01 0.  0.
         14    1    1    2    0    0  0.15056343545E-01  0.18397964802E-01  0.19774780119E-02  0.23855586539E-01  0.00000000000E+00 0.  1.
     999901    1    3    3    0    0 -0.63668610434E-01  0.51754869590E-01  0.95552591500E-01  0.88896712888E+00  0.88000000000E+00 0.  1.
        -11    1    4    4    0    0  0.17756412263E-02 -0.15462085786E-01 -0.18873822681E-01  0.24468577854E-01  0.51100000000E-03 0.  1.
         11    1    4    4    0    0  0.46836625663E-01 -0.54690748606E-01 -0.78656246831E-01  0.10663870673E+00  0.51100000000E-03 0. -1.
</event>
<event>
 8    1  0.1132255E+005  0.1043930E+01  0.7957747E-01            NaN
         13   -1    0    0    0    0  0.00000000000E+00  0.00000000000E+00  0.74505805969E-08  0.10566000000E+00  0.10566000000E+00 0. -1.
     999900   -1    0    0    0    0 -0.00000000000E+00 -0.00000000000E+00 -0.74505805969E-08  0.93827000000E+00  0.93827000000E+00 0.  1.
     999902    2    1    2    0    0  0.23211593932E-01 -0.14375023971E-02 -0.38202951101E-02  0.10203622432E+01  0.10200900294E+01 0.  0.
     999903    2    3    3    0    0  0.54961403786E-01  0.10603488464E+00  0.51369758908E-01  0.13154037889E+00  0.19996661777E-01 0.  0.
         14    1    1    2    0    0 -0.23211593932E-01  0.14375023971E-02  0.38202951101E-02  0.23567756803E-01  0.00000000000E+00 0.  1.
     999901    1    3    3    0    0 -0.31749809854E-01 -0.10747238704E+00 -0.55190054018E-01  0.88882186430E+00  0.88000000000E+00 0. -1.
        -11    1    4    4    0    0  0.27082746487E-01  0.43296260257E-01  0.12244509910E-01  0.52518858074E-01  0.51100000000E-03 0. -1.
         11    1    4    4    0    0  0.27878657299E-01  0.62738624384E-01  0.39125248997E-01  0.79021520819E-01  0.51100000000E-03 0.  1.
</event>
<event>
 8    1  0.1132255E+005  0.1043930E+01  0.7957747E-01            NaN
         13   -1    0    0    0    0  0.00000000000E+00  0.00000000000E+00  0.74505805969E-08  0.10566000000E+00  0.10566000000E+00 0.  1.
     999900   -1    0    0    0    0 -0.00000000000E+00 -0.00000000000E+00 -0.74505805969E-08  0.93827000000E+00  0.93827000000E+00 0.  1.
     999902    2    1    2    0    0 -0.17522574035E-01 -0.64341308637E-02  0.82031485749E-02  0.10235405349E+01  0.10233374303E+01 0.  0.
     999903    2    3    3    0    0  0.57463847157E-01  0.64213081044E-01 -0.96966410628E-01  0.13131039188E+00  0.20359781909E-01 0.  0.
         14    1    1    2    0    0  0.17522574035E-01  0.64341308637E-02 -0.82031485749E-02  0.20389465106E-01  0.00000000000E+00 0.  1.
     999901    1    3    3    0    0 -0.74986421192E-01 -0.70647211907E-01  0.10516955920E+00  0.89223014301E+00  0.88000000000E+00 0. -1.
        -11    1    4    4    0    0  0.27056831994E-02  0.67684318012E-02 -0.17667461047E-01  0.19118909265E-01  0.51100000000E-03 0. -1.
         11    1    4    4    0    0  0.54758163957E-01  0.57444649243E-01 -0.79298949580E-01  0.11219148262E+00  0.51100000000E-03 0.  1.
</event>
<event>
 8    1  0.1132255E+005  0.1043930E+01  0.7957747E-01            NaN
         13   -1    0    0    0    0  0.00000000000E+00  0.00000000000E+00  0.74505805969E-08  0.10566000000E+00  0.10566000000E+00 0.  1.
     999900   -1    0    0    0    0 -0.00000000000E+00 -0.00000000000E+00 -0.74505805969E-08  0.93827000000E+00  0.93827000000E+00 0.  1.
     999902    2    1    2    0    0  0.10342723977E-01 -0.21311795580E-01 -0.82411644611E-03  0.10202267568E+01  0.10199513673E+01 0.  0.
     999903    2    3    3    0    0  0.12357587673E+00 -0.43138019616E-01 -0.83354405685E-02  0.13267137773E+00  0.20008219587E-01 0.  0.
         14    1    1    2    0    0 -0.10342723977E-01  0.21311795580E-01  0.82411644611E-03  0.23703243197E-01  0.00000000000E+00 0.  1.
     999901    1    3    3    0    0 -0.11323315276E+00  0.21826224035E-01  0.75113241224E-02  0.88755537908E+00  0.88000000000E+00 0. -1.
        -11    1    4    4    0    0  0.47144526673E-01 -0.81927015180E-02  0.25767483266E-02  0.47923141657E-01  0.51100000000E-03 0. -1.
         11    1    4    4    0    0  0.76431350062E-01 -0.34945318098E-01 -0.10912188895E-01  0.84748236069E-01  0.51100000000E-03 0.  1.
</event>
<event>
 8    1  0.1132255E+005  0.1043930E+01  0.7957747E-01            NaN
         13   -1    0    0    0    0  0.00000000000E+00  0.00000000000E+00  0.74505805969E-08  0.10566000000E+00  0.10566000000E+00 0. -1.
     999900   -1    0    0    0    0 -0.00000000000E+00 -0.00000000000E+00 -0.74505805969E-08  0.93827000000E+00  0.93827000000E+00 0. -1.
     999902    2    1    2    0    0  0.21033250123E-01  0.95796372077E-03  0.10681529497E-01  0.10203204600E+01  0.10200472689E+01 0.  0.
     999903    2    3    3    0    0  0.25385094648E-01  0.27878297783E-01 -0.12271955269E+00  0.12984896039E+00  0.19469498870E-01 0.  0.
         14    1    1    2    0    0 -0.21033250123E-01 -0.95796372077E-03 -0.10681529497E-01  0.23609539970E-01  0.00000000000E+00 0.  1.
     999901    1    3    3    0    0 -0.43518445256E-02 -0.26920334063E-01  0.13340108218E+00  0.89047149964E+00  0.88000000000E+00 0.  1.
        -11    1    4    4    0    0  0.15859611390E-01  0.28315225900E-01 -0.86421963320E-01  0.92316283268E-01  0.51100000000E-03 0. -1.
         11    1    4    4    0    0  0.95254832580E-02 -0.43692811658E-03 -0.36297589366E-01  0.37532677126E-01  0.51100000000E-03 0.  1.
</event>
<event>
 8    1  0.1132255E+005  0.1043930E+01  0.7957747E-01            NaN
         13   -1    0    0    0    0  0.00000000000E+00  0.00000000000E+00  0.74505805969E-08  0.10566000000E+00  0.10566000000E+00 0.  1.
     999900   -1    0    0    0    0 -0.00000000000E+00 -0.00000000000E+00 -0.74505805969E-08  0.93827000000E+00  0.93827000000E+00 0. -1.
     999902    2    1    2    0    0  0.15719616095E-01 -0.75091982666E-02 -0.15257268539E-01  0.10207723094E+01  0.10205095928E+01 0.  0.
     999903    2    3    3    0    0  0.12128245633E+00 -0.31829054472E-01  0.37807725426E-01  0.13254324989E+00  0.20390342514E-01 0.  0.
         14    1    1    2    0    0 -0.15719616095E-01  0.75091982666E-02  0.15257268539E-01  0.23157690560E-01  0.00000000000E+00 0.  1.
     999901    1    3    3    0    0 -0.10556284023E+00  0.24319856205E-01 -0.53064993966E-01  0.88822905955E+00  0.88000000000E+00 0. -1.
        -11    1    4    4    0    0  0.30396524689E-01  0.48534133583E-03  0.61528265680E-02  0.31021003613E-01  0.51100000000E-03 0. -1.
         11    1    4    4    0    0  0.90885931640E-01 -0.32314395807E-01  0.31654898858E-01  0.10152224628E+00  0.51100000000E-03 0.  1.
</event>
<event>
 8    1  0.1132255E+005  0.1043930E+01  0.7957747E-01            NaN
         13   -1    0    0    0    0  0.00000000000E+00  0.00000000000E+00  0.74505805969E-08  0.10566000000E+00  0.10566000000E+00 0.  1.
     999900   -1    0    0    0    0 -0.00000000000E+00 -0.00000000000E+00 -0.74505805969E-08  0.93827000000E+00  0.93827000000E+00 0. -1.
     999902    2    1    2    0    0  0.15092749411E-01 -0.36191123408E-02 -0.17743693032E-01  0.10203561225E+01  0.10200837657E+01 0.  0.
     999903    2    3    3    0    0 -0.28230189251E-01 -0.12239159575E+00 -0.32222688307E-01  0.13120291795E+00  0.19981434894E-01 0.  0.
         14    1    1    2    0    0 -0.15092749411E-01  0.36191123408E-02  0.17743693032E-01  0.23573877520E-01  0.00000000000E+00 0.  1.
     999901    1    3    3    0    0  0.43322938661E-01  0.11877248341E+00  0.14478995275E-01  0.88915320453E+00  0.88000000000E+00 0. -1.
        -11    1    4    4    0    0 -0.27990548752E-01 -0.12041711126E+00 -0.28377296088E-01  0.12684353968E+00  0.51100000000E-03 0. -1.
         11    1    4    4    0    0 -0.23964049865E-03 -0.19744844899E-02 -0.38453922189E-02  0.43593782684E-02  0.51100000000E-03 0.  1.
</event>
<event>
 8    1  0.1132255E+005  0.1043930E+01  0.7957747E-01            NaN
         13   -1    0    0    0    0  0.00000000000E+00  0.00000000000E+00  0.74505805969E-08  0.10566000000E+00  0.10566000000E+00 0. -1.
     999900   -1    0    0    0    0 -0.00000000000E+00 -0.00000000000E+00 -0.74505805969E-08  0.93827000000E+00  0.93827000000E+00 0. -1.
     999902    2    1    2    0    0  0.70543332083E-02  0.14032552073E-01 -0.17837093460E-01  0.10201636785E+01  0.10198868040E+01 0.  0.
     999903    2    3    3    0    0 -0.11371122307E+00 -0.57182668034E-01 -0.85661564179E-02  0.12901729466E+00  0.19286874010E-01 0.  0.
         14    1    1    2    0    0 -0.70543332083E-02 -0.14032552073E-01  0.17837093460E-01  0.23766321503E-01  0.00000000000E+00 0. -1.
     999901    1    3    3    0    0  0.12076555628E+00  0.71215220107E-01 -0.92709370422E-02  0.89114638384E+00  0.88000000000E+00 0. -1.
        -11    1    4    4    0    0 -0.77217609426E-01 -0.33297748622E-01 -0.13319979567E-01  0.85140955159E-01  0.51100000000E-03 0.  1.
         11    1    4    4    0    0 -0.36493613643E-01 -0.23884919413E-01  0.47538231488E-02  0.43876339497E-01  0.51100000000E-03 0. -1.
</event>
<event>
 8    1  0.1132255E+005  0.1043930E+01  0.7957747E-01            NaN
         13   -1    0    0    0    0  0.00000000000E+00  0.00000000000E+00  0.74505805969E-08  0.10566000000E+00  0.10566000000E+00 0.  1.
     999900   -1    0    0    0    0 -0.00000000000E+00 -0.00000000000E+00 -0.74505805969E-08  0.93827000000E+00  0.93827000000E+00 0.  1.
     999902    2    1    2    0    0 -0.10049289683E-01 -0.22746926310E-01 -0.81413029995E-03  0.10190488086E+01  0.10187450125E+01 0.  0.
     999903    2    3    3    0    0 -0.88045658695E-02  0.47664211982E-02  0.12722408371E+00  0.12935654834E+00  0.21140245347E-01 0.  0.
         14    1    1    2    0    0  0.10049289683E-01  0.22746926310E-01  0.81413029995E-03  0.24881191447E-01  0.00000000000E+00 0. -1.
     999901    1    3    3    0    0 -0.12447238133E-02 -0.27513347508E-01 -0.12803821401E+00  0.88969226021E+00  0.88000000000E+00 0.  1.
        -11    1    4    4    0    0  0.16447402462E-02 -0.70036240404E-02  0.52341549410E-01  0.52836112990E-01  0.51100000000E-03 0.  1.
         11    1    4    4    0    0 -0.10449306116E-01  0.11770045239E-01  0.74882534297E-01  0.76520435355E-01  0.51100000000E-03 0. -1.
</event>
<event>
 8    1  0.1132255E+005  0.1043930E+01  0.7957747E-01            NaN
         13   -1    0    0    0    0  0.00000000000E+00  0.00000000000E+00  0.74505805969E-08  0.10566000000E+00  0.10566000000E+00 0. -1.
     999900   -1    0    0    0    0 -0.00000000000E+00 -0.00000000000E+00 -0.74505805969E-08  0.93827000000E+00  0.93827000000E+00 0.  1.
     999902    2    1    2    0    0  0.19003728631E-01 -0.82160682870E-03 -0.14557068601E-01  0.10199774430E+01  0.10196961603E+01 0.  0.
     999903    2    3    3    0    0  0.95498812601E-01  0.56821275525E-01  0.66919634992E-01  0.13103838269E+00  0.18551000755E-01 0.  0.
         14    1    1    2    0    0 -0.19003728631E-01  0.82160682870E-03  0.14557068601E-01  0.23952556981E-01  0.00000000000E+00 0. -1.
     999901    1    3    3    0    0 -0.76495083969E-01 -0.57642882354E-01 -0.81476703593E-01  0.88893906033E+00  0.88000000000E+00 0.  1.
        -11    1    4    4    0    0  0.35786041593E-01  0.28553983074E-01  0.35194985260E-01  0.57748756097E-01  0.51100000000E-03 0.  1.
         11    1    4    4    0    0  0.59712771007E-01  0.28267292451E-01  0.31724649732E-01  0.73289626589E-01  0.51100000000E-03 0. -1.
</event>
<event>
 8    1  0.1132255E+005  0.1043930E+01  0.7957747E-01            NaN
         13   -1    0    0    0    0  0.00000000000E+00  0.00000000000E+00  0.74505805969E-08  0.10566000000E+00  0.10566000000E+00 0.  1.
     999900   -1    0    0    0    0 -0.00000000000E+00 -0.00000000000E+00 -0.74505805969E-08  0.93827000000E+00  0.93827000000E+00 0. -1.
     999902    2    1    2    0    0 -0.47916825825E-02 -0.38826143418E-02 -0.22590381330E-01  0.10205129070E+01  0.10202442027E+01 0.  0.
     999903    2    3    3    0    0 -0.45466389734E-01  0.11868486028E+00  0.19115634665E-01  0.13011040846E+00  0.20249006014E-01 0.  0.
         14    1    1    2    0    0  0.47916825825E-02  0.38826143418E-02  0.22590381330E-01  0.23417093004E-01  0.00000000000E+00 0.  1.
     999901    1    3    3    0    0  0.40674707152E-01 -0.12256747462E+00 -0.41706015996E-01  0.89040249854E+00  0.88000000000E+00 0. -1.
        -11    1    4    4    0    0 -0.21415347622E-01  0.30873041094E-01  0.75986575320E-02  0.38337481626E-01  0.51100000000E-03 0.  1.
         11    1    4    4    0    0 -0.24051042112E-01  0.87811819187E-01  0.11516977134E-01  0.91772926830E-01  0.51100000000E-03 0. -1.
</event>
<event>
 8    1  0.1132255E+005  0.1043930E+01  0.7957747E-01            NaN
         13   -1    0    0    0    0  0.00000000000E+00  0.00000000000E+00  0.74505805969E-08  0.10566000000E+00  0.10566000000E+00 0. -1.
     999900   -1    0    0    0    0 -0.00000000000E+00 -0.00000000000E+00 -0.74505805969E-08  0.93827000000E+00  0.93827000000E+00 0. -1.
     999902    2    1    2    0    0 -0.59015007921E-02 -0.19392130874E-01 -0.12263406621E-01  0.10202387866E+01  0.10199636798E+01 0.  0.
     999903    2    3    3    0    0 -0.21048015440E-01  0.45523968416E-01  0.11598642824E+00  0.12844759073E+00  0.23032181273E-01 0.  0.
         14    1    1    2    0    0  0.59015007921E-02  0.19392130874E-01  0.12263406621E-01  0.23691213421E-01  0.00000000000E+00 0. -1.
     999901    1    3    3    0    0  0.15146514648E-01 -0.64916099290E-01 -0.12824983486E+00  0.89179119585E+00  0.88000000000E+00 0. -1.
        -11    1    4    4    0    0 -0.14237702095E-01  0.21274662628E-01  0.83500239798E-01  0.87337704333E-01  0.51100000000E-03 0. -1.
         11    1    4    4    0    0 -0.68103133453E-02  0.24249305788E-01  0.32486188441E-01  0.41109886396E-01  0.51100000000E-03 0.  1.
</event>
<event>
 8    1  0.1132255E+005  0.1043930E+01  0.7957747E-01            NaN
         13   -1    0    0    0    0  0.00000000000E+00  0.00000000000E+00  0.74505805969E-08  0.10566000000E+00  0.10566000000E+00 0. -1.
     999900   -1    0    0    0    0 -0.00000000000E+00 -0.00000000000E+00 -0.74505805969E-08  0.93827000000E+00  0.93827000000E+00 0. -1.
     999902    2    1    2    0    0  0.53634818625E-02  0.64531880564E-02  0.22264828288E-01  0.10201364472E+01  0.10198589304E+01 0.  0.
     999903    2    3    3    0    0  0.81562933985E-01  0.71298468239E-01 -0.68075027433E-01  0.12987100571E+00  0.22277454767E-01 0.  0.
         14    1    1    2    0    0 -0.53634818625E-02 -0.64531880564E-02 -0.22264828288E-01  0.23793552750E-01  0.00000000000E+00 0.  1.
     999901    1    3    3    0    0 -0.76199452123E-01 -0.64845280183E-01  0.90339855721E-01  0.89026544154E+00  0.88000000000E+00 0.  1.
        -11    1    4    4    0    0  0.18786099436E-01  0.25748632715E-01 -0.11584754936E-01  0.33917212248E-01  0.51100000000E-03 0. -1.
         11    1    4    4    0    0  0.62776834549E-01  0.45549835524E-01 -0.56490272497E-01  0.95953793463E-01  0.51100000000E-03 0.  1.
</event>
<event>
 8    1  0.1132255E+005  0.1043930E+01  0.7957747E-01            NaN
         13   -1    0    0    0    0  0.00000000000E+00  0.00000000000E+00  0.74505805969E-08  0.10566000000E+00  0.10566000000E+00 0. -1.
     999900   -1    0    0    0    0 -0.00000000000E+00 -0.00000000000E+00 -0.74505805969E-08  0.93827000000E+00  0.93827000000E+00 0. -1.
     999902    2    1    2    0    0 -0.10338179382E-01 -0.11317972668E-02  0.21075395094E-01  0.10204282725E+01  0.10201575996E+01 0.  0.
     999903    2    3    3    0    0 -0.57651529290E-01  0.48606417104E-01  0.10819263363E+00  0.13346612205E+00  0.20525037121E-01 0.  0.
         14    1    1    2    0    0  0.10338179382E-01  0.11317972668E-02 -0.21075395094E-01  0.23501727519E-01  0.00000000000E+00 0.  1.
     999901    1    3    3    0    0  0.47313349908E-01 -0.49738214371E-01 -0.87117238540E-01  0.88696215043E+00  0.88000000000E+00 0. -1.
        -11    1    4    4    0    0 -0.50095206424E-02  0.31368265917E-02  0.21563237224E-01  0.22364465089E-01  0.51100000000E-03 0.  1.
         11    1    4    4    0    0 -0.52642008647E-01  0.45469590513E-01  0.86629396411E-01  0.11110165696E+00  0.51100000000E-03 0. -1.
</event>
<event>
 8    1  0.1132255E+005  0.1043930E+01  0.7957747E-01            NaN
         13   -1    0    0    0    0  0.00000000000E+00  0.00000000000E+00  0.74505805969E-08  0.10566000000E+00  0.10566000000E+00 0.  1.
     999900   -1    0    0    0    0 -0.00000000000E+00 -0.00000000000E+00 -0.74505805969E-08  0.93827000000E+00  0.93827000000E+00 0.  1.
     999902    2    1    2    0    0 -0.43271197568E-02 -0.12175857769E-01 -0.20193786147E-01  0.10199557539E+01  0.10196739554E+01 0.  0.
     999903    2    3    3    0    0 -0.54505800671E-01 -0.18897417980E-01 -0.11824567950E+00  0.13306384774E+00  0.19898546254E-01 0.  0.
         14    1    1    2    0    0  0.43271197568E-02  0.12175857769E-01  0.20193786147E-01  0.23974246115E-01  0.00000000000E+00 0.  1.
     999901    1    3    3    0    0  0.50178680914E-01  0.67215602104E-02  0.98051893351E-01  0.88689190614E+00  0.88000000000E+00 0. -1.
        -11    1    4    4    0    0 -0.25842566076E-01 -0.17945359050E-01 -0.72989472201E-01  0.79483320929E-01  0.51100000000E-03 0.  1.
         11    1    4    4    0    0 -0.28663234595E-01 -0.95205892998E-03 -0.45256207298E-01  0.53580526814E-01  0.51100000000E-03 0. -1.
</event>
<event>
 8    1  0.1132255E+005  0.1043930E+01  0.7957747E-01            NaN
         13   -1    0    0    0    0  0.00000000000E+00  0.00000000000E+00  0.74505805969E-08  0.10566000000E+00  0.10566000000E+00 0.  1.
     999900   -1    0    0    0    0 -0.00000000000E+00 -0.00000000000E+00 -0.74505805969E-08  0.93827000000E+00  0.93827000000E+00 0. -1.
     999902    2    1    2    0    0 -0.17490527690E-01  0.74605195533E-02 -0.14336816687E-01  0.10201156719E+01  0.10198376644E+01 0.  0.
     999903    2    3    3    0    0 -0.77333187494E-01 -0.33947644370E-01  0.96991157929E-01  0.13012145960E+00  0.19784971197E-01 0.  0.
         14    1    1    2    0    0  0.17490527690E-01 -0.74605195533E-02  0.14336816687E-01  0.23814328115E-01  0.00000000000E+00 0.  1.
     999901    1    3    3    0    0  0.59842659804E-01  0.41408163923E-01 -0.11132797462E+00  0.88999421229E+00  0.88000000000E+00 0. -1.
        -11    1    4    4    0    0 -0.59195174214E-01 -0.17587208911E-01  0.62587155895E-01  0.87924921219E-01  0.51100000000E-03 0.  1.
         11    1    4    4    0    0 -0.18138013281E-01 -0.16360435459E-01  0.34404002034E-01  0.42196538379E-01  0.51100000000E-03 0. -1.
</event>
<event>
 8    1  0.1132255E+005  0.1043930E+01  0.7957747E-01            NaN
         13   -1    0    0    0    0  0.00000000000E+00  0.00000000000E+00  0.74505805969E-08  0.10566000000E+00  0.10566000000E+00 0. -1.
     999900   -1    0    0    0    0 -0.00000000000E+00 -0.00000000000E+00 -0.74505805969E-08  0.93827000000E+00  0.93827000000E+00 0. -1.
     999902    2    1    2    0    0 -0.10760895367E-01  0.89414563491E-02 -0.19364693555E-01  0.10200398793E+01  0.10197600784E+01 0.  0.
     999903    2    3    3    0    0 -0.38942242254E-01  0.11204790899E+00 -0.56210266926E-01  0.13280669396E+00  0.20169078074E-01 0.  0.
         14    1    1    2    0    0  0.10760895367E-01 -0.89414563491E-02  0.19364693555E-01  0.23890120703E-01  0.00000000000E+00 0. -1.
     999901    1    3    3    0    0  0.28181346886E-01 -0.10310645265E+00  0.36845573371E-01  0.88723318534E+00  0.88000000000E+00 0.  1.
        -11    1    4    4    0    0 -0.75849981543E-02  0.88604314291E-02 -0.10390296089E-01  0.15628781652E-01  0.51100000000E-03 0. -1.
         11    1    4    4    0    0 -0.31357244099E-01  0.10318747757E+00 -0.45819970837E-01  0.11717791231E+00  0.51100000000E-03 0.  1.
</event>
<event>
 8    1  0.1132255E+005  0.1043930E+01  0.7957747E-01            NaN
         13   -1    0    0    0    0  0.00000000000E+00  0.00000000000E+00  0.74505805969E-08  0.10566000000E+00  0.10566000000E+00 0.  1.
     999900   -1    0    0    0    0 -0.00000000000E+00 -0.00000000000E+00 -0.74505805969E-08  0.93827000000E+00  0.93827000000E+00 0. -1.
     999902    2    1    2    0    0 -0.84508763364E-02  0.21922373353E-01 -0.57660777083E-02  0.10197379472E+01  0.10194509432E+01 0.  0.
     999903    2    3    3    0    0 -0.92476373296E-01  0.46625943138E-01 -0.79862824560E-01  0.13229167936E+00  0.19928860693E-01 0.  0.
         14    1    1    2    0    0  0.84508763364E-02 -0.21922373353E-01  0.57660777083E-02  0.24192052753E-01  0.00000000000E+00 0.  1.
     999901    1    3    3    0    0  0.84025496960E-01 -0.24703569785E-01  0.74096746852E-01  0.88744626789E+00  0.88000000000E+00 0.  1.
        -11    1    4    4    0    0 -0.21008161859E-01  0.17944975354E-02 -0.15337719202E-01  0.26078148658E-01  0.51100000000E-03 0. -1.
         11    1    4    4    0    0 -0.71468211437E-01  0.44831445602E-01 -0.64525105358E-01  0.10621353070E+00  0.51100000000E-03 0.  1.
</event>
<event>
 8    1  0.1132255E+005  0.1043930E+01  0.7957747E-01            NaN
         13   -1    0    0    0    0  0.00000000000E+00  0.00000000000E+00  0.74505805969E-08  0.10566000000E+00  0.10566000000E+00 0.  1.
     999900   -1    0    0    0    0 -0.00000000000E+00 -0.00000000000E+00 -0.74505805969E-08  0.93827000000E+00  0.93827000000E+00 0.  1.
     999902    2    1    2    0    0 -0.78951352274E-02  0.24221783758E-01 -0.53437002743E-02  0.10178995735E+01  0.10175666852E+01 0.  0.
     999903    2    3    3    0    0 -0.52530677470E-01  0.11891518965E+00  0.53102960888E-02  0.13163060738E+00  0.19953023591E-01 0.  0.
         14    1    1    2    0    0  0.78951352274E-02 -0.24221783758E-01  0.53437002743E-02  0.26030426452E-01  0.00000000000E+00 0.  1.
     999901    1    3    3    0    0  0.44635542243E-01 -0.94693405891E-01 -0.10653996363E-01  0.88626896617E+00  0.88000000000E+00 0.  1.
        -11    1    4    4    0    0 -0.17727999175E-01  0.22804976698E-01 -0.31581542670E-02  0.29061727002E-01  0.51100000000E-03 0.  1.
         11    1    4    4    0    0 -0.34802678295E-01  0.96110212951E-01  0.84684503558E-02  0.10256888038E+00  0.51100000000E-03 0. -1.
</event>
<event>
 8    1  0.1132255E+005  0.1043930E+01  0.7957747E-01            NaN
         13   -1    0    0    0    0  0.00000000000E+00  0.00000000000E+00  0.74505805969E-08  0.10566000000E+00  0.10566000000E+00 0. -1.
     999900   -1    0    0    0    0 -0.00000000000E+00 -0.00000000000E+00 -0.74505805969E-08  0.93827000000E+00  0.93827000000E+00 0.  1.
     999902    2    1    2    0    0  0.58323923943E-02 -0.21390906173E-01 -0.77699656274E-02  0.10204361703E+01  0.10201656815E+01 0.  0.
     999903    2    3    3    0    0  0.12113983799E-02  0.12326527508E+00  0.28617087067E-01  0.12787200904E+00  0.18344413247E-01 0.  0.
         14    1    1    2    0    0 -0.58323923943E-02  0.21390906173E-01  0.77699656274E-02  0.23493829697E-01  0.00000000000E+00 0. -1.
     999901    1    3    3    0    0  0.46209940144E-02 -0.14465618126E+00 -0.36387052694E-01  0.89256416126E+00  0.88000000000E+00 0.  1.
        -11    1    4    4    0    0  0.84661093861E-02  0.49567693515E-01  0.15828529984E-01  0.52720344564E-01  0.51100000000E-03 0. -1.
         11    1    4    4    0    0 -0.72547110062E-02  0.73697581568E-01  0.12788557083E-01  0.75151664479E-01  0.51100000000E-03 0.  1.
</event>
<event>
 8    1  0.1132255E+005  0.1043930E+01  0.7957747E-01            NaN
         13   -1    0    0    0    0  0.00000000000E+00  0.00000000000E+00  0.74505805969E-08  0.10566000000E+00  0.10566000000E+00 0. -1.
     999900   -1    0    0    0    0 -0.00000000000E+00 -0.00000000000E+00 -0.74505805969E-08  0.93827000000E+00  0.93827000000E+00 0. -1.
     999902    2    1    2    0    0 -0.13998111535E-01  0.15275569549E-01  0.11316701510E-01  0.10203215717E+01  0.10200484066E+01 0.  0.
     999903    2    3    3    0    0  0.67131667574E-01 -0.10672214259E+00  0.16709399473E-01  0.12819234119E+00  0.16056020581E-01 0.  0.
         14    1    1    2    0    0  0.13998111535E-01 -0.15275569549E-01 -0.11316701510E-01  0.23608428255E-01  0.00000000000E+00 0. -1.
     999901    1    3    3    0    0 -0.81129779108E-01  0.12199771214E+00 -0.53926979630E-02  0.89212923056E+00  0.88000000000E+00 0.  1.
        -11    1    4    4    0    0  0.13093646010E-01 -0.20084999803E-01 -0.30936376006E-02  0.24180208798E-01  0.51100000000E-03 0. -1.
         11    1    4    4    0    0  0.54038021564E-01 -0.86637142792E-01  0.19803037073E-01  0.10401213239E+00  0.51100000000E-03 0.  1.
</event>
<event>
 8    1  0.1132255E+005  0.1043930E+01  0.7957747E-01            NaN
         13   -1    0    0    0    0  0.00000000000E+00  0.00000000000E+00  0.74505805969E-08  0.10566000000E+00  0.10566000000E+00 0. -1.
     999900   -1    0    0    0    0 -0.00000000000E+00 -0.00000000000E+00 -0.74505805969E-08  0.93827000000E+00  0.93827000000E+00 0.  1.
     999902    2    1    2    0    0  0.14975005334E-01  0.17394019184E-01 -0.61414461611E-02  0.10201703693E+01  0.10198936525E+01 0.  0.
     999903    2    3    3    0    0  0.48837635946E-01 -0.26106913677E-01 -0.11747129308E+00  0.13144468403E+00  0.20285823507E-01 0.  0.
         14    1    1    2    0    0 -0.14975005334E-01 -0.17394019184E-01  0.61414461611E-02  0.23759630660E-01  0.00000000000E+00 0. -1.
     999901    1    3    3    0    0 -0.33862630612E-01  0.43500932861E-01  0.11132984692E+00  0.88872568531E+00  0.88000000000E+00 0. -1.
        -11    1    4    4    0    0  0.10903175910E-01 -0.72754711984E-02 -0.50729333875E-01  0.52397883187E-01  0.51100000000E-03 0.  1.
         11    1    4    4    0    0  0.37934460036E-01 -0.18831442478E-01 -0.66741959207E-01  0.79046800845E-01  0.51100000000E-03 0. -1.
</event>
<event>
 8    1  0.1132255E+005  0.1043930E+01  0.7957747E-01            NaN
         13   -1    0    0    0    0  0.00000000000E+00  0.00000000000E+00  0.74505805969E-08  0.10566000000E+00  0.10566000000E+00 0.  1.
     999900   -1    0    0    0    0 -0.00000000000E+00 -0.00000000000E+00 -0.74505805969E-08  0.93827000000E+00  0.93827000000E+00 0. -1.
     999902    2    1    2    0    0  0.88327494683E-02  0.19834982039E-01  0.18745914084E-01  0.10152445809E+01  0.10148392512E+01 0.  0.
     999903    2    3    3    0    0 -0.99825811240E-01 -0.65517813992E-01 -0.24302978248E-01  0.12342341621E+00  0.19619591684E-01 0.  0.
         14    1    1    2    0    0 -0.88327494683E-02 -0.19834982039E-01 -0.18745914084E-01  0.28685419127E-01  0.00000000000E+00 0. -1.
     999901    1    3    3    0    0  0.10865856071E+00  0.85352796031E-01  0.43048892332E-01  0.89182116466E+00  0.88000000000E+00 0.  1.
        -11    1    4    4    0    0 -0.82272788297E-01 -0.48389564062E-01 -0.12712186411E-01  0.96292379806E-01  0.51100000000E-03 0.  1.
         11    1    4    4    0    0 -0.17553022943E-01 -0.17128249930E-01 -0.11590791837E-01  0.27131036406E-01  0.51100000000E-03 0. -1.
</event>
<event>
 7    1  0.1132255E+005  0.1043930E+01  0.7957747E-01            NaN
         13   -1    0    0    0    0  0.00000000000E+00  0.00000000000E+00  0.74505805969E-08  0.10566000000E+00  0.10566000000E+00 0. -1.
     999900   -1    0    0    0    0 -0.00000000000E+00 -0.00000000000E+00 -0.74505805969E-08  0.93827000000E+00  0.93827000000E+00 0.  1.
     999902    2    1    2    0    0 -0.14512001645E-01 -0.17779451352E-01 -0.47814318850E-02  0.10204871083E+01  0.10202178047E+01 0.  0.
         14    1    1    2    0    0  0.14512001645E-01  0.17779451352E-01  0.47814318850E-02  0.23442891737E-01  0.00000000000E+00 0.  1.
     999901    1    3    3    0    0  0.79491469155E-01  0.20546162573E-01 -0.89349130271E-01  0.88832668852E+00  0.88000000000E+00 0.  1.
        -11    1    3    3    0    0 -0.72857186699E-01 -0.28669827033E-01  0.66062590600E-01  0.10244342650E+00  0.51100000000E-03 0.  1.
         11    1    3    3    0    0 -0.21146284101E-01 -0.96557868922E-02  0.18505107787E-01  0.29716993236E-01  0.51100000000E-03 0. -1.
</event>
<event>
 8    1  0.1132255E+005  0.1043930E+01  0.7957747E-01            NaN
         13   -1    0    0    0    0  0.00000000000E+00  0.00000000000E+00  0.74505805969E-08  0.10566000000E+00  0.10566000000E+00 0.  1.
     999900   -1    0    0    0    0 -0.00000000000E+00 -0.00000000000E+00 -0.74505805969E-08  0.93827000000E+00  0.93827000000E+00 0. -1.
     999902    2    1    2    0    0 -0.20957491400E-01  0.45350285807E-02 -0.99124098911E-02  0.10203071551E+01  0.10200336524E+01 0.  0.
     999903    2    3    3    0    0 -0.10096582734E+00 -0.25616917492E-01 -0.80533730629E-01  0.13334726617E+00  0.21106559981E-01 0.  0.
         14    1    1    2    0    0  0.20957491400E-01 -0.45350285807E-02  0.99124098911E-02  0.23622844872E-01  0.00000000000E+00 0.  1.
     999901    1    3    3    0    0  0.80008335941E-01  0.30151946073E-01  0.70621320738E-01  0.88695988895E+00  0.88000000000E+00 0. -1.
        -11    1    4    4    0    0 -0.43560452712E-01 -0.21804277866E-01 -0.38560521413E-01  0.62129819784E-01  0.51100000000E-03 0. -1.
         11    1    4    4    0    0 -0.57405374630E-01 -0.38126396257E-02 -0.41973209216E-01  0.71217446389E-01  0.51100000000E-03 0.  1.
</event>
<event>
 8    1  0.1132255E+005  0.1043930E+01  0.7957747E-01            NaN
         13   -1    0    0    0    0  0.00000000000E+00  0.00000000000E+00  0.74505805969E-08  0.10566000000E+00  0.10566000000E+00 0.  1.
     999900   -1    0    0    0    0 -0.00000000000E+00 -0.00000000000E+00 -0.74505805969E-08  0.93827000000E+00  0.93827000000E+00 0.  1.
     999902    2    1    2    0    0  0.50913773258E-02 -0.21427365983E-01  0.98029933901E-02  0.10198228887E+01  0.10195379206E+01 0.  0.
     999903    2    3    3    0    0 -0.22972846352E-01 -0.11057768744E+00 -0.64766510832E-01  0.13173731206E+00  0.20120681786E-01 0.  0.
         14    1    1    2    0    0 -0.50913773258E-02  0.21427365983E-01 -0.98029933901E-02  0.24107111304E-01  0.00000000000E+00 0. -1.
     999901    1    3    3    0    0  0.28064223678E-01  0.89150321454E-01  0.74569504222E-01  0.88808557663E+00  0.88000000000E+00 0. -1.
        -11    1    4    4    0    0 -0.13106574747E-02 -0.12948042885E-01 -0.85145031629E-03  0.13052039159E-01  0.51100000000E-03 0. -1.
         11    1    4    4    0    0 -0.21662188877E-01 -0.97629644551E-01 -0.63915060516E-01  0.11868527290E+00  0.51100000000E-03 0.  1.
</event>
<event>
 8    1  0.1132255E+005  0.1043930E+01  0.7957747E-01            NaN
         13   -1    0    0    0    0  0.00000000000E+00  0.00000000000E+00  0.74505805969E-08  0.10566000000E+00  0.10566000000E+00 0. -1.
     999900   -1    0    0    0    0 -0.00000000000E+00 -0.00000000000E+00 -0.74505805969E-08  0.93827000000E+00  0.93827000000E+00 0. -1.
     999902    2    1    2    0    0  0.17545251837E-01  0.16939729594E-02 -0.14758093914E-01  0.10209407255E+01  0.10206818595E+01 0.  0.
     999903    2    3    3    0    0  0.13107778864E+00 -0.13569186228E-01  0.95466057210E-03  0.13337692970E+00  0.20566587210E-01 0.  0.
         14    1    1    2    0    0 -0.17545251837E-01 -0.16939729594E-02  0.14758093914E-01  0.22989274508E-01  0.00000000000E+00 0. -1.
     999901    1    3    3    0    0 -0.11353253681E+00  0.15263159188E-01 -0.15712754486E-01  0.88756379579E+00  0.88000000000E+00 0.  1.
        -11    1    4    4    0    0  0.37208870325E-01  0.52971103876E-02  0.17124194268E-02  0.37626492138E-01  0.51100000000E-03 0.  1.
         11    1    4    4    0    0  0.93868918320E-01 -0.18866296616E-01 -0.75775885469E-03  0.95750437565E-01  0.51100000000E-03 0. -1.
</event>
<event>
 8    1  0.1132255E+005  0.1043930E+01  0.7957747E-01            NaN
         13   -1    0    0    0    0  0.00000000000E+00  0.00000000000E+00  0.74505805969E-08  0.10566000000E+00  0.10566000000E+00 0.  1.
     999900   -1    0    0    0    0 -0.00000000000E+00 -0.00000000000E+00 -0.74505805969E-08  0.93827000000E+00  0.93827000000E+00 0.  1.
     999902    2    1    2    0    0 -0.19986772011E-02  0.26587357680E-02  0.22417594482E-01  0.10212669876E+01  0.10210154984E+01 0.  0.
     999903    2    3    3    0    0 -0.38224030580E-01 -0.48362718455E-01  0.11733333524E+00  0.13395392967E+00  0.19403985830E-01 0.  0.
         14    1    1    2    0    0  0.19986772011E-02 -0.26587357680E-02 -0.22417594482E-01  0.22663012351E-01  0.00000000000E+00 0. -1.
     999901    1    3    3    0    0  0.36225353379E-01  0.51021454223E-01 -0.94915740754E-01  0.88731305798E+00  0.88000000000E+00 0.  1.
        -11    1    4    4    0    0 -0.17367044197E-01 -0.36572165836E-01  0.68902815423E-01  0.79918687629E-01  0.51100000000E-03 0.  1.
         11    1    4    4    0    0 -0.20856986383E-01 -0.11790552619E-01  0.48430519813E-01  0.54035242041E-01  0.51100000000E-03 0. -1.
</event>
<event>
 8    1  0.1132255E+005  0.1043930E+01  0.7957747E-01            NaN
         13   -1    0    0    0    0  0.00000000000E+00  0.00000000000E+00  0.74505805969E-08  0.10566000000E+00  0.10566000000E+00 0. -1.
     999900   -1    0    0    0    0 -0.00000000000E+00 -0.00000000000E+00 -0.74505805969E-08  0.93827000000E+00  0.93827000000E+00 0. -1.
     999902    2    1    2    0    0  0.13466532568E-01 -0.10155906445E-01  0.16721041040E-01  0.10201795653E+01  0.10199030651E+01 0.  0.
     999903    2    3    3    0    0  0.49708275615E-04 -0.29411308276E-01  0.12867098765E+00  0.13277685389E+00  0.14437532332E-01 0.  0.
         14    1    1    2    0    0 -0.13466532568E-01  0.10155906445E-01 -0.16721041040E-01  0.23750434703E-01  0.00000000000E+00 0. -1.
     999901    1    3    3    0    0  0.13416824292E-01  0.19255401831E-01 -0.11194994661E+00  0.88740271141E+00  0.88000000000E+00 0. -1.
        -11    1    4    4    0    0 -0.44946047565E-02 -0.40797349991E-02  0.14272236345E-01  0.15517846528E-01  0.51100000000E-03 0. -1.
         11    1    4    4    0    0  0.45443130321E-02 -0.25331573277E-01  0.11439875130E+00  0.11725900736E+00  0.51100000000E-03 0.  1.
</event>
<event>
 8    1  0.1132255E+005  0.1043930E+01  0.7957747E-01            NaN
         13   -1    0    0    0    0  0.00000000000E+00  0.00000000000E+00  0.74505805969E-08  0.10566000000E+00  0.10566000000E+00 0. -1.
     999900   -1    0    0    0    0 -0.00000000000E+00 -0.00000000000E+00 -0.74505805969E-08  0.93827000000E+00  0.93827000000E+00 0. -1.
     999902    2    1    2    0    0  0.20447096263E-01 -0.12596724113E-01  0.26604931071E-02  0.10197672305E+01  0.10194809292E+01 0.  0.
     999903    2    3    3    0    0 -0.35601914793E-01 -0.36891860787E-01  0.11801770827E+00  0.13013863816E+00  0.19477678173E-01 0.  0.
         14    1    1    2    0    0 -0.20447096263E-01  0.12596724113E-01 -0.26604931071E-02  0.24162769451E-01  0.00000000000E+00 0.  1.
     999901    1    3    3    0    0  0.56049011057E-01  0.24295136674E-01 -0.11535721516E+00  0.88962859239E+00  0.88000000000E+00 0. -1.
        -11    1    4    4    0    0 -0.11947198014E-01 -0.84585089421E-02  0.56397551011E-01  0.58268574678E-01  0.51100000000E-03 0. -1.
         11    1    4    4    0    0 -0.23654716780E-01 -0.28433351845E-01  0.61620157260E-01  0.71870063481E-01  0.51100000000E-03 0.  1.
</event>
<event>
 8    1  0.1132255E+005  0.1043930E+01  0.7957747E-01            NaN
         13   -1    0    0    0    0  0.00000000000E+00  0.00000000000E+00  0.74505805969E-08  0.10566000000E+00  0.10566000000E+00 0.  1.
     999900   -1    0    0    0    0 -0.00000000000E+00 -0.00000000000E+00 -0.74505805969E-08  0.93827000000E+00  0.93827000000E+00 0.  1.
     999902    2    1    2    0    0  0.26111057990E-01  0.33119100700E-02 -0.19663532554E-02  0.10175363901E+01  0.10171940241E+01 0.  0.
     999903    2    3    3    0    0  0.24835535255E-01 -0.11963717293E+00  0.33533474776E-01  0.12827920473E+00  0.20030064302E-01 0.  0.
         14    1    1    2    0    0 -0.26111057990E-01 -0.33119100700E-02  0.19663532554E-02  0.26393609886E-01  0.00000000000E+00 0.  1.
     999901    1    3    3    0    0  0.12755227346E-02  0.12294908301E+00 -0.35499828032E-01  0.88925718539E+00  0.88000000000E+00 0.  1.
        -11    1    4    4    0    0 -0.22592745643E-02 -0.26823899422E-01  0.42778407478E-02  0.27261455285E-01  0.51100000000E-03 0. -1.
         11    1    4    4    0    0  0.27094809820E-01 -0.92813273513E-01  0.29255634029E-01  0.10101774944E+00  0.51100000000E-03 0.  1.
</event>
<event>
 8    1  0.1132255E+005  0.1043930E+01  0.7957747E-01            NaN
         13   -1    0    0    0    0  0.00000000000E+00  0.00000000000E+00  0.74505805969E-08  0.10566000000E+00  0.10566000000E+00 0.  1.
     999900   -1    0    0    0    0 -0.00000000000E+00 -0.00000000000E+00 -0.74505805969E-08  0.93827000000E+00  0.93827000000E+00 0. -1.
     999902    2    1    2    0    0  0.18674358816E-01  0.32475096371E-02 -0.12607797030E-02  0.10249334855E+01  0.10247574260E+01 0.  0.
     999903    2    3    3    0    0 -0.39671687200E-03 -0.57973343667E-01  0.11948230845E+00  0.13437714699E+00  0.20497064171E-01 0.  0.
         14    1    1    2    0    0 -0.18674358816E-01 -0.32475096371E-02  0.12607797030E-02  0.18996514456E-01  0.00000000000E+00 0.  1.
     999901    1    3    3    0    0  0.19071075688E-01  0.61220853304E-01 -0.12074308815E+00  0.89055633856E+00  0.88000000000E+00 0. -1.
        -11    1    4    4    0    0 -0.53178636142E-02 -0.23128688228E-01  0.30226710321E-01  0.38433462379E-01  0.51100000000E-03 0. -1.
         11    1    4    4    0    0  0.49211467422E-02 -0.34844655439E-01  0.89255598128E-01  0.95943684608E-01  0.51100000000E-03 0.  1.
</event>
<event>
 8    1  0.1132255E+005  0.1043930E+01  0.7957747E-01            NaN
         13   -1    0    0    0    0  0.00000000000E+00  0.00000000000E+00  0.74505805969E-08  0.10566000000E+00  0.10566000000E+00 0.  1.
     999900   -1    0    0    0    0 -0.00000000000E+00 -0.00000000000E+00 -0.74505805969E-08  0.93827000000E+00  0.93827000000E+00 0. -1.
     999902    2    1    2    0    0  0.12396358932E-01  0.89741307496E-02  0.18192782825E-01  0.10201564415E+01  0.10198793963E+01 0.  0.
     999903    2    3    3    0    0 -0.34213384974E-01  0.74134377421E-01 -0.97762633007E-01  0.12894154909E+00  0.20048168036E-01 0.  0.
         14    1    1    2    0    0 -0.12396358932E-01 -0.89741307496E-02 -0.18192782825E-01  0.23773558514E-01  0.00000000000E+00 0. -1.
     999901    1    3    3    0    0  0.46609743906E-01 -0.65160246671E-01  0.11595541583E+00  0.89121489240E+00  0.88000000000E+00 0.  1.
        -11    1    4    4    0    0 -0.24437313751E-01  0.29863743478E-01 -0.41225783035E-01  0.56469919300E-01  0.51100000000E-03 0.  1.
         11    1    4    4    0    0 -0.97760712224E-02  0.44270633942E-01 -0.56536849972E-01  0.72471629787E-01  0.51100000000E-03 0. -1.
</event>
<event>
 8    1  0.1132255E+005  0.1043930E+01  0.7957747E-01            NaN
         13   -1    0    0    0    0  0.00000000000E+00  0.00000000000E+00  0.74505805969E-08  0.10566000000E+00  0.10566000000E+00 0.  1.
     999900   -1    0    0    0    0 -0.00000000000E+00 -0.00000000000E+00 -0.74505805969E-08  0.93827000000E+00  0.93827000000E+00 0. -1.
     999902    2    1    2    0    0  0.16713884633E-01 -0.13230207814E-02  0.16988471371E-01  0.10200613494E+01  0.10197820571E+01 0.  0.
     999903    2    3    3    0    0  0.11638871006E+00  0.58008502010E-01 -0.87665651509E-02  0.13207563871E+00  0.21349556034E-01 0.  0.
         14    1    1    2    0    0 -0.16713884633E-01  0.13230207814E-02 -0.16988471371E-01  0.23868650633E-01  0.00000000000E+00 0. -1.
     999901    1    3    3    0    0 -0.99674825423E-01 -0.59331522792E-01  0.25755036522E-01  0.88798571065E+00  0.88000000000E+00 0.  1.
        -11    1    4    4    0    0  0.44434935386E-01  0.33200583313E-01 -0.73041876220E-02  0.55949570981E-01  0.51100000000E-03 0. -1.
         11    1    4    4    0    0  0.71953774670E-01  0.24807918697E-01 -0.14623775289E-02  0.76126067732E-01  0.51100000000E-03 0.  1.
</event>
<event>
 8    1  0.1132255E+005  0.1043930E+01  0.7957747E-01            NaN
         13   -1    0    0    0    0  0.00000000000E+00  0.00000000000E+00  0.74505805969E-08  0.10566000000E+00  0.10566000000E+00 0. -1.
     999900   -1    0    0    0    0 -0.00000000000E+00 -0.00000000000E+00 -0.74505805969E-08  0.93827000000E+00  0.93827000000E+00 0.  1.
     999902    2    1    2    0    0  0.44402355516E-02  0.11130559870E-01  0.21179397604E-01  0.10195954168E+01  0.10193049799E+01 0.  0.
     999903    2    3    3    0    0  0.86582998960E-01 -0.22764610601E-02 -0.92467093693E-01  0.12839246197E+00  0.20800550224E-01 0.  0.
         14    1    1    2    0    0 -0.44402355516E-02 -0.11130559870E-01 -0.21179397604E-01  0.24334583161E-01  0.00000000000E+00 0.  1.
     999901    1    3    3    0    0 -0.82142763408E-01  0.13407020930E-01  0.11364649130E+00  0.89120295487E+00  0.88000000000E+00 0. -1.
        -11    1    4    4    0    0  0.83893166617E-02 -0.18760096616E-02 -0.20021173290E-01  0.21794690803E-01  0.51100000000E-03 0. -1.
         11    1    4    4    0    0  0.78193682298E-01 -0.40045139846E-03 -0.72445920404E-01  0.10659777116E+00  0.51100000000E-03 0.  1.
</event>
<event>
 8    1  0.1132255E+005  0.1043930E+01  0.7957747E-01            NaN
         13   -1    0    0    0    0  0.00000000000E+00  0.00000000000E+00  0.74505805969E-08  0.10566000000E+00  0.10566000000E+00 0. -1.
     999900   -1    0    0    0    0 -0.00000000000E+00 -0.00000000000E+00 -0.74505805969E-08  0.93827000000E+00  0.93827000000E+00 0.  1.
     999902    2    1    2    0    0  0.11823851469E-03  0.23937101942E-01  0.88998944815E-03  0.10199760669E+01  0.10196947515E+01 0.  0.
     999903    2    3    3    0    0  0.14496158973E-03  0.10017454115E+00  0.84700145453E-01  0.13271269557E+00  0.20089430478E-01 0.  0.
         14    1    1    2    0    0 -0.11823851469E-03 -0.23937101942E-01 -0.88998944815E-03  0.23953933099E-01  0.00000000000E+00 0.  1.
     999901    1    3    3    0    0 -0.26723075038E-04 -0.76237439213E-01 -0.83810156005E-01  0.88726337133E+00  0.88000000000E+00 0.  1.
        -11    1    4    4    0    0  0.57559164257E-02  0.28407446891E-01  0.33902893488E-01  0.44606960450E-01  0.51100000000E-03 0.  1.
         11    1    4    4    0    0 -0.56109548359E-02  0.71767094263E-01  0.50797251965E-01  0.88105735122E-01  0.51100000000E-03 0. -1.
</event>
<event>
 8    1  0.1132255E+005  0.1043930E+01  0.7957747E-01            NaN
         13   -1    0    0    0    0  0.00000000000E+00  0.00000000000E+00  0.74505805969E-08  0.10566000000E+00  0.10566000000E+00 0. -1.
     999900   -1    0    0    0    0 -0.00000000000E+00 -0.00000000000E+00 -0.74505805969E-08  0.93827000000E+00  0.93827000000E+00 0.  1.
     999902    2    1    2    0    0  0.13068525633E-01  0.19401320879E-01  0.49997120842E-02  0.10200094077E+01  0.10197288841E+01 0.  0.
     999903    2    3    3    0    0  0.64004215066E-01  0.97951164516E-01  0.60666008413E-01  0.13329453870E+00  0.19902243456E-01 0.  0.
         14    1    1    2    0    0 -0.13068525633E-01 -0.19401320879E-01 -0.49997120842E-02  0.23920592279E-01  0.00000000000E+00 0.  1.
     999901    1    3    3    0    0 -0.50935689433E-01 -0.78549843637E-01 -0.55666296329E-01  0.88671486902E+00  0.88000000000E+00 0.  1.
        -11    1    4    4    0    0  0.27738064678E-01  0.57349661626E-01  0.26364746622E-01  0.68947406812E-01  0.51100000000E-03 0.  1.
         11    1    4    4    0    0  0.36266150387E-01  0.40601502890E-01  0.34301261791E-01  0.64347131889E-01  0.51100000000E-03 0. -1.
</event>
<event>
 8    1  0.1132255E+005  0.1043930E+01  0.7957747E-01            NaN
         13   -1    0    0    0    0  0.00000000000E+00  0.00000000000E+00  0.74505805969E-08  0.10566000000E+00  0.10566000000E+00 0.  1.
     999900   -1    0    0    0    0 -0.00000000000E+00 -0.00000000000E+00 -0.74505805969E-08  0.93827000000E+00  0.93827000000E+00 0.  1.
     999902    2    1    2    0    0 -0.11729798919E-01 -0.22016744445E-01  0.34497651286E-02  0.10187461540E+01  0.10184348287E+01 0.  0.
     999903    2    3    3    0    0 -0.41634508348E-01 -0.63788670444E-01  0.10490122721E+00  0.13142908296E+00  0.21608091443E-01 0.  0.
         14    1    1    2    0    0  0.11729798919E-01  0.22016744445E-01 -0.34497651286E-02  0.25183845975E-01  0.00000000000E+00 0. -1.
     999901    1    3    3    0    0  0.29904709429E-01  0.41771925999E-01 -0.10145146208E+00  0.88731707107E+00  0.88000000000E+00 0.  1.
        -11    1    4    4    0    0 -0.36849705299E-01 -0.47725957627E-01  0.67922252528E-01  0.90825994745E-01  0.51100000000E-03 0.  1.
         11    1    4    4    0    0 -0.47848030492E-02 -0.16062712817E-01  0.36978974678E-01  0.40603088214E-01  0.51100000000E-03 0. -1.
</event>
<event>
 8    1  0.1132255E+005  0.1043930E+01  0.7957747E-01            NaN
         13   -1    0    0    0    0  0.00000000000E+00  0.00000000000E+00  0.74505805969E-08  0.10566000000E+00  0.10566000000E+00 0.  1.
     999900   -1    0    0    0    0 -0.00000000000E+00 -0.00000000000E+00 -0.74505805969E-08  0.93827000000E+00  0.93827000000E+00 0.  1.
     999902    2    1    2    0    0  0.19921274664E-01  0.65359333588E-02 -0.10230527051E-01  0.10206010632E+01  0.10203344015E+01 0.  0.
     999903    2    3    3    0    0 -0.30763928324E-02 -0.12796205745E+00  0.39841405069E-02  0.12997170200E+00  0.22203999763E-01 0.  0.
         14    1    1    2    0    0 -0.19921274664E-01 -0.65359333588E-02  0.10230527051E-01  0.23328936813E-01  0.00000000000E+00 0.  1.
     999901    1    3    3    0    0  0.22997667496E-01  0.13449799081E+00 -0.14214667558E-01  0.89062936119E+00  0.88000000000E+00 0.  1.
        -11    1    4    4    0    0 -0.12100320304E-01 -0.62326178652E-01 -0.13076114000E-02  0.63505442802E-01  0.51100000000E-03 0. -1.
         11    1    4    4    0    0  0.90239274716E-02 -0.65635878794E-01  0.52917519070E-02  0.66466259194E-01  0.51100000000E-03 0.  1.
</event>
<event>
 8    1  0.1132255E+005  0.1043930E+01  0.7957747E-01            NaN
         13   -1    0    0    0    0  0.00000000000E+00  0.00000000000E+00  0.74505805969E-08  0.10566000000E+00  0.10566000000E+00 0.  1.
     999900   -1    0    0    0    0 -0.00000000000E+00 -0.00000000000E+00 -0.74505805969E-08  0.93827000000E+00  0.93827000000E+00 0. -1.
     999902    2    1    2    0    0 -0.60863956680E-02  0.10220847727E-01  0.28076835305E-01  0.10134370726E+01  0.10129782236E+01 0.  0.
     999903    2    3    3    0    0 -0.20533278777E-01 -0.77784750571E-02  0.12432927944E+00  0.12788796552E+00  0.20382389134E-01 0.  0.
         14    1    1    2    0    0  0.60863956680E-02 -0.10220847727E-01 -0.28076835305E-01  0.30492927397E-01  0.00000000000E+00 0. -1.
     999901    1    3    3    0    0  0.14446883109E-01  0.17999322785E-01 -0.96252444136E-01  0.88554910708E+00  0.88000000000E+00 0. -1.
        -11    1    4    4    0    0 -0.92252724584E-02 -0.13530436064E-01  0.54339847902E-01  0.56756132207E-01  0.51100000000E-03 0. -1.
         11    1    4    4    0    0 -0.11308006318E-01  0.57519610067E-02  0.69989431539E-01  0.71131833313E-01  0.51100000000E-03 0.  1.
</event>
<event>
 8    1  0.1132255E+005  0.1043930E+01  0.7957747E-01            NaN
         13   -1    0    0    0    0  0.00000000000E+00  0.00000000000E+00  0.74505805969E-08  0.10566000000E+00  0.10566000000E+00 0. -1.
     999900   -1    0    0    0    0 -0.00000000000E+00 -0.00000000000E+00 -0.74505805969E-08  0.93827000000E+00  0.93827000000E+00 0. -1.
     999902    2    1    2    0    0  0.10885058177E-01 -0.18489520169E-01  0.19605888324E-01  0.10148656283E+01  0.10144493608E+01 0.  0.
     999903    2    3    3    0    0  0.10879988253E+00 -0.41127351599E-01  0.50941800087E-01  0.12859156026E+00  0.20294060380E-01 0.  0.
         14    1    1    2    0    0 -0.10885058177E-01  0.18489520169E-01 -0.19605888324E-01  0.29064371739E-01  0.00000000000E+00 0. -1.
     999901    1    3    3    0    0 -0.97914824353E-01  0.22637831430E-01 -0.31335911762E-01  0.88627406800E+00  0.88000000000E+00 0.  1.
        -11    1    4    4    0    0  0.57561112346E-01 -0.13728170525E-01  0.18292341448E-01  0.61940416508E-01  0.51100000000E-03 0. -1.
         11    1    4    4    0    0  0.51238770183E-01 -0.27399181075E-01  0.32649458638E-01  0.66651143755E-01  0.51100000000E-03 0.  1.
</event>
<event>
 8    1  0.1132255E+005  0.1043930E+01  0.7957747E-01            NaN
         13   -1    0    0    0    0  0.00000000000E+00  0.00000000000E+00  0.74505805969E-08  0.10566000000E+00  0.10566000000E+00 0. -1.
     999900   -1    0    0    0    0 -0.00000000000E+00 -0.00000000000E+00 -0.74505805969E-08  0.93827000000E+00  0.93827000000E+00 0.  1.
     999902    2    1    2    0    0  0.24589904033E-02  0.81283766968E-02 -0.20258303844E-01  0.10219637528E+01  0.10217276526E+01 0.  0.
     999903    2    3    3    0    0 -0.21033197371E-01  0.68325702413E-01  0.10441367912E+00  0.13083037095E+00  0.33220062812E-01 0.  0.
         14    1    1    2    0    0 -0.24589904033E-02 -0.81283766968E-02  0.20258303844E-01  0.21966247202E-01  0.00000000000E+00 0. -1.
     999901    1    3    3    0    0  0.23492187775E-01 -0.60197325716E-01 -0.12467198296E+00  0.89113338185E+00  0.88000000000E+00 0.  1.
        -11    1    4    4    0    0 -0.46830016178E-03  0.21225975509E-01  0.57294728395E-01  0.61104078131E-01  0.51100000000E-03 0. -1.
         11    1    4    4    0    0 -0.20564897210E-01  0.47099726904E-01  0.47118950726E-01  0.69726292818E-01  0.51100000000E-03 0.  1.
</event>
<event>
 8    1  0.1132255E+005  0.1043930E+01  0.7957747E-01            NaN
         13   -1    0    0    0    0  0.00000000000E+00  0.00000000000E+00  0.74505805969E-08  0.10566000000E+00  0.10566000000E+00 0. -1.
     999900   -1    0    0    0    0 -0.00000000000E+00 -0.00000000000E+00 -0.74505805969E-08  0.93827000000E+00  0.93827000000E+00 0.  1.
     999902    2    1    2    0    0 -0.14069765909E-01  0.25506305491E-02 -0.18545867234E-01  0.10205117759E+01  0.10202430453E+01 0.  0.
     999903    2    3    3    0    0  0.55410945659E-01  0.10987521373E+00  0.34421656011E-01  0.12969659082E+00  0.22213054224E-01 0.  0.
         14    1    1    2    0    0  0.14069765909E-01 -0.25506305491E-02  0.18545867234E-01  0.23418224109E-01  0.00000000000E+00 0. -1.
     999901    1    3    3    0    0 -0.69480711568E-01 -0.10732458318E+00 -0.52967523245E-01  0.89081518507E+00  0.88000000000E+00 0. -1.
        -11    1    4    4    0    0  0.30275230360E-01  0.80009042222E-01  0.28742804201E-01  0.90246586223E-01  0.51100000000E-03 0. -1.
         11    1    4    4    0    0  0.25135715299E-01  0.29866171504E-01  0.56788518101E-02  0.39450004598E-01  0.51100000000E-03 0.  1.
</event>
<event>
 8    1  0.1132255E+005  0.1043930E+01  0.7957747E-01            NaN
         13   -1    0    0    0    0  0.00000000000E+00  0.00000000000E+00  0.74505805969E-08  0.10566000000E+00  0.10566000000E+00 0. -1.
     999900   -1    0    0    0    0 -0.00000000000E+00 -0.00000000000E+00 -0.74505805969E-08  0.93827000000E+00  0.93827000000E+00 0. -1.
     999902    2    1    2    0    0  0.30974995236E-03  0.72121722311E-02 -0.21387439996E-01  0.10213571410E+01  0.10211076709E+01 0.  0.
     999903    2    3    3    0    0 -0.10345285769E+00  0.34181704318E-01  0.68765052233E-01  0.13027829699E+00  0.19311125899E-01 0.  0.
         14    1    1    2    0    0 -0.30974995236E-03 -0.72121722311E-02  0.21387439996E-01  0.22572858988E-01  0.00000000000E+00 0. -1.
     999901    1    3    3    0    0  0.10376260764E+00 -0.26969532087E-01 -0.90152492229E-01  0.89107884402E+00  0.88000000000E+00 0. -1.
        -11    1    4    4    0    0 -0.30668616404E-01  0.14595997161E-02  0.22092510447E-01  0.37829017993E-01  0.51100000000E-03 0. -1.
         11    1    4    4    0    0 -0.72784241288E-01  0.32722104602E-01  0.46672541786E-01  0.92449278998E-01  0.51100000000E-03 0.  1.
</event>
<event>
 8    1  0.1132255E+005  0.1043930E+01  0.7957747E-01            NaN
         13   -1    0    0    0    0  0.00000000000E+00  0.00000000000E+00  0.74505805969E-08  0.10566000000E+00  0.10566000000E+00 0.  1.
     999900   -1    0    0    0    0 -0.00000000000E+00 -0.00000000000E+00 -0.74505805969E-08  0.93827000000E+00  0.93827000000E+00 0.  1.
     999902    2    1    2    0    0  0.28749636773E-02 -0.22286194931E-01  0.63288774916E-02  0.10205848808E+01  0.10203178447E+01 0.  0.
     999903    2    3    3    0    0  0.63146616208E-03  0.12480630139E+00  0.20996102967E-01  0.12825290038E+00  0.20759539965E-01 0.  0.
         14    1    1    2    0    0 -0.28749636773E-02  0.22286194931E-01 -0.63288774916E-02  0.23345119210E-01  0.00000000000E+00 0. -1.
     999901    1    3    3    0    0  0.22434975153E-02 -0.14709249632E+00 -0.14667225475E-01  0.89233198041E+00  0.88000000000E+00 0. -1.
        -11    1    4    4    0    0  0.53857340294E-02  0.69125498371E-01  0.20719678698E-01  0.72366476096E-01  0.51100000000E-03 0.  1.
         11    1    4    4    0    0 -0.47542678673E-02  0.55680803022E-01  0.27642426824E-03  0.55886424286E-01  0.51100000000E-03 0. -1.
</event>
<event>
 8    1  0.1132255E+005  0.1043930E+01  0.7957747E-01            NaN
         13   -1    0    0    0    0  0.00000000000E+00  0.00000000000E+00  0.74505805969E-08  0.10566000000E+00  0.10566000000E+00 0. -1.
     999900   -1    0    0    0    0 -0.00000000000E+00 -0.00000000000E+00 -0.74505805969E-08  0.93827000000E+00  0.93827000000E+00 0. -1.
     999902    2    1    2    0    0  0.19397002833E-01  0.66501618269E-02 -0.19755927838E-01  0.10154560636E+01  0.10150567728E+01 0.  0.
     999903    2    3    3    0    0  0.71869735103E-01  0.92416669178E-01 -0.50823971895E-01  0.12918606815E+00  0.19996612686E-01 0.  0.
         14    1    1    2    0    0 -0.19397002833E-01 -0.66501618269E-02  0.19755927838E-01  0.28473936433E-01  0.00000000000E+00 0. -1.
     999901    1    3    3    0    0 -0.52472732270E-01 -0.85766507351E-01  0.31068044057E-01  0.88626999542E+00  0.88000000000E+00 0. -1.
        -11    1    4    4    0    0  0.28504856601E-01  0.49937221740E-01 -0.30991120027E-01  0.65321999407E-01  0.51100000000E-03 0. -1.
         11    1    4    4    0    0  0.43364878502E-01  0.42479447438E-01 -0.19832851868E-01  0.63864068743E-01  0.51100000000E-03 0.  1.
</event>
<event>
 8    1  0.1132255E+005  0.1043930E+01  0.7957747E-01            NaN
         13   -1    0    0    0    0  0.00000000000E+00  0.00000000000E+00  0.74505805969E-08  0.10566000000E+00  0.10566000000E+00 0. -1.
     999900   -1    0    0    0    0 -0.00000000000E+00 -0.00000000000E+00 -0.74505805969E-08  0.93827000000E+00  0.93827000000E+00 0.  1.
     999902    2    1    2    0    0  0.11043567527E-01 -0.10041898415E-01 -0.17003500003E-01  0.10213043703E+01  0.10210537193E+01 0.  0.
     999903    2    3    3    0    0 -0.12670049614E+00  0.91902247070E-02 -0.21079537384E-01  0.13037232141E+00  0.20374477716E-01 0.  0.
         14    1    1    2    0    0 -0.11043567527E-01  0.10041898415E-01  0.17003500003E-01  0.22625629711E-01  0.00000000000E+00 0. -1.
     999901    1    3    3    0    0  0.13774406366E+00 -0.19232123122E-01  0.40760373813E-02  0.89093204888E+00  0.88000000000E+00 0.  1.
        -11    1    4    4    0    0 -0.18153631102E-01  0.78956648944E-02 -0.74897805320E-04  0.19803095136E-01  0.51100000000E-03 0.  1.
         11    1    4    4    0    0 -0.10854686504E+00  0.12945598127E-02 -0.21004639579E-01  0.11056922628E+00  0.51100000000E-03 0. -1.
</event>
<event>
 8    1  0.1132255E+005  0.1043930E+01  0.7957747E-01            NaN
         13   -1    0    0    0    0  0.00000000000E+00  0.00000000000E+00  0.74505805969E-08  0.10566000000E+00  0.10566000000E+00 0.  1.
     999900   -1    0    0    0    0 -0.00000000000E+00 -0.00000000000E+00 -0.74505805969E-08  0.93827000000E+00  0.93827000000E+00 0. -1.
     999902    2    1    2    0    0  0.36854799481E-02  0.86388267427E-02  0.21345643692E-01  0.10206094384E+01  0.10203429703E+01 0.  0.
     999903    2    3    3    0    0  0.10465020328E-01  0.12286072145E+00 -0.39997625385E-01  0.13108394686E+00  0.19465804895E-01 0.  0.
         14    1    1    2    0    0 -0.36854799481E-02 -0.86388267427E-02 -0.21345643692E-01  0.23320561627E-01  0.00000000000E+00 0. -1.
     999901    1    3    3    0    0 -0.67795403799E-02 -0.11422189471E+00  0.61343269077E-01  0.88952549152E+00  0.88000000000E+00 0.  1.
        -11    1    4    4    0    0  0.17154327864E-02  0.69829287885E-01 -0.13452945675E-01  0.71135891254E-01  0.51100000000E-03 0.  1.
         11    1    4    4    0    0  0.87495875415E-02  0.53031433569E-01 -0.26544679710E-01  0.59948055602E-01  0.51100000000E-03 0. -1.
</event>
<event>
 8    1  0.1333321E+005  0.1043930E+01  0.7957747E-01            NaN
         13   -1    0    0    0    0  0.00000000000E+00  0.00000000000E+00  0.74505805969E-08  0.10566000000E+00  0.10566000000E+00 0.  1.
     999900   -1    0    0    0    0 -0.00000000000E+00 -0.00000000000E+00 -0.74505805969E-08  0.93827000000E+00  0.93827000000E+00 0.  1.
     999902    2    1    2    0    0 -0.20813603905E-02 -0.64770495620E-02  0.22899289338E-01  0.10200414738E+01  0.10197617107E+01 0.  0.
     999903    2    3    3    0    0  0.71906594696E-01  0.10122879033E+00 -0.28815795146E-01  0.12889097281E+00  0.19097289598E-01 0.  0.
         14    1    1    2    0    0  0.20813603905E-02  0.64770495620E-02 -0.22899289338E-01  0.23888526205E-01  0.00000000000E+00 0. -1.
     999901    1    3    3    0    0 -0.73987955086E-01 -0.10770583989E+00  0.51715084483E-01  0.89115050099E+00  0.88000000000E+00 0.  1.
        -11    1    4    4    0    0  0.50554754911E-01  0.57227509534E-01 -0.12812992414E-01  0.77428709063E-01  0.51100000000E-03 0. -1.
         11    1    4    4    0    0  0.21351839785E-01  0.44001280792E-01 -0.16002802731E-01  0.51462263746E-01  0.51100000000E-03 0.  1.
</event>
<event>
 8    1  0.1132255E+005  0.1043930E+01  0.7957747E-01            NaN
         13   -1    0    0    0    0  0.00000000000E+00  0.00000000000E+00  0.74505805969E-08  0.10566000000E+00  0.10566000000E+00 0. -1.
     999900   -1    0    0    0    0 -0.00000000000E+00 -0.00000000000E+00 -0.74505805969E-08  0.93827000000E+00  0.93827000000E+00 0.  1.
     999902    2    1    2    0    0 -0.38954765669E-02 -0.21851314798E-01 -0.95811459412E-03  0.10217135043E+01  0.10214719342E+01 0.  0.
     999903    2    3    3    0    0  0.12338624846E-01  0.88088361710E-01  0.92199444027E-01  0.12984545958E+00  0.21149580701E-01 0.  0.
         14    1    1    2    0    0  0.38954765669E-02  0.21851314798E-01  0.95811459412E-03  0.22216495665E-01  0.00000000000E+00 0.  1.
     999901    1    3    3    0    0 -0.16234101413E-01 -0.10993967651E+00 -0.93157558621E-01  0.89186804475E+00  0.88000000000E+00 0.  1.
        -11    1    4    4    0    0 -0.12594208854E-02  0.54781833408E-01  0.47956827369E-01  0.72820009783E-01  0.51100000000E-03 0.  1.
         11    1    4    4    0    0  0.13598045731E-01  0.33306528302E-01  0.44242616658E-01  0.57025449801E-01  0.51100000000E-03 0. -1.
</event>
<event>
 8    1  0.1132255E+005  0.1043930E+01  0.7957747E-01            NaN
         13   -1    0    0    0    0  0.00000000000E+00  0.00000000000E+00  0.74505805969E-08  0.10566000000E+00  0.10566000000E+00 0. -1.
     999900   -1    0    0    0    0 -0.00000000000E+00 -0.00000000000E+00 -0.74505805969E-08  0.93827000000E+00  0.93827000000E+00 0.  1.
     999902    2    1    2    0    0  0.14375178391E-01  0.10531496336E-01 -0.14432412871E-01  0.10209985214E+01  0.10207409701E+01 0.  0.
     999903    2    3    3    0    0 -0.48046856186E-01  0.11520973467E+00  0.35077697358E-01  0.13122029343E+00  0.20162767730E-01 0.  0.
         14    1    1    2    0    0 -0.14375178391E-01 -0.10531496336E-01  0.14432412871E-01  0.22931478585E-01  0.00000000000E+00 0. -1.
     999901    1    3    3    0    0  0.62422034577E-01 -0.10467823834E+00 -0.49510110228E-01  0.88977822799E+00  0.88000000000E+00 0. -1.
        -11    1    4    4    0    0 -0.42281656139E-01  0.77822575137E-01  0.22987186077E-01  0.91502805921E-01  0.51100000000E-03 0.  1.
         11    1    4    4    0    0 -0.57652000476E-02  0.37387159538E-01  0.12090511281E-01  0.39717487508E-01  0.51100000000E-03 0. -1.
</event>
<event>
 8    1  0.1132255E+005  0.1043930E+01  0.7957747E-01            NaN
         13   -1    0    0    0    0  0.00000000000E+00  0.00000000000E+00  0.74505805969E-08  0.10566000000E+00  0.10566000000E+00 0. -1.
     999900   -1    0    0    0    0 -0.00000000000E+00 -0.00000000000E+00 -0.74505805969E-08  0.93827000000E+00  0.93827000000E+00 0.  1.
     999902    2    1    2    0    0 -0.84903873708E-02 -0.20567163363E-01  0.80629489741E-02  0.10202634406E+01  0.10199889128E+01 0.  0.
     999903    2    3    3    0    0  0.73284057064E-01 -0.51638446008E-01  0.94345895701E-01  0.13172687342E+00  0.20340575678E-01 0.  0.
         14    1    1    2    0    0  0.84903873708E-02  0.20567163363E-01 -0.80629489741E-02  0.23666559375E-01  0.00000000000E+00 0.  1.
     999901    1    3    3    0    0 -0.81774444435E-01  0.31071282645E-01 -0.86282946727E-01  0.88853656721E+00  0.88000000000E+00 0.  1.
        -11    1    4    4    0    0  0.60421298824E-01 -0.40898906036E-01  0.86656192774E-01  0.11328287926E+00  0.51100000000E-03 0. -1.
         11    1    4    4    0    0  0.12862758240E-01 -0.10739539972E-01  0.76897029264E-02  0.18443994157E-01  0.51100000000E-03 0.  1.
</event>
<event>
 8    1  0.1132255E+005  0.1043930E+01  0.7957747E-01            NaN
         13   -1    0    0    0    0  0.00000000000E+00  0.00000000000E+00  0.74505805969E-08  0.10566000000E+00  0.10566000000E+00 0. -1.
     999900   -1    0    0    0    0 -0.00000000000E+00 -0.00000000000E+00 -0.74505805969E-08  0.93827000000E+00  0.93827000000E+00 0.  1.
     999902    2    1    2    0    0  0.92107186535E-02  0.22500985166E-01 -0.87923501656E-02  0.10180758496E+01  0.10177475121E+01 0.  0.
     999903    2    3    3    0    0  0.74377433942E-01  0.10056549740E+00 -0.36658699617E-01  0.13178170978E+00  0.19420010986E-01 0.  0.
         14    1    1    2    0    0 -0.92107186535E-02 -0.22500985166E-01  0.87923501656E-02  0.25854150401E-01  0.00000000000E+00 0.  1.
     999901    1    3    3    0    0 -0.65166715289E-01 -0.78064512235E-01  0.27866349452E-01  0.88629413982E+00  0.88000000000E+00 0. -1.
        -11    1    4    4    0    0  0.19346691917E-01  0.13601279944E-01 -0.75245565278E-02  0.24822759238E-01  0.51100000000E-03 0. -1.
         11    1    4    4    0    0  0.55030742025E-01  0.86964217457E-01 -0.29134143089E-01  0.10695895054E+00  0.51100000000E-03 0.  1.
</event>
<event>
 8    1  0.1132255E+005  0.1043930E+01  0.7957747E-01            NaN
         13   -1    0    0    0    0  0.00000000000E+00  0.00000000000E+00  0.74505805969E-08  0.10566000000E+00  0.10566000000E+00 0.  1.
     999900   -1    0    0    0    0 -0.00000000000E+00 -0.00000000000E+00 -0.74505805969E-08  0.93827000000E+00  0.93827000000E+00 0.  1.
     999902    2    1    2    0    0 -0.26608679196E-02 -0.23820537991E-01 -0.17189499230E-02  0.10198997475E+01  0.10196166151E+01 0.  0.
     999903    2    3    3    0    0 -0.25261415867E-01  0.98119334313E-01  0.75361340357E-01  0.12786752362E+00  0.20130302477E-01 0.  0.
         14    1    1    2    0    0  0.26608679196E-02  0.23820537991E-01  0.17189499230E-02  0.24030252540E-01  0.00000000000E+00 0.  1.
     999901    1    3    3    0    0  0.22600547947E-01 -0.12193987230E+00 -0.77080290280E-01  0.89203222384E+00  0.88000000000E+00 0.  1.
        -11    1    4    4    0    0 -0.24564292580E-01  0.78236772489E-01  0.68393368147E-01  0.10678160407E+00  0.51100000000E-03 0. -1.
         11    1    4    4    0    0 -0.69712328728E-03  0.19882561825E-01  0.69679722095E-02  0.21085919551E-01  0.51100000000E-03 0.  1.
</event>
<event>
 8    1  0.1132255E+005  0.1043930E+01  0.7957747E-01            NaN
         13   -1    0    0    0    0  0.00000000000E+00  0.00000000000E+00  0.74505805969E-08  0.10566000000E+00  0.10566000000E+00 0. -1.
     999900   -1    0    0    0    0 -0.00000000000E+00 -0.00000000000E+00 -0.74505805969E-08  0.93827000000E+00  0.93827000000E+00 0. -1.
     999902    2    1    2    0    0  0.96669708365E-03 -0.22468571193E-01  0.43155552094E-02  0.10210303229E+01  0.10207734935E+01 0.  0.
     999903    2    3    3    0    0 -0.77829064802E-01  0.42034811251E-01 -0.93095716473E-01  0.12981855553E+00  0.19019890897E-01 0.  0.
         14    1    1    2    0    0 -0.96669708365E-03  0.22468571193E-01 -0.43155552094E-02  0.22899677104E-01  0.00000000000E+00 0.  1.
     999901    1    3    3    0    0  0.78795761886E-01 -0.64503382444E-01  0.97411271682E-01  0.89121176736E+00  0.88000000000E+00 0. -1.
        -11    1    4    4    0    0 -0.15271441412E-01  0.13773035491E-01 -0.31296791233E-01  0.37452152033E-01  0.51100000000E-03 0. -1.
         11    1    4    4    0    0 -0.62557623391E-01  0.28261775760E-01 -0.61798925239E-01  0.92366403498E-01  0.51100000000E-03 0.  1.
</event>
<event>
 8    1  0.1132255E+005  0.1043930E+01  0.7957747E-01            NaN
         13   -1    0    0    0    0  0.00000000000E+00  0.00000000000E+00  0.74505805969E-08  0.10566000000E+00  0.10566000000E+00 0. -1.
     999900   -1    0    0    0    0 -0.00000000000E+00 -0.00000000000E+00 -0.74505805969E-08  0.93827000000E+00  0.93827000000E+00 0. -1.
     999902    2    1    2    0    0  0.18950896275E-01  0.13044971863E-01 -0.53795582668E-02  0.10203027402E+01  0.10200291340E+01 0.  0.
     999903    2    3    3    0    0 -0.25963394794E-01 -0.11971219584E+00 -0.34332618127E-01  0.12874228859E+00  0.19767157154E-01 0.  0.
         14    1    1    2    0    0 -0.18950896275E-01 -0.13044971863E-01  0.53795582668E-02  0.23627259843E-01  0.00000000000E+00 0. -1.
     999901    1    3    3    0    0  0.44914291069E-01  0.13275716771E+00  0.28953059860E-01  0.89156045156E+00  0.88000000000E+00 0. -1.
        -11    1    4    4    0    0 -0.99883551171E-02 -0.83430517385E-01 -0.18427890090E-01  0.86024802954E-01  0.51100000000E-03 0. -1.
         11    1    4    4    0    0 -0.15975039677E-01 -0.36281678457E-01 -0.15904728037E-01  0.42717485638E-01  0.51100000000E-03 0.  1.
</event>
<event>
 8    1  0.1132255E+005  0.1043930E+01  0.7957747E-01            NaN
         13   -1    0    0    0    0  0.00000000000E+00  0.00000000000E+00  0.74505805969E-08  0.10566000000E+00  0.10566000000E+00 0. -1.
     999900   -1    0    0    0    0 -0.00000000000E+00 -0.00000000000E+00 -0.74505805969E-08  0.93827000000E+00  0.93827000000E+00 0. -1.
     999902    2    1    2    0    0  0.24120415757E-01  0.64600046930E-02  0.82023873439E-02  0.10176468252E+01  0.10173073556E+01 0.  0.
     999903    2    3    3    0    0 -0.56616719242E-01 -0.64887170484E-01  0.91408555598E-01  0.12717943628E+00  0.20082011498E-01 0.  0.
         14    1    1    2    0    0 -0.24120415757E-01 -0.64600046930E-02 -0.82023873439E-02  0.26283174752E-01  0.00000000000E+00 0.  1.
     999901    1    3    3    0    0  0.80737134998E-01  0.71347175177E-01 -0.83206168254E-01  0.89046738896E+00  0.88000000000E+00 0. -1.
        -11    1    4    4    0    0 -0.21517289989E-01 -0.39890337483E-01  0.47554112333E-01  0.65695414708E-01  0.51100000000E-03 0. -1.
         11    1    4    4    0    0 -0.35099429253E-01 -0.24996833001E-01  0.43854443265E-01  0.61484021575E-01  0.51100000000E-03 0.  1.
</event>
<event>
 8    1  0.1132255E+005  0.1043930E+01  0.7957747E-01            NaN
         13   -1    0    0    0    0  0.00000000000E+00  0.00000000000E+00  0.74505805969E-08  0.10566000000E+00  0.10566000000E+00 0.  1.
     999900   -1    0    0    0    0 -0.00000000000E+00 -0.00000000000E+00 -0.74505805969E-08  0.93827000000E+00  0.93827000000E+00 0. -1.
     999902    2    1    2    0    0  0.99124221076E-02  0.15874766087E-01 -0.16083113912E-01  0.10192534755E+01  0.10189547175E+01 0.  0.
     999903    2    3    3    0    0  0.11719985533E+00 -0.10309537865E-01 -0.54924697365E-01  0.13150076231E+00  0.20823915245E-01 0.  0.
         14    1    1    2    0    0 -0.99124221076E-02 -0.15874766087E-01  0.16083113912E-01  0.24676524542E-01  0.00000000000E+00 0.  1.
     999901    1    3    3    0    0 -0.10728743322E+00  0.26184303951E-01  0.38841583452E-01  0.88775271315E+00  0.88000000000E+00 0. -1.
        -11    1    4    4    0    0  0.43424712048E-01 -0.10884604636E-01 -0.28793506574E-01  0.53230699567E-01  0.51100000000E-03 0.  1.
         11    1    4    4    0    0  0.73775143283E-01  0.57506677155E-03 -0.26131190791E-01  0.78270062740E-01  0.51100000000E-03 0. -1.
</event>
<event>
 7    1  0.1132255E+005  0.1043930E+01  0.7957747E-01            NaN
         13   -1    0    0    0    0  0.00000000000E+00  0.00000000000E+00  0.74505805969E-08  0.10566000000E+00  0.10566000000E+00 0. -1.
     999900   -1    0    0    0    0 -0.00000000000E+00 -0.00000000000E+00 -0.74505805969E-08  0.93827000000E+00  0.93827000000E+00 0.  1.
     999903    2    1    2    0    0 -0.92364689122E-01 -0.29517474333E-01  0.60901643931E-01  0.11634894664E+00  0.20628864776E-01 0.  0.
         14    1    1    2    0    0  0.34340331945E-01 -0.13350979446E-01  0.18196866085E-01  0.41092979761E-01  0.00000000000E+00 0. -1.
     999901    1    1    2    0    0  0.58024357177E-01  0.42868453779E-01 -0.79098510017E-01  0.88648807360E+00  0.88000000000E+00 0.  1.
        -11    1    3    3    0    0 -0.71489944059E-01 -0.23851013236E-01  0.36507185124E-01  0.83741976455E-01  0.51100000000E-03 0.  1.
         11    1    3    3    0    0 -0.20874745063E-01 -0.56664610972E-02  0.24394458808E-01  0.32606970180E-01  0.51100000000E-03 0. -1.
</event>
<event>
 8    1  0.1132255E+005  0.1043930E+01  0.7957747E-01            NaN
         13   -1    0    0    0    0  0.00000000000E+00  0.00000000000E+00  0.74505805969E-08  0.10566000000E+00  0.10566000000E+00 0. -1.
     999900   -1    0    0    0    0 -0.00000000000E+00 -0.00000000000E+00 -0.74505805969E-08  0.93827000000E+00  0.93827000000E+00 0.  1.
     999902    2    1    2    0    0 -0.12185269773E-01 -0.11145201725E-01 -0.17571916581E-01  0.10198163405E+01  0.10195312157E+01 0.  0.
     999903    2    3    3    0    0 -0.84681612133E-02  0.12566794503E+00  0.17568131654E-01  0.12854394837E+00  0.18728727972E-01 0.  0.
         14    1    1    2    0    0  0.12185269773E-01  0.11145201725E-01  0.17571916581E-01  0.24113659474E-01  0.00000000000E+00 0. -1.
     999901    1    3    3    0    0 -0.37171085592E-02 -0.13681314676E+00 -0.35140048235E-01  0.89127239215E+00  0.88000000000E+00 0.  1.
        -11    1    4    4    0    0 -0.12090356565E-01  0.45952460552E-01  0.54757888253E-02  0.47833573324E-01  0.51100000000E-03 0.  1.
         11    1    4    4    0    0  0.36221953515E-02  0.79715484478E-01  0.12092342829E-01  0.80710375050E-01  0.51100000000E-03 0. -1.
</event>
<event>
 8    1  0.1132255E+005  0.1043930E+01  0.7957747E-01            NaN
         13   -1    0    0    0    0  0.00000000000E+00  0.00000000000E+00  0.74505805969E-08  0.10566000000E+00  0.10566000000E+00 0.  1.
     999900   -1    0    0    0    0 -0.00000000000E+00 -0.00000000000E+00 -0.74505805969E-08  0.93827000000E+00  0.93827000000E+00 0. -1.
     999902    2    1    2    0    0  0.32112321615E-02 -0.73771518207E-02 -0.23033766725E-01  0.10195314593E+01  0.10192394751E+01 0.  0.
     999903    2    3    3    0    0  0.73508665528E-01  0.52442072196E-02 -0.10828585681E+00  0.13253148930E+00  0.20192653451E-01 0.  0.
         14    1    1    2    0    0 -0.32112321615E-02  0.73771518207E-02  0.23033766725E-01  0.24398540746E-01  0.00000000000E+00 0.  1.
     999901    1    3    3    0    0 -0.70297433367E-01 -0.12621359040E-01  0.85252090082E-01  0.88699996996E+00  0.88000000000E+00 0.  1.
        -11    1    4    4    0    0  0.31120317929E-01  0.98462572855E-04 -0.63108269402E-01  0.70366175616E-01  0.51100000000E-03 0. -1.
         11    1    4    4    0    0  0.42388347600E-01  0.51457446467E-02 -0.45177587405E-01  0.62165313680E-01  0.51100000000E-03 0.  1.
</event>
<event>
 8    1  0.1132255E+005  0.1043930E+01  0.7957747E-01            NaN
         13   -1    0    0    0    0  0.00000000000E+00  0.00000000000E+00  0.74505805969E-08  0.10566000000E+00  0.10566000000E+00 0.  1.
     999900   -1    0    0    0    0 -0.00000000000E+00 -0.00000000000E+00 -0.74505805969E-08  0.93827000000E+00  0.93827000000E+00 0.  1.
     999902    2    1    2    0    0 -0.12779065089E-01  0.62575187927E-02 -0.19290363670E-01  0.10199596188E+01  0.10196779123E+01 0.  0.
     999903    2    3    3    0    0 -0.32276293318E-01  0.37625257426E-01 -0.12202536659E+00  0.13321356844E+00  0.19956092304E-01 0.  0.
         14    1    1    2    0    0  0.12779065089E-01 -0.62575187927E-02  0.19290363670E-01  0.23970381234E-01  0.00000000000E+00 0.  1.
     999901    1    3    3    0    0  0.19497228229E-01 -0.31367738633E-01  0.10273500292E+00  0.88674605032E+00  0.88000000000E+00 0. -1.
        -11    1    4    4    0    0 -0.26624615079E-01  0.18414396986E-01 -0.62168710490E-01  0.70094007087E-01  0.51100000000E-03 0.  1.
         11    1    4    4    0    0 -0.56516782385E-02  0.19210860440E-01 -0.59856656098E-01  0.63119561358E-01  0.51100000000E-03 0. -1.
</event>
<event>
 8    1  0.1132255E+005  0.1043930E+01  0.7957747E-01            NaN
         13   -1    0    0    0    0  0.00000000000E+00  0.00000000000E+00  0.74505805969E-08  0.10566000000E+00  0.10566000000E+00 0.  1.
     999900   -1    0    0    0    0 -0.00000000000E+00 -0.00000000000E+00 -0.74505805969E-08  0.93827000000E+00  0.93827000000E+00 0.  1.
     999902    2    1    2    0    0  0.18257086671E-02  0.23543961743E-01 -0.21259994038E-02  0.10202198498E+01  0.10199442979E+01 0.  0.
     999903    2    3    3    0    0 -0.94968960293E-01  0.19253660789E-01  0.85207162227E-01  0.13060493555E+00  0.20188655789E-01 0.  0.
         14    1    1    2    0    0 -0.18257086671E-02 -0.23543961743E-01  0.21259994038E-02  0.23710150151E-01  0.00000000000E+00 0. -1.
     999901    1    3    3    0    0  0.96794668960E-01  0.42903009547E-02 -0.87333161631E-01  0.88961491430E+00  0.88000000000E+00 0.  1.
        -11    1    4    4    0    0 -0.86199081142E-01  0.11197377317E-01  0.77086807176E-01  0.11618218370E+00  0.51100000000E-03 0.  1.
         11    1    4    4    0    0 -0.87698791507E-02  0.80562834716E-02  0.81203550509E-02  0.14422751847E-01  0.51100000000E-03 0. -1.
</event>
<event>
 8    1  0.1132255E+005  0.1043930E+01  0.7957747E-01            NaN
         13   -1    0    0    0    0  0.00000000000E+00  0.00000000000E+00  0.74505805969E-08  0.10566000000E+00  0.10566000000E+00 0.  1.
     999900   -1    0    0    0    0 -0.00000000000E+00 -0.00000000000E+00 -0.74505805969E-08  0.93827000000E+00  0.93827000000E+00 0.  1.
     999902    2    1    2    0    0 -0.31935476944E-02  0.21478884371E-01  0.10108359137E-01  0.10199775441E+01  0.10196962637E+01 0.  0.
     999903    2    3    3    0    0  0.10951997401E+00 -0.32663391667E-01  0.56985950502E-01  0.12990269744E+00  0.23786348704E-01 0.  0.
         14    1    1    2    0    0  0.31935476944E-02 -0.21478884371E-01 -0.10108359137E-01  0.23952455931E-01  0.00000000000E+00 0. -1.
     999901    1    3    3    0    0 -0.11271352171E+00  0.54142276038E-01 -0.46877591365E-01  0.89007484663E+00  0.88000000000E+00 0.  1.
        -11    1    4    4    0    0  0.64255319654E-01 -0.18665511433E-01  0.20135666955E-01  0.69877418567E-01  0.51100000000E-03 0. -1.
         11    1    4    4    0    0  0.45264654358E-01 -0.13997880234E-01  0.36850283547E-01  0.60025278872E-01  0.51100000000E-03 0.  1.
</event>
<event>
 8    1  0.1132255E+005  0.1043930E+01  0.7957747E-01            NaN
         13   -1    0    0    0    0  0.00000000000E+00  0.00000000000E+00  0.74505805969E-08  0.10566000000E+00  0.10566000000E+00 0. -1.
     999900   -1    0    0    0    0 -0.00000000000E+00 -0.00000000000E+00 -0.74505805969E-08  0.93827000000E+00  0.93827000000E+00 0.  1.
     999902    2    1    2    0    0 -0.23745290585E-01  0.38583418837E-03  0.89808426014E-03  0.10201645998E+01  0.10198877469E+01 0.  0.
     999903    2    3    3    0    0  0.82182555382E-01 -0.40820387250E-01 -0.87613566865E-01  0.12845109554E+00  0.20081594099E-01 0.  0.
         14    1    1    2    0    0  0.23745290585E-01 -0.38583418837E-03 -0.89808426014E-03  0.23765400235E-01  0.00000000000E+00 0.  1.
     999901    1    3    3    0    0 -0.10592784597E+00  0.41206221439E-01  0.88511651125E-01  0.89171350423E+00  0.88000000000E+00 0. -1.
        -11    1    4    4    0    0  0.69057916512E-01 -0.37293010249E-01 -0.82637859003E-01  0.11396947533E+00  0.51100000000E-03 0. -1.
         11    1    4    4    0    0  0.13124638870E-01 -0.35273770016E-02 -0.49757078623E-02  0.14481620203E-01  0.51100000000E-03 0.  1.
</event>
<event>
 8    1  0.1132255E+005  0.1043930E+01  0.7957747E-01            NaN
         13   -1    0    0    0    0  0.00000000000E+00  0.00000000000E+00  0.74505805969E-08  0.10566000000E+00  0.10566000000E+00 0. -1.
     999900   -1    0    0    0    0 -0.00000000000E+00 -0.00000000000E+00 -0.74505805969E-08  0.93827000000E+00  0.93827000000E+00 0.  1.
     999902    2    1    2    0    0 -0.10825848874E-01 -0.12828592142E-01 -0.17226625395E-01  0.10198773826E+01  0.10195937167E+01 0.  0.
     999903    2    3    3    0    0  0.12332843191E+00 -0.17759527369E-01  0.24419984093E-01  0.12872300472E+00  0.21165381915E-01 0.  0.
         14    1    1    2    0    0  0.10825848874E-01  0.12828592142E-01  0.17226625395E-01  0.24052617377E-01  0.00000000000E+00 0. -1.
     999901    1    3    3    0    0 -0.13415428078E+00  0.49309352269E-02 -0.41646609488E-01  0.89115437790E+00  0.88000000000E+00 0.  1.
        -11    1    4    4    0    0  0.79279145703E-01 -0.21461411919E-01  0.17486277666E-01  0.83975033031E-01  0.51100000000E-03 0. -1.
         11    1    4    4    0    0  0.44049286205E-01  0.37018845503E-02  0.69337064271E-02  0.44747971689E-01  0.51100000000E-03 0.  1.
</event>
<event>
 8    1  0.1132255E+005  0.1043930E+01  0.7957747E-01            NaN
         13   -1    0    0    0    0  0.00000000000E+00  0.00000000000E+00  0.74505805969E-08  0.10566000000E+00  0.10566000000E+00 0. -1.
     999900   -1    0    0    0    0 -0.00000000000E+00 -0.00000000000E+00 -0.74505805969E-08  0.93827000000E+00  0.93827000000E+00 0. -1.
     999902    2    1    2    0    0  0.11389055589E-01  0.41327001833E-02  0.20425491064E-01  0.10201815162E+01  0.10199050620E+01 0.  0.
     999903    2    3    3    0    0 -0.63966076873E-01 -0.34939951187E-01 -0.10371271712E+00  0.12742434719E+00  0.12968322372E-01 0.  0.
         14    1    1    2    0    0 -0.11389055589E-01 -0.41327001833E-02 -0.20425491064E-01  0.23748483809E-01  0.00000000000E+00 0.  1.
     999901    1    3    3    0    0  0.75355132461E-01  0.39072651371E-01  0.12413820818E+00  0.89275716900E+00  0.88000000000E+00 0.  1.
        -11    1    4    4    0    0 -0.46600960091E-02 -0.67564076978E-03 -0.12427012706E-01  0.13299050757E-01  0.51100000000E-03 0.  1.
         11    1    4    4    0    0 -0.59305980864E-01 -0.34264310417E-01 -0.91285704413E-01  0.11412529643E+00  0.51100000000E-03 0. -1.
</event>
<event>
 8    1  0.1132255E+005  0.1043930E+01  0.7957747E-01            NaN
         13   -1    0    0    0    0  0.00000000000E+00  0.00000000000E+00  0.74505805969E-08  0.10566000000E+00  0.10566000000E+00 0.  1.
     999900   -1    0    0    0    0 -0.00000000000E+00 -0.00000000000E+00 -0.74505805969E-08  0.93827000000E+00  0.93827000000E+00 0.  1.
     999902    2    1    2    0    0 -0.94868258349E-02 -0.21442364461E-01  0.86858309970E-02  0.10189256300E+01  0.10186187810E+01 0.  0.
     999903    2    3    3    0    0  0.24132754745E-01 -0.10952599954E+00 -0.64299030098E-01  0.13088520700E+00  0.20450860908E-01 0.  0.
         14    1    1    2    0    0  0.94868258349E-02  0.21442364461E-01 -0.86858309970E-02  0.25004369982E-01  0.00000000000E+00 0. -1.
     999901    1    3    3    0    0 -0.33619580580E-01  0.88083635082E-01  0.72984861095E-01  0.88804042302E+00  0.88000000000E+00 0. -1.
        -11    1    4    4    0    0  0.20746847269E-01 -0.53731834056E-01 -0.38767199923E-01  0.69431250698E-01  0.51100000000E-03 0.  1.
         11    1    4    4    0    0  0.33859074763E-02 -0.55794165487E-01 -0.25531830175E-01  0.61453956300E-01  0.51100000000E-03 0. -1.
</event>
<event>
 8    1  0.1132255E+005  0.1043930E+01  0.7957747E-01            NaN
         13   -1    0    0    0    0  0.00000000000E+00  0.00000000000E+00  0.74505805969E-08  0.10566000000E+00  0.10566000000E+00 0.  1.
     999900   -1    0    0    0    0 -0.00000000000E+00 -0.00000000000E+00 -0.74505805969E-08  0.93827000000E+00  0.93827000000E+00 0.  1.
     999902    2    1    2    0    0 -0.89173092236E-02 -0.20573849935E-01  0.47949451413E-02  0.10209998189E+01  0.10207422971E+01 0.  0.
     999903    2    3    3    0    0 -0.28685480640E-01  0.11651137533E+00  0.44917453224E-01  0.12926389656E+00  0.17141177616E-01 0.  0.
         14    1    1    2    0    0  0.89173092236E-02  0.20573849935E-01 -0.47949451413E-02  0.22930181069E-01  0.00000000000E+00 0. -1.
     999901    1    3    3    0    0  0.19768171416E-01 -0.13708522526E+00 -0.40122508083E-01  0.89173592237E+00  0.88000000000E+00 0.  1.
        -11    1    4    4    0    0 -0.21098393536E-01  0.50121716503E-01  0.19849986139E-01  0.57893106202E-01  0.51100000000E-03 0.  1.
         11    1    4    4    0    0 -0.75870871038E-02  0.66389658826E-01  0.25067467085E-01  0.71370790361E-01  0.51100000000E-03 0. -1.
</event>
<event>
 8    1  0.1132255E+005  0.1043930E+01  0.7957747E-01            NaN
         13   -1    0    0    0    0  0.00000000000E+00  0.00000000000E+00  0.74505805969E-08  0.10566000000E+00  0.10566000000E+00 0. -1.
     999900   -1    0    0    0    0 -0.00000000000E+00 -0.00000000000E+00 -0.74505805969E-08  0.93827000000E+00  0.93827000000E+00 0. -1.
     999902    2    1    2    0    0 -0.25712658914E-02  0.16339458819E-01 -0.17216340164E-01  0.10200555012E+01  0.10197760705E+01 0.  0.
     999903    2    3    3    0    0 -0.90148006503E-01  0.81781957365E-01 -0.48854291892E-01  0.13272615646E+00  0.20360234384E-01 0.  0.
         14    1    1    2    0    0  0.25712658914E-02 -0.16339458819E-01  0.17216340164E-01  0.23874498768E-01  0.00000000000E+00 0. -1.
     999901    1    3    3    0    0  0.87576740612E-01 -0.65442498546E-01  0.31637951728E-01  0.88732934478E+00  0.88000000000E+00 0. -1.
        -11    1    4    4    0    0 -0.45235954339E-02  0.11491168187E-01 -0.76149979932E-02  0.14517547223E-01  0.51100000000E-03 0. -1.
         11    1    4    4    0    0 -0.85624411069E-01  0.70290789178E-01 -0.41239293898E-01  0.11820860923E+00  0.51100000000E-03 0.  1.
</event>
<event>
 8    1  0.1132255E+005  0.1043930E+01  0.7957747E-01            NaN
         13   -1    0    0    0    0  0.00000000000E+00  0.00000000000E+00  0.74505805969E-08  0.10566000000E+00  0.10566000000E+00 0. -1.
     999900   -1    0    0    0    0 -0.00000000000E+00 -0.00000000000E+00 -0.74505805969E-08  0.93827000000E+00  0.93827000000E+00 0.  1.
     999902    2    1    2    0    0 -0.26897067711E-02 -0.21539778419E-01 -0.91137330597E-02  0.10203873428E+01  0.10201157153E+01 0.  0.
     999903    2    3    3    0    0  0.55859678093E-01 -0.11676894785E+00 -0.23979458966E-01  0.13319085106E+00  0.20236045428E-01 0.  0.
         14    1    1    2    0    0  0.26897067711E-02  0.21539778419E-01  0.91137330597E-02  0.23542657181E-01  0.00000000000E+00 0.  1.
     999901    1    3    3    0    0 -0.58549384864E-01  0.95229169435E-01  0.14865725906E-01  0.88719649176E+00  0.88000000000E+00 0.  1.
        -11    1    4    4    0    0  0.55011936494E-02 -0.31266124584E-01 -0.45532640631E-02  0.32075333400E-01  0.51100000000E-03 0. -1.
         11    1    4    4    0    0  0.50358484443E-01 -0.85502823270E-01 -0.19426194903E-01  0.10111551766E+00  0.51100000000E-03 0.  1.
</event>
<event>
 8    1  0.1132255E+005  0.1043930E+01  0.7957747E-01            NaN
         13   -1    0    0    0    0  0.00000000000E+00  0.00000000000E+00  0.74505805969E-08  0.10566000000E+00  0.10566000000E+00 0.  1.
     999900   -1    0    0    0    0 -0.00000000000E+00 -0.00000000000E+00 -0.74505805969E-08  0.93827000000E+00  0.93827000000E+00 0.  1.
     999902    2    1    2    0    0  0.12941180685E-01 -0.20188526728E-02  0.19422040857E-01  0.10205042536E+01  0.10202353483E+01 0.  0.
     999903    2    3    3    0    0  0.10129657265E-01 -0.12900466314E+00 -0.80395102896E-02  0.13096086650E+00  0.18474354170E-01 0.  0.
         14    1    1    2    0    0 -0.12941180685E-01  0.20188526728E-02 -0.19422040857E-01  0.23425746406E-01  0.00000000000E+00 0. -1.
     999901    1    3    3    0    0  0.28115234195E-02  0.12698581047E+00  0.27461551146E-01  0.88954338709E+00  0.88000000000E+00 0. -1.
        -11    1    4    4    0    0  0.40594100507E-02 -0.10713606340E-01  0.34007267119E-02  0.11961865822E-01  0.51100000000E-03 0. -1.
         11    1    4    4    0    0  0.60702472146E-02 -0.11829105680E+00 -0.11440237001E-01  0.11899900068E+00  0.51100000000E-03 0.  1.
</event>
<event>
 8    1  0.1132255E+005  0.1043930E+01  0.7957747E-01            NaN
         13   -1    0    0    0    0  0.00000000000E+00  0.00000000000E+00  0.74505805969E-08  0.10566000000E+00  0.10566000000E+00 0. -1.
     999900   -1    0    0    0    0 -0.00000000000E+00 -0.00000000000E+00 -0.74505805969E-08  0.93827000000E+00  0.93827000000E+00 0. -1.
     999902    2    1    2    0    0 -0.57404469672E-02 -0.93795651744E-02  0.21981135461E-01  0.10193515686E+01  0.10190552100E+01 0.  0.
     999903    2    3    3    0    0  0.44782138817E-02  0.50439771543E-01 -0.11451413165E+00  0.12676334773E+00  0.19779662006E-01 0.  0.
         14    1    1    2    0    0  0.57404469672E-02  0.93795651744E-02 -0.21981135461E-01  0.24578431407E-01  0.00000000000E+00 0.  1.
     999901    1    3    3    0    0 -0.10218660849E-01 -0.59819336717E-01  0.13649526711E+00  0.89258822086E+00  0.88000000000E+00 0.  1.
        -11    1    4    4    0    0  0.28807186883E-02  0.19522569149E-01 -0.68606680566E-01  0.71390244331E-01  0.51100000000E-03 0.  1.
         11    1    4    4    0    0  0.15974951935E-02  0.30917202394E-01 -0.45907451080E-01  0.55373103402E-01  0.51100000000E-03 0. -1.
</event>
<event>
 8    1  0.1132255E+005  0.1043930E+01  0.7957747E-01            NaN
         13   -1    0    0    0    0  0.00000000000E+00  0.00000000000E+00  0.74505805969E-08  0.10566000000E+00  0.10566000000E+00 0. -1.
     999900   -1    0    0    0    0 -0.00000000000E+00 -0.00000000000E+00 -0.74505805969E-08  0.93827000000E+00  0.93827000000E+00 0. -1.
     999902    2    1    2    0    0 -0.21476299146E-01  0.11770256710E-01  0.22796968822E-02  0.10193339152E+01  0.10190371256E+01 0.  0.
     999903    2    3    3    0    0 -0.88480001536E-01  0.38981676803E-01 -0.87179497810E-01  0.13184706742E+00  0.20859111959E-01 0.  0.
         14    1    1    2    0    0  0.21476299146E-01 -0.11770256710E-01 -0.22796968822E-02  0.24596084768E-01  0.00000000000E+00 0.  1.
     999901    1    3    3    0    0  0.67003702390E-01 -0.27211420093E-01  0.89459194692E-01  0.88748684781E+00  0.88000000000E+00 0.  1.
        -11    1    4    4    0    0 -0.39407440711E-01  0.21775160629E-01 -0.53334771522E-01  0.69799448266E-01  0.51100000000E-03 0. -1.
         11    1    4    4    0    0 -0.49072560825E-01  0.17206516174E-01 -0.33844726288E-01  0.62047619159E-01  0.51100000000E-03 0.  1.
</event>
<event>
 8    1  0.1132255E+005  0.1043930E+01  0.7957747E-01            NaN
         13   -1    0    0    0    0  0.00000000000E+00  0.00000000000E+00  0.74505805969E-08  0.10566000000E+00  0.10566000000E+00 0. -1.
     999900   -1    0    0    0    0 -0.00000000000E+00 -0.00000000000E+00 -0.74505805969E-08  0.93827000000E+00  0.93827000000E+00 0. -1.
     999902    2    1    2    0    0  0.13167402818E-01 -0.12347226361E-01  0.15860041564E-01  0.10199013626E+01  0.10196182688E+01 0.  0.
     999903    2    3    3    0    0  0.15699323150E-01  0.86559936120E-01 -0.90600152626E-01  0.12798050831E+00  0.20773337794E-01 0.  0.
         14    1    1    2    0    0 -0.13167402818E-01  0.12347226361E-01 -0.15860041564E-01  0.24028637377E-01  0.00000000000E+00 0.  1.
     999901    1    3    3    0    0 -0.25319203328E-02 -0.98907162481E-01  0.10646019419E+00  0.89192085431E+00  0.88000000000E+00 0.  1.
        -11    1    4    4    0    0  0.18748808618E-01  0.61817485705E-01 -0.57093601826E-01  0.86214035133E-01  0.51100000000E-03 0.  1.
         11    1    4    4    0    0 -0.30494854679E-02  0.24742450415E-01 -0.33506550800E-01  0.41766473177E-01  0.51100000000E-03 0. -1.
</event>
<event>
 8    1  0.1132255E+005  0.1043930E+01  0.7957747E-01            NaN
         13   -1    0    0    0    0  0.00000000000E+00  0.00000000000E+00  0.74505805969E-08  0.10566000000E+00  0.10566000000E+00 0. -1.
     999900   -1    0    0    0    0 -0.00000000000E+00 -0.00000000000E+00 -0.74505805969E-08  0.93827000000E+00  0.93827000000E+00 0.  1.
     999902    2    1    2    0    0 -0.36363662363E-02 -0.18462924406E-01 -0.14576268306E-01  0.10201272620E+01  0.10198495283E+01 0.  0.
     999903    2    3    3    0    0  0.12417565024E-01 -0.12719351659E+00  0.27868592163E-01  0.13227500148E+00  0.19688346897E-01 0.  0.
         14    1    1    2    0    0  0.36363662363E-02  0.18462924406E-01  0.14576268306E-01  0.23802737968E-01  0.00000000000E+00 0. -1.
     999901    1    3    3    0    0 -0.16053931261E-01  0.10873059219E+00 -0.42444860470E-01  0.88785226055E+00  0.88000000000E+00 0.  1.
        -11    1    4    4    0    0 -0.11644429291E-02 -0.82938207221E-01  0.19854650508E-01  0.85291092221E-01  0.51100000000E-03 0. -1.
         11    1    4    4    0    0  0.13582007953E-01 -0.44255309370E-01  0.80139416559E-02  0.46983909260E-01  0.51100000000E-03 0.  1.
</event>
<event>
 8    1  0.1132255E+005  0.1043930E+01  0.7957747E-01            NaN
         13   -1    0    0    0    0  0.00000000000E+00  0.00000000000E+00  0.74505805969E-08  0.10566000000E+00  0.10566000000E+00 0.  1.
     999900   -1    0    0    0    0 -0.00000000000E+00 -0.00000000000E+00 -0.74505805969E-08  0.93827000000E+00  0.93827000000E+00 0. -1.
     999902    2    1    2    0    0 -0.54152214055E-03  0.16343771857E-01 -0.17621915965E-01  0.10198895331E+01  0.10196061572E+01 0.  0.
     999903    2    3    3    0    0  0.12537457164E+00  0.79935902995E-02 -0.30379940697E-01  0.13079597484E+00  0.20049078245E-01 0.  0.
         14    1    1    2    0    0  0.54152214055E-03 -0.16343771857E-01  0.17621915965E-01  0.24040466863E-01  0.00000000000E+00 0.  1.
     999901    1    3    3    0    0 -0.12591609378E+00  0.83501815571E-02  0.12758024732E-01  0.88909355829E+00  0.88000000000E+00 0. -1.
        -11    1    4    4    0    0  0.66825889027E-01  0.47825954436E-02 -0.59190075244E-02  0.67259708850E-01  0.51100000000E-03 0. -1.
         11    1    4    4    0    0  0.58548682613E-01  0.32109948559E-02 -0.24460933172E-01  0.63536265993E-01  0.51100000000E-03 0.  1.
</event>
<event>
 8    1  0.1132255E+005  0.1043930E+01  0.7957747E-01            NaN
         13   -1    0    0    0    0  0.00000000000E+00  0.00000000000E+00  0.74505805969E-08  0.10566000000E+00  0.10566000000E+00 0. -1.
     999900   -1    0    0    0    0 -0.00000000000E+00 -0.00000000000E+00 -0.74505805969E-08  0.93827000000E+00  0.93827000000E+00 0.  1.
     999902    2    1    2    0    0  0.20413494409E-01  0.23494290625E-02 -0.11772723997E-01  0.10202482011E+01  0.10199733154E+01 0.  0.
     999903    2    3    3    0    0 -0.86353915055E-01  0.22103506149E-01 -0.92293839052E-01  0.12992626307E+00  0.20423454157E-01 0.  0.
         14    1    1    2    0    0 -0.20413494409E-01 -0.23494290625E-02  0.11772723997E-01  0.23681798944E-01  0.00000000000E+00 0. -1.
     999901    1    3    3    0    0  0.10676740946E+00 -0.19754077087E-01  0.80521115055E-01  0.89032193798E+00  0.88000000000E+00 0. -1.
        -11    1    4    4    0    0 -0.96660792209E-02  0.91740321604E-03 -0.26711704019E-02  0.10083203285E-01  0.51100000000E-03 0. -1.
         11    1    4    4    0    0 -0.76687835834E-01  0.21186102933E-01 -0.89622668650E-01  0.11984305979E+00  0.51100000000E-03 0.  1.
</event>
<event>
 8    1  0.1132255E+005  0.1043930E+01  0.7957747E-01            NaN
         13   -1    0    0    0    0  0.00000000000E+00  0.00000000000E+00  0.74505805969E-08  0.10566000000E+00  0.10566000000E+00 0. -1.
     999900   -1    0    0    0    0 -0.00000000000E+00 -0.00000000000E+00 -0.74505805969E-08  0.93827000000E+00  0.93827000000E+00 0.  1.
     999902    2    1    2    0    0 -0.11927503895E-01 -0.21141363809E-02  0.20444082419E-01  0.10201666789E+01  0.10198898751E+01 0.  0.
     999903    2    3    3    0    0 -0.11347929324E+00  0.54257592489E-01 -0.30580757094E-01  0.13106934345E+00  0.20556112240E-01 0.  0.
         14    1    1    2    0    0  0.11927503895E-01  0.21141363809E-02 -0.20444082419E-01  0.23763321059E-01  0.00000000000E+00 0.  1.
     999901    1    3    3    0    0  0.10155178934E+00 -0.56371728870E-01  0.51024839512E-01  0.88909733549E+00  0.88000000000E+00 0. -1.
        -11    1    4    4    0    0 -0.33301948305E-01  0.10009533060E-01 -0.85638429316E-03  0.34788001208E-01  0.51100000000E-03 0.  1.
         11    1    4    4    0    0 -0.80177344934E-01  0.44248059429E-01 -0.29724372801E-01  0.96281342239E-01  0.51100000000E-03 0. -1.
</event>
<event>
 8    1  0.1132255E+005  0.1043930E+01  0.7957747E-01            NaN
         13   -1    0    0    0    0  0.00000000000E+00  0.00000000000E+00  0.74505805969E-08  0.10566000000E+00  0.10566000000E+00 0.  1.
     999900   -1    0    0    0    0 -0.00000000000E+00 -0.00000000000E+00 -0.74505805969E-08  0.93827000000E+00  0.93827000000E+00 0. -1.
     999902    2    1    2    0    0  0.19666559427E-01  0.36140186150E-02 -0.13140052006E-01  0.10200031185E+01  0.10197224456E+01 0.  0.
     999903    2    3    3    0    0 -0.21902196887E-01  0.37869303351E-01 -0.12151318979E+00  0.13172043659E+00  0.25904203484E-01 0.  0.
         14    1    1    2    0    0 -0.19666559427E-01 -0.36140186150E-02  0.13140052006E-01  0.23926881472E-01  0.00000000000E+00 0.  1.
     999901    1    3    3    0    0  0.41568756314E-01 -0.34255284736E-01  0.10837313779E+00  0.88828268194E+00  0.88000000000E+00 0.  1.
        -11    1    4    4    0    0 -0.24660530014E-01  0.19908567804E-01 -0.88915709161E-01  0.94396807516E-01  0.51100000000E-03 0. -1.
         11    1    4    4    0    0  0.27583331269E-02  0.17960735547E-01 -0.32597480630E-01  0.37323629077E-01  0.51100000000E-03 0.  1.
</event>
<event>
 7    1  0.1132255E+005  0.1043930E+01  0.7957747E-01            NaN
         13   -1    0    0    0    0  0.00000000000E+00  0.00000000000E+00  0.74505805969E-08  0.10566000000E+00  0.10566000000E+00 0.  1.
     999900   -1    0    0    0    0 -0.00000000000E+00 -0.00000000000E+00 -0.74505805969E-08  0.93827000000E+00  0.93827000000E+00 0. -1.
     999903    2    1    2    0    0 -0.42246097173E-01 -0.10599269683E-01 -0.91590521987E-01  0.10383570550E+00  0.22269997186E-01 0.  0.
         14    1    1    2    0    0 -0.37822531736E-01 -0.28021128092E-02 -0.29569065497E-01  0.48090803460E-01  0.00000000000E+00 0. -1.
     999901    1    1    2    0    0  0.80068628909E-01  0.13401382492E-01  0.12115958748E+00  0.89200349104E+00  0.88000000000E+00 0.  1.
        -11    1    3    3    0    0 -0.39506235527E-01 -0.16009339093E-01 -0.83004996108E-01  0.93312014679E-01  0.51100000000E-03 0.  1.
         11    1    3    3    0    0 -0.27398616466E-02  0.54100694102E-02 -0.85855258795E-02  0.10523690821E-01  0.51100000000E-03 0. -1.
</event>
<event>
 8    1  0.1132255E+005  0.1043930E+01  0.7957747E-01            NaN
         13   -1    0    0    0    0  0.00000000000E+00  0.00000000000E+00  0.74505805969E-08  0.10566000000E+00  0.10566000000E+00 0.  1.
     999900   -1    0    0    0    0 -0.00000000000E+00 -0.00000000000E+00 -0.74505805969E-08  0.93827000000E+00  0.93827000000E+00 0. -1.
     999902    2    1    2    0    0 -0.68480357801E-02 -0.21721049160E-01  0.10025419717E-01  0.10190460973E+01  0.10187422343E+01 0.  0.
     999903    2    3    3    0    0 -0.44643129700E-01 -0.79126991304E-01  0.94082972493E-01  0.13237277335E+00  0.20417042592E-01 0.  0.
         14    1    1    2    0    0  0.68480357801E-02  0.21721049160E-01 -0.10025419717E-01  0.24883902651E-01  0.00000000000E+00 0. -1.
     999901    1    3    3    0    0  0.37795093920E-01  0.57405942144E-01 -0.84057552777E-01  0.88667332400E+00  0.88000000000E+00 0. -1.
        -11    1    4    4    0    0 -0.23085568973E-01 -0.32680574284E-01  0.28315179376E-01  0.49020138050E-01  0.51100000000E-03 0.  1.
         11    1    4    4    0    0 -0.21557560727E-01 -0.46446417020E-01  0.65767793117E-01  0.83352635297E-01  0.51100000000E-03 0. -1.
</event>
<event>
 8    1  0.1132255E+005  0.1043930E+01  0.7957747E-01            NaN
         13   -1    0    0    0    0  0.00000000000E+00  0.00000000000E+00  0.74505805969E-08  0.10566000000E+00  0.10566000000E+00 0.  1.
     999900   -1    0    0    0    0 -0.00000000000E+00 -0.00000000000E+00 -0.74505805969E-08  0.93827000000E+00  0.93827000000E+00 0. -1.
     999902    2    1    2    0    0  0.25037085847E-01  0.46073293360E-02 -0.12586842101E-01  0.10155308496E+01  0.10151336832E+01 0.  0.
     999903    2    3    3    0    0 -0.11992953598E+00  0.13038457226E-01 -0.17415162036E-01  0.12361733468E+00  0.20612195364E-01 0.  0.
         14    1    1    2    0    0 -0.25037085847E-01 -0.46073293360E-02  0.12586842101E-01  0.28399150434E-01  0.00000000000E+00 0.  1.
     999901    1    3    3    0    0  0.14496662183E+00 -0.84311278904E-02  0.48283199353E-02  0.89191351489E+00  0.88000000000E+00 0. -1.
        -11    1    4    4    0    0 -0.50796072131E-01  0.74396600434E-02  0.26585406915E-02  0.51409322551E-01  0.51100000000E-03 0.  1.
         11    1    4    4    0    0 -0.69133463849E-01  0.55987971830E-02 -0.20073702728E-01  0.72208012130E-01  0.51100000000E-03 0. -1.
</event>
<event>
 8    1  0.1132255E+005  0.1043930E+01  0.7957747E-01            NaN
         13   -1    0    0    0    0  0.00000000000E+00  0.00000000000E+00  0.74505805969E-08  0.10566000000E+00  0.10566000000E+00 0.  1.
     999900   -1    0    0    0    0 -0.00000000000E+00 -0.00000000000E+00 -0.74505805969E-08  0.93827000000E+00  0.93827000000E+00 0.  1.
     999902    2    1    2    0    0 -0.21220933741E-02 -0.23867777923E-01  0.53657289963E-02  0.10193746513E+01  0.10190788559E+01 0.  0.
     999903    2    3    3    0    0 -0.93815658800E-01  0.67737093007E-01  0.52127873191E-01  0.12865255070E+00  0.21082505404E-01 0.  0.
         14    1    1    2    0    0  0.21220933741E-02  0.23867777923E-01 -0.53657289963E-02  0.24555348724E-01  0.00000000000E+00 0.  1.
     999901    1    3    3    0    0  0.91693565426E-01 -0.91604870930E-01 -0.46762144194E-01  0.89072210057E+00  0.88000000000E+00 0. -1.
        -11    1    4    4    0    0 -0.38761033638E-01  0.16020374450E-01  0.15654125741E-01  0.44770335044E-01  0.51100000000E-03 0.  1.
         11    1    4    4    0    0 -0.55054625162E-01  0.51716718557E-01  0.36473747450E-01  0.83882215660E-01  0.51100000000E-03 0. -1.
</event>
<event>
 8    1  0.1132255E+005  0.1043930E+01  0.7957747E-01            NaN
         13   -1    0    0    0    0  0.00000000000E+00  0.00000000000E+00  0.74505805969E-08  0.10566000000E+00  0.10566000000E+00 0.  1.
     999900   -1    0    0    0    0 -0.00000000000E+00 -0.00000000000E+00 -0.74505805969E-08  0.93827000000E+00  0.93827000000E+00 0.  1.
     999902    2    1    2    0    0 -0.49993595451E-02 -0.22697051471E-01  0.66565895260E-02  0.10197543940E+01  0.10194677848E+01 0.  0.
     999903    2    3    3    0    0  0.58035252066E-01  0.89542907752E-01  0.68347436500E-01  0.12825176848E+00  0.19776785155E-01 0.  0.
         14    1    1    2    0    0  0.49993595451E-02  0.22697051471E-01 -0.66565895260E-02  0.24175606000E-01  0.00000000000E+00 0.  1.
     999901    1    3    3    0    0 -0.63034611611E-01 -0.11223995922E+00 -0.61690846974E-01  0.89150262552E+00  0.88000000000E+00 0.  1.
        -11    1    4    4    0    0  0.15274118163E-01  0.29622871406E-01  0.31779531856E-01  0.46054456484E-01  0.51100000000E-03 0. -1.
         11    1    4    4    0    0  0.42761133904E-01  0.59920036346E-01  0.36567904644E-01  0.82197311997E-01  0.51100000000E-03 0.  1.
</event>
<event>
 8    1  0.1132255E+005  0.1043930E+01  0.7957747E-01            NaN
         13   -1    0    0    0    0  0.00000000000E+00  0.00000000000E+00  0.74505805969E-08  0.10566000000E+00  0.10566000000E+00 0.  1.
     999900   -1    0    0    0    0 -0.00000000000E+00 -0.00000000000E+00 -0.74505805969E-08  0.93827000000E+00  0.93827000000E+00 0.  1.
     999902    2    1    2    0    0 -0.17529683033E-01  0.20453396000E-01 -0.21876369658E-01  0.10092283178E+01  0.10086315436E+01 0.  0.
     999903    2    3    3    0    0 -0.77138685168E-01  0.39972099419E-01  0.81824583949E-01  0.12092200767E+00  0.19460830364E-01 0.  0.
         14    1    1    2    0    0  0.17529683033E-01 -0.20453396000E-01  0.21876369658E-01  0.34701682157E-01  0.00000000000E+00 0.  1.
     999901    1    3    3    0    0  0.59609002135E-01 -0.19518703419E-01 -0.10370095361E+00  0.88830631018E+00  0.88000000000E+00 0.  1.
        -11    1    4    4    0    0 -0.72805058421E-01  0.34855056735E-01  0.67985634986E-01  0.10553558261E+00  0.51100000000E-03 0. -1.
         11    1    4    4    0    0 -0.43336267476E-02  0.51170426837E-02  0.13838948963E-01  0.15386425056E-01  0.51100000000E-03 0.  1.
</event>
<event>
 8    1  0.1132255E+005  0.1043930E+01  0.7957747E-01            NaN
         13   -1    0    0    0    0  0.00000000000E+00  0.00000000000E+00  0.74505805969E-08  0.10566000000E+00  0.10566000000E+00 0.  1.
     999900   -1    0    0    0    0 -0.00000000000E+00 -0.00000000000E+00 -0.74505805969E-08  0.93827000000E+00  0.93827000000E+00 0.  1.
     999902    2    1    2    0    0 -0.29170528465E-03  0.69267629695E-03  0.23319137223E-01  0.10205987537E+01  0.10203320386E+01 0.  0.
     999903    2    3    3    0    0  0.29393105132E-01 -0.60288254110E-01 -0.10737957254E+00  0.12836447138E+00  0.21176324066E-01 0.  0.
         14    1    1    2    0    0  0.29170528465E-03 -0.69267629695E-03 -0.23319137223E-01  0.23331246286E-01  0.00000000000E+00 0. -1.
     999901    1    3    3    0    0 -0.29684810417E-01  0.60980930407E-01  0.13069870976E+00  0.89223428234E+00  0.88000000000E+00 0. -1.
        -11    1    4    4    0    0  0.54873741650E-03 -0.10639734152E-01 -0.31164750526E-01  0.32939457371E-01  0.51100000000E-03 0. -1.
         11    1    4    4    0    0  0.28844367716E-01 -0.49648519959E-01 -0.76214822011E-01  0.95425014007E-01  0.51100000000E-03 0.  1.
</event>
<event>
 8    1  0.1132255E+005  0.1043930E+01  0.7957747E-01            NaN
         13   -1    0    0    0    0  0.00000000000E+00  0.00000000000E+00  0.74505805969E-08  0.10566000000E+00  0.10566000000E+00 0.  1.
     999900   -1    0    0    0    0 -0.00000000000E+00 -0.00000000000E+00 -0.74505805969E-08  0.93827000000E+00  0.93827000000E+00 0.  1.
     999902    2    1    2    0    0  0.12527287586E-01 -0.80372657044E-02  0.18957410145E-01  0.10198278430E+01  0.10195429934E+01 0.  0.
     999903    2    3    3    0    0 -0.11191418339E+00  0.54399609685E-01 -0.21845804813E-01  0.12794839738E+00  0.20234901175E-01 0.  0.
         14    1    1    2    0    0 -0.12527287586E-01  0.80372657044E-02 -0.18957410145E-01  0.24102157034E-01  0.00000000000E+00 0. -1.
     999901    1    3    3    0    0  0.12444147098E+00 -0.62436875389E-01  0.40803214958E-01  0.89187944559E+00  0.88000000000E+00 0. -1.
        -11    1    4    4    0    0 -0.65027574349E-01  0.30250942574E-01 -0.22608169909E-01  0.75200368482E-01  0.51100000000E-03 0. -1.
         11    1    4    4    0    0 -0.46886609045E-01  0.24148667111E-01  0.76236509665E-03  0.52748028897E-01  0.51100000000E-03 0.  1.
</event>
<event>
 8    1  0.1132255E+005  0.1043930E+01  0.7957747E-01            NaN
         13   -1    0    0    0    0  0.00000000000E+00  0.00000000000E+00  0.74505805969E-08  0.10566000000E+00  0.10566000000E+00 0. -1.
     999900   -1    0    0    0    0 -0.00000000000E+00 -0.00000000000E+00 -0.74505805969E-08  0.93827000000E+00  0.93827000000E+00 0. -1.
     999902    2    1    2    0    0 -0.16655483667E-01 -0.35027045067E-02 -0.19053299081E-01  0.10183819613E+01  0.10180614504E+01 0.  0.
     999903    2    3    3    0    0 -0.85203567171E-01  0.40459503797E-01  0.85055552471E-01  0.12851108951E+00  0.19596780711E-01 0.  0.
         14    1    1    2    0    0  0.16655483667E-01  0.35027045067E-02  0.19053299081E-01  0.25548038690E-01  0.00000000000E+00 0. -1.
     999901    1    3    3    0    0  0.68548083504E-01 -0.43962208304E-01 -0.10410885155E+00  0.88987087180E+00  0.88000000000E+00 0. -1.
        -11    1    4    4    0    0 -0.61077007606E-01  0.36959688825E-01  0.57115832736E-01  0.91427014204E-01  0.51100000000E-03 0.  1.
         11    1    4    4    0    0 -0.24126559565E-01  0.34998149721E-02  0.27939719735E-01  0.37084075304E-01  0.51100000000E-03 0. -1.
</event>
<event>
 8    1  0.1132255E+005  0.1043930E+01  0.7957747E-01            NaN
         13   -1    0    0    0    0  0.00000000000E+00  0.00000000000E+00  0.74505805969E-08  0.10566000000E+00  0.10566000000E+00 0.  1.
     999900   -1    0    0    0    0 -0.00000000000E+00 -0.00000000000E+00 -0.74505805969E-08  0.93827000000E+00  0.93827000000E+00 0.  1.
     999902    2    1    2    0    0  0.13001500940E-01  0.39848707153E-02  0.21714650098E-01  0.10183088320E+01  0.10179864602E+01 0.  0.
     999903    2    3    3    0    0  0.11324497901E+00  0.45368534302E-01 -0.38579495611E-01  0.12960373663E+00  0.20640297758E-01 0.  0.
         14    1    1    2    0    0 -0.13001500940E-01 -0.39848707153E-02 -0.21714650098E-01  0.25621168010E-01  0.00000000000E+00 0. -1.
     999901    1    3    3    0    0 -0.10024347807E+00 -0.41383663587E-01  0.60294145709E-01  0.88870509536E+00  0.88000000000E+00 0. -1.
        -11    1    4    4    0    0  0.26131799103E-01  0.44338144155E-02 -0.18278200666E-02  0.26573138351E-01  0.51100000000E-03 0.  1.
         11    1    4    4    0    0  0.87113179908E-01  0.40934719887E-01 -0.36751675544E-01  0.10303059828E+00  0.51100000000E-03 0. -1.
</event>
<event>
 8    1  0.1132255E+005  0.1043930E+01  0.7957747E-01            NaN
         13   -1    0    0    0    0  0.00000000000E+00  0.00000000000E+00  0.74505805969E-08  0.10566000000E+00  0.10566000000E+00 0. -1.
     999900   -1    0    0    0    0 -0.00000000000E+00 -0.00000000000E+00 -0.74505805969E-08  0.93827000000E+00  0.93827000000E+00 0. -1.
     999902    2    1    2    0    0 -0.26773740490E-02  0.22986154787E-01 -0.73867230912E-02  0.10196381223E+01  0.10193487162E+01 0.  0.
     999903    2    3    3    0    0 -0.20076134024E-01  0.12584738101E+00 -0.32840143266E-01  0.13311061269E+00  0.19983636710E-01 0.  0.
         14    1    1    2    0    0  0.26773740490E-02 -0.22986154787E-01  0.73867230912E-02  0.24291877690E-01  0.00000000000E+00 0.  1.
     999901    1    3    3    0    0  0.17398759975E-01 -0.10286122623E+00  0.25453420175E-01  0.88652750962E+00  0.88000000000E+00 0.  1.
        -11    1    4    4    0    0 -0.89820891924E-02  0.69299014527E-01 -0.79313794607E-02  0.70329220398E-01  0.51100000000E-03 0. -1.
         11    1    4    4    0    0 -0.11094044831E-01  0.56548366488E-01 -0.24908763805E-01  0.62781392294E-01  0.51100000000E-03 0.  1.
</event>
<event>
 8    1  0.1132255E+005  0.1043930E+01  0.7957747E-01            NaN
         13   -1    0    0    0    0  0.00000000000E+00  0.00000000000E+00  0.74505805969E-08  0.10566000000E+00  0.10566000000E+00 0. -1.
     999900   -1    0    0    0    0 -0.00000000000E+00 -0.00000000000E+00 -0.74505805969E-08  0.93827000000E+00  0.93827000000E+00 0. -1.
     999902    2    1    2    0    0  0.11278383685E-01  0.11846096848E-01  0.19453927278E-01  0.10185137211E+01  0.10181965492E+01 0.  0.
     999903    2    3    3    0    0 -0.22198083982E-01  0.63627755142E-01  0.11056727422E+00  0.13166330750E+00  0.23850749591E-01 0.  0.
         14    1    1    2    0    0 -0.11278383685E-01 -0.11846096848E-01 -0.19453927278E-01  0.25416278949E-01  0.00000000000E+00 0.  1.
     999901    1    3    3    0    0  0.33476467666E-01 -0.51781658294E-01 -0.91113346945E-01  0.88685041355E+00  0.88000000000E+00 0. -1.
        -11    1    4    4    0    0 -0.66505954515E-02  0.31062960755E-01  0.72771537108E-01  0.79404632641E-01  0.51100000000E-03 0.  1.
         11    1    4    4    0    0 -0.15547488530E-01  0.32564794387E-01  0.37795737114E-01  0.52258674860E-01  0.51100000000E-03 0. -1.
</event>
<event>
 8    1  0.1132255E+005  0.1043930E+01  0.7957747E-01            NaN
         13   -1    0    0    0    0  0.00000000000E+00  0.00000000000E+00  0.74505805969E-08  0.10566000000E+00  0.10566000000E+00 0.  1.
     999900   -1    0    0    0    0 -0.00000000000E+00 -0.00000000000E+00 -0.74505805969E-08  0.93827000000E+00  0.93827000000E+00 0. -1.
     999902    2    1    2    0    0 -0.10483288920E-01 -0.14069864426E-01  0.17995573214E-01  0.10187963356E+01  0.10184862652E+01 0.  0.
     999903    2    3    3    0    0 -0.83662820979E-01  0.86463817933E-01 -0.39409255202E-01  0.12820238797E+00  0.20181760594E-01 0.  0.
         14    1    1    2    0    0  0.10483288920E-01  0.14069864426E-01 -0.17995573214E-01  0.25133664414E-01  0.00000000000E+00 0. -1.
     999901    1    3    3    0    0  0.73179532059E-01 -0.10053368236E+00  0.57404828416E-01  0.89059394761E+00  0.88000000000E+00 0.  1.
        -11    1    4    4    0    0 -0.42614407505E-01  0.57949566086E-01 -0.20983740938E-01  0.74931424925E-01  0.51100000000E-03 0.  1.
         11    1    4    4    0    0 -0.41048413475E-01  0.28514251846E-01 -0.18425514264E-01  0.53270963048E-01  0.51100000000E-03 0. -1.
</event>
<event>
 8    1  0.1132255E+005  0.1043930E+01  0.7957747E-01            NaN
         13   -1    0    0    0    0  0.00000000000E+00  0.00000000000E+00  0.74505805969E-08  0.10566000000E+00  0.10566000000E+00 0. -1.
     999900   -1    0    0    0    0 -0.00000000000E+00 -0.00000000000E+00 -0.74505805969E-08  0.93827000000E+00  0.93827000000E+00 0.  1.
     999902    2    1    2    0    0  0.20429987769E-01 -0.51436605756E-02 -0.96201147157E-02  0.10207699428E+01  0.10205071718E+01 0.  0.
     999903    2    3    3    0    0  0.56591881728E-01 -0.10389927003E+00  0.55249500820E-01  0.13213704893E+00  0.20248283075E-01 0.  0.
         14    1    1    2    0    0 -0.20429987769E-01  0.51436605756E-02  0.96201147157E-02  0.23160057243E-01  0.00000000000E+00 0. -1.
     999901    1    3    3    0    0 -0.36161893959E-01  0.98755609459E-01 -0.64869615535E-01  0.88863289383E+00  0.88000000000E+00 0.  1.
        -11    1    4    4    0    0  0.26193119994E-01 -0.29660325955E-01  0.22177022343E-01  0.45364037648E-01  0.51100000000E-03 0.  1.
         11    1    4    4    0    0  0.30398761734E-01 -0.74238944080E-01  0.33072478477E-01  0.86773011280E-01  0.51100000000E-03 0. -1.
</event>
<event>
 8    1  0.1132255E+005  0.1043930E+01  0.7957747E-01            NaN
         13   -1    0    0    0    0  0.00000000000E+00  0.00000000000E+00  0.74505805969E-08  0.10566000000E+00  0.10566000000E+00 0.  1.
     999900   -1    0    0    0    0 -0.00000000000E+00 -0.00000000000E+00 -0.74505805969E-08  0.93827000000E+00  0.93827000000E+00 0.  1.
     999902    2    1    2    0    0 -0.27589932946E-02 -0.15975269819E-01  0.15073650124E-01  0.10217932383E+01  0.10215534179E+01 0.  0.
     999903    2    3    3    0    0 -0.81300667992E-01  0.90099564270E-01 -0.41817056740E-01  0.13013342784E+00  0.21408239282E-01 0.  0.
         14    1    1    2    0    0  0.27589932946E-02  0.15975269819E-01 -0.15073650124E-01  0.22136761684E-01  0.00000000000E+00 0. -1.
     999901    1    3    3    0    0  0.78541674697E-01 -0.10607483409E+00  0.56890706864E-01  0.89165981048E+00  0.88000000000E+00 0.  1.
        -11    1    4    4    0    0 -0.54373331309E-01  0.66962294300E-01 -0.20297740798E-01  0.88615277566E-01  0.51100000000E-03 0.  1.
         11    1    4    4    0    0 -0.26927336683E-01  0.23137269970E-01 -0.21519315942E-01  0.41518150273E-01  0.51100000000E-03 0. -1.
</event>
<event>
 8    1  0.1132255E+005  0.1043930E+01  0.7957747E-01            NaN
         13   -1    0    0    0    0  0.00000000000E+00  0.00000000000E+00  0.74505805969E-08  0.10566000000E+00  0.10566000000E+00 0.  1.
     999900   -1    0    0    0    0 -0.00000000000E+00 -0.00000000000E+00 -0.74505805969E-08  0.93827000000E+00  0.93827000000E+00 0. -1.
     999902    2    1    2    0    0 -0.51167029094E-02  0.16184308603E-01  0.16431860633E-01  0.10203054675E+01  0.10200319252E+01 0.  0.
     999903    2    3    3    0    0 -0.76671730096E-02  0.13054352543E+00  0.10511032288E-01  0.13288246146E+00  0.21139280769E-01 0.  0.
         14    1    1    2    0    0  0.51167029094E-02 -0.16184308603E-01 -0.16431860633E-01  0.23624532535E-01  0.00000000000E+00 0. -1.
     999901    1    3    3    0    0  0.25504701002E-02 -0.11435921683E+00  0.59208283449E-02  0.88742300600E+00  0.88000000000E+00 0.  1.
        -11    1    4    4    0    0 -0.11963521884E-03  0.10057701139E+00  0.11343596015E-02  0.10058477730E+00  0.51100000000E-03 0. -1.
         11    1    4    4    0    0 -0.75475377908E-02  0.29966514041E-01  0.93766726870E-02  0.32297684161E-01  0.51100000000E-03 0.  1.
</event>
<event>
 7    1  0.1132255E+005  0.1043930E+01  0.7957747E-01            NaN
         13   -1    0    0    0    0  0.00000000000E+00  0.00000000000E+00  0.74505805969E-08  0.10566000000E+00  0.10566000000E+00 0.  1.
     999900   -1    0    0    0    0 -0.00000000000E+00 -0.00000000000E+00 -0.74505805969E-08  0.93827000000E+00  0.93827000000E+00 0.  1.
     999903    2    1    2    0    0 -0.28366027424E-02  0.96548863450E-01  0.52138953043E-01  0.11147347579E+00  0.19445720152E-01 0.  0.
         14    1    1    2    0    0  0.20717004496E-01  0.57635801544E-02  0.36044178228E-01  0.41971370191E-01  0.00000000000E+00 0.  1.
     999901    1    1    2    0    0 -0.17880401754E-01 -0.10231244360E+00 -0.88183131272E-01  0.89048515402E+00  0.88000000000E+00 0.  1.
        -11    1    3    3    0    0 -0.98703317776E-02  0.54977461312E-01  0.24096386542E-01  0.60834543371E-01  0.51100000000E-03 0.  1.
         11    1    3    3    0    0  0.70337290352E-02  0.41571402138E-01  0.28042566502E-01  0.50638932422E-01  0.51100000000E-03 0. -1.
</event>
<event>
 8    1  0.1132255E+005  0.1043930E+01  0.7957747E-01            NaN
         13   -1    0    0    0    0  0.00000000000E+00  0.00000000000E+00  0.74505805969E-08  0.10566000000E+00  0.10566000000E+00 0.  1.
     999900   -1    0    0    0    0 -0.00000000000E+00 -0.00000000000E+00 -0.74505805969E-08  0.93827000000E+00  0.93827000000E+00 0. -1.
     999902    2    1    2    0    0 -0.15488184229E-01  0.15236832716E-01  0.91014616498E-02  0.10203740766E+01  0.10201021394E+01 0.  0.
     999903    2    3    3    0    0  0.59535845133E-01  0.25243223481E-01 -0.10972248225E+00  0.12916822920E+00  0.21533024306E-01 0.  0.
         14    1    1    2    0    0  0.15488184229E-01 -0.15236832716E-01 -0.91014616498E-02  0.23555923376E-01  0.00000000000E+00 0. -1.
     999901    1    3    3    0    0 -0.75024029362E-01 -0.10006390765E-01  0.11882394390E+00  0.89120584742E+00  0.88000000000E+00 0.  1.
        -11    1    4    4    0    0  0.26600452023E-01  0.10615493979E-01 -0.28983598185E-01  0.40750249631E-01  0.51100000000E-03 0. -1.
         11    1    4    4    0    0  0.32935393110E-01  0.14627729502E-01 -0.80738884067E-01  0.88417979569E-01  0.51100000000E-03 0.  1.
</event>
<event>
 8    1  0.1132255E+005  0.1043930E+01  0.7957747E-01            NaN
         13   -1    0    0    0    0  0.00000000000E+00  0.00000000000E+00  0.74505805969E-08  0.10566000000E+00  0.10566000000E+00 0. -1.
     999900   -1    0    0    0    0 -0.00000000000E+00 -0.00000000000E+00 -0.74505805969E-08  0.93827000000E+00  0.93827000000E+00 0. -1.
     999902    2    1    2    0    0 -0.17367917189E-01  0.21293522432E-01  0.10955025071E-01  0.10143483973E+01  0.10139169590E+01 0.  0.
     999903    2    3    3    0    0  0.52428418252E-01  0.14411615931E-01 -0.10900019997E+00  0.12344540307E+00  0.20032229825E-01 0.  0.
         14    1    1    2    0    0  0.17367917189E-01 -0.21293522432E-01 -0.10955025071E-01  0.29581602718E-01  0.00000000000E+00 0. -1.
     999901    1    3    3    0    0 -0.69796335441E-01  0.68819065014E-02  0.11995522504E+00  0.89090299421E+00  0.88000000000E+00 0.  1.
        -11    1    4    4    0    0  0.18566903224E-01 -0.44964904995E-02 -0.38398919690E-01  0.42891566496E-01  0.51100000000E-03 0. -1.
         11    1    4    4    0    0  0.33861515027E-01  0.18908106430E-01 -0.70601280281E-01  0.80553836576E-01  0.51100000000E-03 0.  1.
</event>
<event>
 8    1  0.1132255E+005  0.1043930E+01  0.7957747E-01            NaN
         13   -1    0    0    0    0  0.00000000000E+00  0.00000000000E+00  0.74505805969E-08  0.10566000000E+00  0.10566000000E+00 0. -1.
     999900   -1    0    0    0    0 -0.00000000000E+00 -0.00000000000E+00 -0.74505805969E-08  0.93827000000E+00  0.93827000000E+00 0. -1.
     999902    2    1    2    0    0  0.18907846016E-03 -0.35761766992E-02  0.19730442957E-01  0.10238771905E+01  0.10236808028E+01 0.  0.
     999903    2    3    3    0    0  0.12048167711E-02 -0.13240383637E+00  0.22521838908E-02  0.13432500698E+00  0.22492392010E-01 0.  0.
         14    1    1    2    0    0 -0.18907846016E-03  0.35761766992E-02 -0.19730442957E-01  0.20052809522E-01  0.00000000000E+00 0.  1.
     999901    1    3    3    0    0 -0.10157383109E-02  0.12882765968E+00  0.17478259066E-01  0.88955218350E+00  0.88000000000E+00 0.  1.
        -11    1    4    4    0    0 -0.20457452688E-02 -0.76169577613E-01 -0.94786875069E-02  0.76786042126E-01  0.51100000000E-03 0.  1.
         11    1    4    4    0    0  0.32505620399E-02 -0.56234258762E-01  0.11730871398E-01  0.57538964857E-01  0.51100000000E-03 0. -1.
</event>
<event>
 8    1  0.1132255E+005  0.1043930E+01  0.7957747E-01            NaN
         13   -1    0    0    0    0  0.00000000000E+00  0.00000000000E+00  0.74505805969E-08  0.10566000000E+00  0.10566000000E+00 0. -1.
     999900   -1    0    0    0    0 -0.00000000000E+00 -0.00000000000E+00 -0.74505805969E-08  0.93827000000E+00  0.93827000000E+00 0.  1.
     999902    2    1    2    0    0 -0.17018846450E-01 -0.95645706603E-02 -0.12508269131E-01  0.10207442513E+01  0.10204808904E+01 0.  0.
     999903    2    3    3    0    0  0.11070572065E+00 -0.64430453532E-01  0.13059178338E-02  0.12972536154E+00  0.20492049100E-01 0.  0.
         14    1    1    2    0    0  0.17018846450E-01  0.95645706603E-02  0.12508269131E-01  0.23185748706E-01  0.00000000000E+00 0. -1.
     999901    1    3    3    0    0 -0.12772456710E+00  0.54865882872E-01 -0.13814186965E-01  0.89101888976E+00  0.88000000000E+00 0.  1.
        -11    1    4    4    0    0  0.94978438447E-01 -0.50231248978E-01 -0.51530380405E-02  0.10756810431E+00  0.51100000000E-03 0. -1.
         11    1    4    4    0    0  0.15727282207E-01 -0.14199204554E-01  0.64589558743E-02  0.22157257221E-01  0.51100000000E-03 0.  1.
</event>
<event>
 8    1  0.1132255E+005  0.1043930E+01  0.7957747E-01            NaN
         13   -1    0    0    0    0  0.00000000000E+00  0.00000000000E+00  0.74505805969E-08  0.10566000000E+00  0.10566000000E+00 0.  1.
     999900   -1    0    0    0    0 -0.00000000000E+00 -0.00000000000E+00 -0.74505805969E-08  0.93827000000E+00  0.93827000000E+00 0. -1.
     999902    2    1    2    0    0  0.11191056498E-01 -0.12369169254E-01  0.16006457300E-01  0.10208119817E+01  0.10205501748E+01 0.  0.
     999903    2    3    3    0    0  0.23183514522E-01  0.98849056870E-01 -0.76536166453E-01  0.12891655620E+00  0.21285729881E-01 0.  0.
         14    1    1    2    0    0 -0.11191056498E-01  0.12369169254E-01 -0.16006457300E-01  0.23118018273E-01  0.00000000000E+00 0. -1.
     999901    1    3    3    0    0 -0.11992458024E-01 -0.11121822612E+00  0.92542623753E-01  0.89189542553E+00  0.88000000000E+00 0.  1.
        -11    1    4    4    0    0  0.10126205507E-01  0.25664848755E-01 -0.10644838619E-01  0.29576987842E-01  0.51100000000E-03 0.  1.
         11    1    4    4    0    0  0.13057309015E-01  0.73184208115E-01 -0.65891327834E-01  0.99339568354E-01  0.51100000000E-03 0. -1.
</event>
<event>
 8    1  0.1132255E+005  0.1043930E+01  0.7957747E-01            NaN
         13   -1    0    0    0    0  0.00000000000E+00  0.00000000000E+00  0.74505805969E-08  0.10566000000E+00  0.10566000000E+00 0. -1.
     999900   -1    0    0    0    0 -0.00000000000E+00 -0.00000000000E+00 -0.74505805969E-08  0.93827000000E+00  0.93827000000E+00 0. -1.
     999902    2    1    2    0    0  0.19513265613E-01 -0.46598079529E-02 -0.11828441567E-01  0.10206406596E+01  0.10203749128E+01 0.  0.
     999903    2    3    3    0    0 -0.13257719163E-01  0.53238421066E-01 -0.11822619560E+00  0.13173873904E+00  0.19171996289E-01 0.  0.
         14    1    1    2    0    0 -0.19513265613E-01  0.46598079529E-02  0.11828441567E-01  0.23289340371E-01  0.00000000000E+00 0. -1.
     999901    1    3    3    0    0  0.32770984776E-01 -0.57898229019E-01  0.10639775404E+00  0.88890192059E+00  0.88000000000E+00 0.  1.
        -11    1    4    4    0    0  0.13489317355E-02  0.82115693137E-02 -0.35112511430E-01  0.36088766498E-01  0.51100000000E-03 0.  1.
         11    1    4    4    0    0 -0.14606650899E-01  0.45026851752E-01 -0.83113684172E-01  0.95649972540E-01  0.51100000000E-03 0. -1.
</event>
<event>
 8    1  0.1132255E+005  0.1043930E+01  0.7957747E-01            NaN
         13   -1    0    0    0    0  0.00000000000E+00  0.00000000000E+00  0.74505805969E-08  0.10566000000E+00  0.10566000000E+00 0.  1.
     999900   -1    0    0    0    0 -0.00000000000E+00 -0.00000000000E+00 -0.74505805969E-08  0.93827000000E+00  0.93827000000E+00 0. -1.
     999902    2    1    2    0    0 -0.27586834973E-02  0.13053508828E-01 -0.18933808643E-01  0.10207676699E+01  0.10205048468E+01 0.  0.
     999903    2    3    3    0    0 -0.28982382474E-01 -0.96844456039E-01  0.76410263600E-01  0.12843604027E+00  0.20939457916E-01 0.  0.
         14    1    1    2    0    0  0.27586834973E-02 -0.13053508828E-01  0.18933808643E-01  0.23162330131E-01  0.00000000000E+00 0.  1.
     999901    1    3    3    0    0  0.26223698977E-01  0.10989796487E+00 -0.95344072243E-01  0.89233162960E+00  0.88000000000E+00 0.  1.
        -11    1    4    4    0    0 -0.21616933248E-01 -0.91709259885E-01  0.70397037607E-01  0.11761753346E+00  0.51100000000E-03 0. -1.
         11    1    4    4    0    0 -0.73654492263E-02 -0.51351961535E-02  0.60132259934E-02  0.10818506814E-01  0.51100000000E-03 0.  1.
</event>
<event>
 8    1  0.1132255E+005  0.1043930E+01  0.7957747E-01            NaN
         13   -1    0    0    0    0  0.00000000000E+00  0.00000000000E+00  0.74505805969E-08  0.10566000000E+00  0.10566000000E+00 0. -1.
     999900   -1    0    0    0    0 -0.00000000000E+00 -0.00000000000E+00 -0.74505805969E-08  0.93827000000E+00  0.93827000000E+00 0.  1.
     999902    2    1    2    0    0 -0.20497229453E-01 -0.57005778892E-02 -0.11278620079E-01  0.10198501272E+01  0.10195658104E+01 0.  0.
     999903    2    3    3    0    0  0.94315190433E-01 -0.26678264226E-02  0.82990058605E-01  0.12739414894E+00  0.20962989104E-01 0.  0.
         14    1    1    2    0    0  0.20497229453E-01  0.57005778892E-02  0.11278620079E-01  0.24079872807E-01  0.00000000000E+00 0.  1.
     999901    1    3    3    0    0 -0.11481241989E+00 -0.30327514665E-02 -0.94268678684E-01  0.89245597825E+00  0.88000000000E+00 0.  1.
        -11    1    4    4    0    0  0.14958112812E-01  0.57874166539E-02  0.20489811997E-01  0.26025619053E-01  0.51100000000E-03 0.  1.
         11    1    4    4    0    0  0.79357077621E-01 -0.84552430766E-02  0.62500246608E-01  0.10136852989E+00  0.51100000000E-03 0. -1.
</event>
<event>
 8    1  0.1132255E+005  0.1043930E+01  0.7957747E-01            NaN
         13   -1    0    0    0    0  0.00000000000E+00  0.00000000000E+00  0.74505805969E-08  0.10566000000E+00  0.10566000000E+00 0. -1.
     999900   -1    0    0    0    0 -0.00000000000E+00 -0.00000000000E+00 -0.74505805969E-08  0.93827000000E+00  0.93827000000E+00 0. -1.
     999902    2    1    2    0    0 -0.27621603721E-02 -0.34180498519E-02  0.26134038127E-01  0.10174290464E+01  0.10170838529E+01 0.  0.
     999903    2    3    3    0    0 -0.90249094063E-01 -0.20466926989E-01  0.89994117766E-01  0.13062425525E+00  0.19999018650E-01 0.  0.
         14    1    1    2    0    0  0.27621603721E-02  0.34180498519E-02 -0.26134038127E-01  0.26500953635E-01  0.00000000000E+00 0.  1.
     999901    1    3    3    0    0  0.87486933691E-01  0.17048877137E-01 -0.63860079639E-01  0.88680479112E+00  0.88000000000E+00 0. -1.
        -11    1    4    4    0    0 -0.25117189583E-01 -0.14275180901E-01  0.22488771314E-01  0.36615023672E-01  0.51100000000E-03 0.  1.
         11    1    4    4    0    0 -0.65131904480E-01 -0.61917460879E-02  0.67505346452E-01  0.94009231576E-01  0.51100000000E-03 0. -1.
</event>
<event>
 8    1  0.1132255E+005  0.1043930E+01  0.7957747E-01            NaN
         13   -1    0    0    0    0  0.00000000000E+00  0.00000000000E+00  0.74505805969E-08  0.10566000000E+00  0.10566000000E+00 0.  1.
     999900   -1    0    0    0    0 -0.00000000000E+00 -0.00000000000E+00 -0.74505805969E-08  0.93827000000E+00  0.93827000000E+00 0. -1.
     999902    2    1    2    0    0 -0.75904046835E-02  0.91272876232E-02 -0.20419706406E-01  0.10203103888E+01  0.10200369618E+01 0.  0.
     999903    2    3    3    0    0  0.96184425691E-01  0.50032928673E-02 -0.87672718857E-01  0.13165455531E+00  0.19233814392E-01 0.  0.
         14    1    1    2    0    0  0.75904046835E-02 -0.91272876232E-02  0.20419706406E-01  0.23619611181E-01  0.00000000000E+00 0.  1.
     999901    1    3    3    0    0 -0.10377483037E+00  0.41239947559E-02  0.67253012451E-01  0.88865583351E+00  0.88000000000E+00 0.  1.
        -11    1    4    4    0    0  0.23336783544E-01  0.27639968598E-02 -0.11283382884E-01  0.26073377133E-01  0.51100000000E-03 0.  1.
         11    1    4    4    0    0  0.72847642147E-01  0.22392960075E-02 -0.76389335974E-01  0.10558117817E+00  0.51100000000E-03 0. -1.
</event>
<event>
 8    1  0.1132255E+005  0.1043930E+01  0.7957747E-01            NaN
         13   -1    0    0    0    0  0.00000000000E+00  0.00000000000E+00  0.74505805969E-08  0.10566000000E+00  0.10566000000E+00 0.  1.
     999900   -1    0    0    0    0 -0.00000000000E+00 -0.00000000000E+00 -0.74505805969E-08  0.93827000000E+00  0.93827000000E+00 0.  1.
     999902    2    1    2    0    0  0.15003654360E-01 -0.14361265438E-01  0.10419023953E-01  0.10206940010E+01  0.10204294841E+01 0.  0.
     999903    2    3    3    0    0  0.60853247797E-01  0.52644784560E-01  0.10289644463E+00  0.13213107735E+00  0.19908595510E-01 0.  0.
         14    1    1    2    0    0 -0.15003654360E-01  0.14361265438E-01 -0.10419023953E-01  0.23235998994E-01  0.00000000000E+00 0. -1.
     999901    1    3    3    0    0 -0.45849593437E-01 -0.67006049999E-01 -0.92477420681E-01  0.88856292365E+00  0.88000000000E+00 0.  1.
        -11    1    4    4    0    0  0.39244036853E-01  0.21206831028E-01  0.51778492061E-01  0.68345427585E-01  0.51100000000E-03 0. -1.
         11    1    4    4    0    0  0.21609210944E-01  0.31437953533E-01  0.51117952573E-01  0.63785649767E-01  0.51100000000E-03 0.  1.
</event>
<event>
 8    1  0.1132255E+005  0.1043930E+01  0.7957747E-01            NaN
         13   -1    0    0    0    0  0.00000000000E+00  0.00000000000E+00  0.74505805969E-08  0.10566000000E+00  0.10566000000E+00 0. -1.
     999900   -1    0    0    0    0 -0.00000000000E+00 -0.00000000000E+00 -0.74505805969E-08  0.93827000000E+00  0.93827000000E+00 0. -1.
     999902    2    1    2    0    0 -0.53070506798E-02 -0.20698938306E-01 -0.10118629359E-01  0.10202868722E+01  0.10200128940E+01 0.  0.
     999903    2    3    3    0    0  0.92417478300E-02 -0.55252623376E-01  0.11623831106E+00  0.13047132887E+00  0.19317360237E-01 0.  0.
         14    1    1    2    0    0  0.53070506798E-02  0.20698938306E-01  0.10118629359E-01  0.23643127839E-01  0.00000000000E+00 0. -1.
     999901    1    3    3    0    0 -0.14548798510E-01  0.34553685070E-01 -0.12635694042E+00  0.88981554329E+00  0.88000000000E+00 0. -1.
        -11    1    4    4    0    0  0.14692431003E-01 -0.31736196845E-01  0.64373241139E-01  0.73261374644E-01  0.51100000000E-03 0.  1.
         11    1    4    4    0    0 -0.54506831726E-02 -0.23516426532E-01  0.51865069919E-01  0.57209954226E-01  0.51100000000E-03 0. -1.
</event>
<event>
 8    1  0.1132255E+005  0.1043930E+01  0.7957747E-01            NaN
         13   -1    0    0    0    0  0.00000000000E+00  0.00000000000E+00  0.74505805969E-08  0.10566000000E+00  0.10566000000E+00 0. -1.
     999900   -1    0    0    0    0 -0.00000000000E+00 -0.00000000000E+00 -0.74505805969E-08  0.93827000000E+00  0.93827000000E+00 0. -1.
     999902    2    1    2    0    0 -0.13730535436E-01  0.14455875666E-01 -0.13086160076E-01  0.10200815717E+01  0.10198027581E+01 0.  0.
     999903    2    3    3    0    0  0.10603631148E+00 -0.66544220026E-01  0.10739878153E-01  0.12796454286E+00  0.24243487289E-01 0.  0.
         14    1    1    2    0    0  0.13730535436E-01 -0.14455875666E-01  0.13086160076E-01  0.23848428254E-01  0.00000000000E+00 0. -1.
     999901    1    3    3    0    0 -0.11976684692E+00  0.81000095692E-01 -0.23826038228E-01  0.89211702888E+00  0.88000000000E+00 0. -1.
        -11    1    4    4    0    0  0.47847861456E-01 -0.26551004068E-01 -0.69787069516E-02  0.55166449357E-01  0.51100000000E-03 0. -1.
         11    1    4    4    0    0  0.58188450027E-01 -0.39993215958E-01  0.17718585104E-01  0.72798093508E-01  0.51100000000E-03 0.  1.
</event>
<event>
 8    1  0.1132255E+005  0.1043930E+01  0.7957747E-01            NaN
         13   -1    0    0    0    0  0.00000000000E+00  0.00000000000E+00  0.74505805969E-08  0.10566000000E+00  0.10566000000E+00 0.  1.
     999900   -1    0    0    0    0 -0.00000000000E+00 -0.00000000000E+00 -0.74505805969E-08  0.93827000000E+00  0.93827000000E+00 0.  1.
     999902    2    1    2    0    0 -0.12134669656E-01 -0.34278510428E-02 -0.18568183702E-01  0.10214850046E+01  0.10212383840E+01 0.  0.
     999903    2    3    3    0    0 -0.85954186018E-01  0.74383077144E-01 -0.67176887475E-01  0.13364117400E+00  0.20646184073E-01 0.  0.
         14    1    1    2    0    0  0.12134669656E-01  0.34278510428E-02  0.18568183702E-01  0.22444995354E-01  0.00000000000E+00 0.  1.
     999901    1    3    3    0    0  0.73819516362E-01 -0.77810928187E-01  0.48608703773E-01  0.88784383065E+00  0.88000000000E+00 0. -1.
        -11    1    4    4    0    0 -0.72363705074E-01  0.54501748633E-01 -0.46171476858E-01  0.10168093633E+00  0.51100000000E-03 0. -1.
         11    1    4    4    0    0 -0.13590480943E-01  0.19881328511E-01 -0.21005410617E-01  0.31960237669E-01  0.51100000000E-03 0.  1.
</event>
<event>
 8    1  0.1132255E+005  0.1043930E+01  0.7957747E-01            NaN
         13   -1    0    0    0    0  0.00000000000E+00  0.00000000000E+00  0.74505805969E-08  0.10566000000E+00  0.10566000000E+00 0. -1.
     999900   -1    0    0    0    0 -0.00000000000E+00 -0.00000000000E+00 -0.74505805969E-08  0.93827000000E+00  0.93827000000E+00 0.  1.
     999902    2    1    2    0    0  0.20983838287E-01 -0.97063261775E-02  0.49545082902E-02  0.10202850980E+01  0.10200110783E+01 0.  0.
     999903    2    3    3    0    0 -0.90850170508E-01  0.63853448151E-01 -0.61540847271E-01  0.12768243265E+00  0.13583497424E-01 0.  0.
         14    1    1    2    0    0 -0.20983838287E-01  0.97063261775E-02 -0.49545082902E-02  0.23644901977E-01  0.00000000000E+00 0.  1.
     999901    1    3    3    0    0  0.11183400879E+00 -0.73559774328E-01  0.66495355561E-01  0.89260266537E+00  0.88000000000E+00 0. -1.
        -11    1    4    4    0    0 -0.54011932541E-01  0.41617749454E-01 -0.30937540132E-01  0.74878023725E-01  0.51100000000E-03 0. -1.
         11    1    4    4    0    0 -0.36838237966E-01  0.22235698696E-01 -0.30603307139E-01  0.52804408924E-01  0.51100000000E-03 0.  1.
</event>
<event>
 8    1  0.1132255E+005  0.1043930E+01  0.7957747E-01            NaN
         13   -1    0    0    0    0  0.00000000000E+00  0.00000000000E+00  0.74505805969E-08  0.10566000000E+00  0.10566000000E+00 0. -1.
     999900   -1    0    0    0    0 -0.00000000000E+00 -0.00000000000E+00 -0.74505805969E-08  0.93827000000E+00  0.93827000000E+00 0.  1.
     999902    2    1    2    0    0 -0.97151006813E-03 -0.22110766790E-01  0.69887437557E-02  0.10207206834E+01  0.10204567806E+01 0.  0.
     999903    2    3    3    0    0 -0.18716971464E-01 -0.48111069905E-01  0.12075630777E+00  0.13283894811E+00  0.19977492340E-01 0.  0.
         14    1    1    2    0    0  0.97151006813E-03  0.22110766790E-01 -0.69887437557E-02  0.23209316645E-01  0.00000000000E+00 0.  1.
     999901    1    3    3    0    0  0.17745461395E-01  0.26000303115E-01 -0.11376756401E+00  0.88788173525E+00  0.88000000000E+00 0.  1.
        -11    1    4    4    0    0 -0.10695744295E-01 -0.89846154777E-02  0.19529027625E-01  0.24015959325E-01  0.51100000000E-03 0.  1.
         11    1    4    4    0    0 -0.80212271688E-02 -0.39126454427E-01  0.10122728014E+00  0.10882298878E+00  0.51100000000E-03 0. -1.
</event>
<event>
 8    1  0.1132255E+005  0.1043930E+01  0.7957747E-01            NaN
         13   -1    0    0    0    0  0.00000000000E+00  0.00000000000E+00  0.74505805969E-08  0.10566000000E+00  0.10566000000E+00 0. -1.
     999900   -1    0    0    0    0 -0.00000000000E+00 -0.00000000000E+00 -0.74505805969E-08  0.93827000000E+00  0.93827000000E+00 0.  1.
     999902    2    1    2    0    0 -0.58408782557E-02 -0.38523238081E-02  0.24026945583E-01  0.10189050051E+01  0.10185976433E+01 0.  0.
     999903    2    3    3    0    0 -0.48554059910E-01  0.92320392356E-01 -0.71695664641E-01  0.12748118592E+00  0.15186601260E-01 0.  0.
         14    1    1    2    0    0  0.58408782557E-02  0.38523238081E-02 -0.24026945583E-01  0.25024994936E-01  0.00000000000E+00 0.  1.
     999901    1    3    3    0    0  0.42713181654E-01 -0.96172716164E-01  0.95722610224E-01  0.89142381914E+00  0.88000000000E+00 0. -1.
        -11    1    4    4    0    0 -0.48502316870E-01  0.90249601591E-01 -0.67270485463E-01  0.12256853048E+00  0.51100000000E-03 0.  1.
         11    1    4    4    0    0 -0.51743039586E-04  0.20707907651E-02 -0.44251791783E-02  0.49126554423E-02  0.51100000000E-03 0. -1.
</event>
<event>
 8    1  0.1132255E+005  0.1043930E+01  0.7957747E-01            NaN
         13   -1    0    0    0    0  0.00000000000E+00  0.00000000000E+00  0.74505805969E-08  0.10566000000E+00  0.10566000000E+00 0.  1.
     999900   -1    0    0    0    0 -0.00000000000E+00 -0.00000000000E+00 -0.74505805969E-08  0.93827000000E+00  0.93827000000E+00 0. -1.
     999902    2    1    2    0    0  0.14471784318E-01  0.49321839024E-02 -0.18023455773E-01  0.10202951965E+01  0.10200214135E+01 0.  0.
     999903    2    3    3    0    0 -0.95096652356E-01 -0.19615297935E-01 -0.85127882376E-01  0.13062625510E+00  0.19706064097E-01 0.  0.
         14    1    1    2    0    0 -0.14471784318E-01 -0.49321839024E-02  0.18023455773E-01  0.23634803520E-01  0.00000000000E+00 0.  1.
     999901    1    3    3    0    0  0.10956843667E+00  0.24547481838E-01  0.67104426603E-01  0.88966894138E+00  0.88000000000E+00 0.  1.
        -11    1    4    4    0    0 -0.44440042274E-01 -0.26093567302E-02 -0.29018187982E-01  0.53141720471E-01  0.51100000000E-03 0.  1.
         11    1    4    4    0    0 -0.50656610082E-01 -0.17005941205E-01 -0.56109694394E-01  0.77484534633E-01  0.51100000000E-03 0. -1.
</event>
<event>
 8    1  0.1132255E+005  0.1043930E+01  0.7957747E-01            NaN
         13   -1    0    0    0    0  0.00000000000E+00  0.00000000000E+00  0.74505805969E-08  0.10566000000E+00  0.10566000000E+00 0.  1.
     999900   -1    0    0    0    0 -0.00000000000E+00 -0.00000000000E+00 -0.74505805969E-08  0.93827000000E+00  0.93827000000E+00 0.  1.
     999902    2    1    2    0    0 -0.20372579852E-01 -0.34873339244E-02 -0.62986508305E-02  0.10223226746E+01  0.10220943080E+01 0.  0.
     999903    2    3    3    0    0  0.43900973886E-01 -0.12143816041E+00 -0.18746810689E-01  0.13204269402E+00  0.20231357391E-01 0.  0.
         14    1    1    2    0    0  0.20372579852E-01  0.34873339244E-02  0.62986508305E-02  0.21607325379E-01  0.00000000000E+00 0.  1.
     999901    1    3    3    0    0 -0.64273553738E-01  0.11795082648E+00  0.12448159858E-01  0.89027998060E+00  0.88000000000E+00 0. -1.
        -11    1    4    4    0    0  0.24685276917E-01 -0.83707659752E-01 -0.20548019379E-01  0.89659452480E-01  0.51100000000E-03 0. -1.
         11    1    4    4    0    0  0.19215696968E-01 -0.37730500654E-01  0.18012086905E-02  0.42383241539E-01  0.51100000000E-03 0.  1.
</event>
<event>
 8    1  0.1132255E+005  0.1043930E+01  0.7957747E-01            NaN
         13   -1    0    0    0    0  0.00000000000E+00  0.00000000000E+00  0.74505805969E-08  0.10566000000E+00  0.10566000000E+00 0.  1.
     999900   -1    0    0    0    0 -0.00000000000E+00 -0.00000000000E+00 -0.74505805969E-08  0.93827000000E+00  0.93827000000E+00 0.  1.
     999902    2    1    2    0    0  0.97034057744E-02  0.16744124856E-01  0.13694121965E-01  0.10202223899E+01  0.10199468977E+01 0.  0.
     999903    2    3    3    0    0  0.94985362247E-02  0.89032144795E-01  0.96268778567E-01  0.13340551267E+00  0.22636432758E-01 0.  0.
         14    1    1    2    0    0 -0.97034057744E-02 -0.16744124856E-01 -0.13694121965E-01  0.23707610111E-01  0.00000000000E+00 0.  1.
     999901    1    3    3    0    0  0.20486954969E-03 -0.72288019939E-01 -0.82574656603E-01  0.88681687721E+00  0.88000000000E+00 0.  1.
        -11    1    4    4    0    0  0.58246861453E-02  0.68639488324E-01  0.58732186569E-01  0.90526444679E-01  0.51100000000E-03 0.  1.
         11    1    4    4    0    0  0.36738500794E-02  0.20392656471E-01  0.37536591998E-01  0.42879067996E-01  0.51100000000E-03 0. -1.
</event>
<event>
 7    1  0.1132255E+005  0.1043930E+01  0.7957747E-01            NaN
         13   -1    0    0    0    0  0.00000000000E+00  0.00000000000E+00  0.74505805969E-08  0.10566000000E+00  0.10566000000E+00 0. -1.
     999900   -1    0    0    0    0 -0.00000000000E+00 -0.00000000000E+00 -0.74505805969E-08  0.93827000000E+00  0.93827000000E+00 0.  1.
     999903    2    1    2    0    0 -0.28545111174E-01 -0.14949065983E-01  0.10344371898E+00  0.10878742380E+00  0.97878820340E-02 0.  0.
         14    1    1    2    0    0 -0.24542883931E-01 -0.24509591887E-01  0.25823614368E-01  0.43242713897E-01  0.00000000000E+00 0. -1.
     999901    1    1    2    0    0  0.53087995105E-01  0.39458657870E-01 -0.12926733335E+00  0.89189986230E+00  0.88000000000E+00 0.  1.
        -11    1    3    3    0    0 -0.16728362774E-01 -0.11285508471E-01  0.76776830562E-01  0.79386041939E-01  0.51100000000E-03 0. -1.
         11    1    3    3    0    0 -0.11816748401E-01 -0.36635575116E-02  0.26666888419E-01  0.29401381861E-01  0.51100000000E-03 0.  1.
</event>
<event>
 8    1  0.1132255E+005  0.1043930E+01  0.7957747E-01            NaN
         13   -1    0    0    0    0  0.00000000000E+00  0.00000000000E+00  0.74505805969E-08  0.10566000000E+00  0.10566000000E+00 0. -1.
     999900   -1    0    0    0    0 -0.00000000000E+00 -0.00000000000E+00 -0.74505805969E-08  0.93827000000E+00  0.93827000000E+00 0. -1.
     999902    2    1    2    0    0  0.20720145355E-01  0.72321947825E-02 -0.93280299923E-02  0.10200838010E+01  0.10198050401E+01 0.  0.
     999903    2    3    3    0    0  0.98297877070E-01 -0.29585314467E-01  0.79721391568E-01  0.13143109438E+00  0.19515860915E-01 0.  0.
         14    1    1    2    0    0 -0.20720145355E-01 -0.72321947825E-02  0.93280299923E-02  0.23846199035E-01  0.00000000000E+00 0. -1.
     999901    1    3    3    0    0 -0.77577731715E-01  0.36817509249E-01 -0.89049421560E-01  0.88865270659E+00  0.88000000000E+00 0. -1.
        -11    1    4    4    0    0  0.45191230699E-01 -0.23223315701E-01  0.42819226154E-01  0.66447851535E-01  0.51100000000E-03 0.  1.
         11    1    4    4    0    0  0.53106646371E-01 -0.63619987652E-02  0.36902165414E-01  0.64983242842E-01  0.51100000000E-03 0. -1.
</event>
<event>
 8    1  0.1132255E+005  0.1043930E+01  0.7957747E-01            NaN
         13   -1    0    0    0    0  0.00000000000E+00  0.00000000000E+00  0.74505805969E-08  0.10566000000E+00  0.10566000000E+00 0. -1.
     999900   -1    0    0    0    0 -0.00000000000E+00 -0.00000000000E+00 -0.74505805969E-08  0.93827000000E+00  0.93827000000E+00 0. -1.
     999902    2    1    2    0    0 -0.12600972397E-01  0.11179562955E-01  0.16267889735E-01  0.10205118154E+01  0.10202430857E+01 0.  0.
     999903    2    3    3    0    0  0.36554620805E-01 -0.12212741431E+00 -0.31390021720E-02  0.12890447471E+00  0.18845812208E-01 0.  0.
         14    1    1    2    0    0  0.12600972397E-01 -0.11179562955E-01 -0.16267889735E-01  0.23418184593E-01  0.00000000000E+00 0.  1.
     999901    1    3    3    0    0 -0.49155593202E-01  0.13330697726E+00  0.19406891907E-01  0.89160734070E+00  0.88000000000E+00 0.  1.
        -11    1    4    4    0    0  0.34294092633E-01 -0.87678789990E-01 -0.54074939897E-02  0.94303537134E-01  0.51100000000E-03 0.  1.
         11    1    4    4    0    0  0.22605281719E-02 -0.34448624319E-01  0.22684918176E-02  0.34600937577E-01  0.51100000000E-03 0. -1.
</event>
<event>
 8    1  0.1132255E+005  0.1043930E+01  0.7957747E-01            NaN
         13   -1    0    0    0    0  0.00000000000E+00  0.00000000000E+00  0.74505805969E-08  0.10566000000E+00  0.10566000000E+00 0. -1.
     999900   -1    0    0    0    0 -0.00000000000E+00 -0.00000000000E+00 -0.74505805969E-08  0.93827000000E+00  0.93827000000E+00 0.  1.
     999902    2    1    2    0    0  0.15509466387E-01  0.13364034233E-01 -0.16572087147E-02  0.10233901047E+01  0.10231839615E+01 0.  0.
     999903    2    3    3    0    0 -0.52465434632E-01  0.52129043222E-01 -0.11034162080E+00  0.13325774682E+00  0.10596925515E-01 0.  0.
         14    1    1    2    0    0 -0.15509466387E-01 -0.13364034233E-01  0.16572087147E-02  0.20539895309E-01  0.00000000000E+00 0. -1.
     999901    1    3    3    0    0  0.67974901019E-01 -0.38765008989E-01  0.10868441208E+00  0.89013235787E+00  0.88000000000E+00 0. -1.
        -11    1    4    4    0    0 -0.92951452774E-02  0.11234166085E-01 -0.15269627838E-01  0.21119395556E-01  0.51100000000E-03 0. -1.
         11    1    4    4    0    0 -0.43170289354E-01  0.40894877136E-01 -0.95071992959E-01  0.11213835127E+00  0.51100000000E-03 0.  1.
</event>
<event>
 8    1  0.1132255E+005  0.1043930E+01  0.7957747E-01            NaN
         13   -1    0    0    0    0  0.00000000000E+00  0.00000000000E+00  0.74505805969E-08  0.10566000000E+00  0.10566000000E+00 0. -1.
     999900   -1    0    0    0    0 -0.00000000000E+00 -0.00000000000E+00 -0.74505805969E-08  0.93827000000E+00  0.93827000000E+00 0.  1.
     999902    2    1    2    0    0 -0.17266812256E-01  0.71156441980E-02  0.61605896345E-02  0.10242645973E+01  0.10240757966E+01 0.  0.
     999903    2    3    3    0    0  0.39691500112E-01  0.98539665380E-01 -0.78522748707E-01  0.13366150459E+00  0.20349322089E-01 0.  0.
         14    1    1    2    0    0  0.17266812256E-01 -0.71156441980E-02 -0.61605896345E-02  0.19665402678E-01  0.00000000000E+00 0.  1.
     999901    1    3    3    0    0 -0.56958312369E-01 -0.91424021182E-01  0.84683338341E-01  0.89060309274E+00  0.88000000000E+00 0. -1.
        -11    1    4    4    0    0  0.41922823087E-02  0.13372071779E-01 -0.28069692322E-02  0.14301319236E-01  0.51100000000E-03 0. -1.
         11    1    4    4    0    0  0.35499217803E-01  0.85167593601E-01 -0.75715779475E-01  0.11936018535E+00  0.51100000000E-03 0.  1.
</event>
<event>
 8    1  0.1132255E+005  0.1043930E+01  0.7957747E-01            NaN
         13   -1    0    0    0    0  0.00000000000E+00  0.00000000000E+00  0.74505805969E-08  0.10566000000E+00  0.10566000000E+00 0.  1.
     999900   -1    0    0    0    0 -0.00000000000E+00 -0.00000000000E+00 -0.74505805969E-08  0.93827000000E+00  0.93827000000E+00 0.  1.
     999902    2    1    2    0    0 -0.50870930894E-02 -0.17139539361E-01 -0.18232628406E-01  0.10183943178E+01  0.10180741208E+01 0.  0.
     999903    2    3    3    0    0  0.21652997558E-01 -0.11866775259E+00  0.44673390824E-01  0.12992362175E+00  0.18263291955E-01 0.  0.
         14    1    1    2    0    0  0.50870930894E-02  0.17139539361E-01  0.18232628406E-01  0.25535682176E-01  0.00000000000E+00 0.  1.
     999901    1    3    3    0    0 -0.26740090648E-01  0.10152821323E+00 -0.62906019230E-01  0.88847069608E+00  0.88000000000E+00 0.  1.
        -11    1    4    4    0    0  0.34564379583E-02 -0.31680344160E-02  0.38108475842E-02  0.60635868700E-02  0.51100000000E-03 0.  1.
         11    1    4    4    0    0  0.18196559600E-01 -0.11549971817E+00  0.40862543239E-01  0.12386003488E+00  0.51100000000E-03 0. -1.
</event>
<event>
 8    1  0.1132255E+005  0.1043930E+01  0.7957747E-01            NaN
         13   -1    0    0    0    0  0.00000000000E+00  0.00000000000E+00  0.74505805969E-08  0.10566000000E+00  0.10566000000E+00 0. -1.
     999900   -1    0    0    0    0 -0.00000000000E+00 -0.00000000000E+00 -0.74505805969E-08  0.93827000000E+00  0.93827000000E+00 0. -1.
     999902    2    1    2    0    0  0.24557526502E-01 -0.27586910389E-02  0.61471330351E-02  0.10184649312E+01  0.10181465250E+01 0.  0.
     999903    2    3    3    0    0 -0.12407760261E+00 -0.84600565885E-02 -0.54049993370E-02  0.12590772915E+00  0.18886985351E-01 0.  0.
         14    1    1    2    0    0 -0.24557526502E-01  0.27586910389E-02 -0.61471330351E-02  0.25465068794E-01  0.00000000000E+00 0.  1.
     999901    1    3    3    0    0  0.14863512911E+00  0.57013655496E-02  0.11552132372E-01  0.89255720205E+00  0.88000000000E+00 0.  1.
        -11    1    4    4    0    0 -0.71315402803E-01  0.43913778972E-02 -0.16603126001E-02  0.71471593208E-01  0.51100000000E-03 0. -1.
         11    1    4    4    0    0 -0.52762199807E-01 -0.12851434486E-01 -0.37446867369E-02  0.54436135945E-01  0.51100000000E-03 0.  1.
</event>
<event>
 8    1  0.1132255E+005  0.1043930E+01  0.7957747E-01            NaN
         13   -1    0    0    0    0  0.00000000000E+00  0.00000000000E+00  0.74505805969E-08  0.10566000000E+00  0.10566000000E+00 0. -1.
     999900   -1    0    0    0    0 -0.00000000000E+00 -0.00000000000E+00 -0.74505805969E-08  0.93827000000E+00  0.93827000000E+00 0. -1.
     999902    2    1    2    0    0 -0.32188351302E-03 -0.11983765500E-01 -0.19724296618E-01  0.10208483596E+01  0.10205873854E+01 0.  0.
     999903    2    3    3    0    0 -0.60876818008E-01 -0.63546411037E-01  0.93695255049E-01  0.13001189810E+00  0.19497679434E-01 0.  0.
         14    1    1    2    0    0  0.32188351302E-03  0.11983765500E-01  0.19724296618E-01  0.23081640358E-01  0.00000000000E+00 0. -1.
     999901    1    3    3    0    0  0.60554934495E-01  0.51562645537E-01 -0.11341955167E+00  0.89083646154E+00  0.88000000000E+00 0. -1.
        -11    1    4    4    0    0 -0.41966575990E-01 -0.39069628683E-01  0.72849317409E-01  0.92708756618E-01  0.51100000000E-03 0. -1.
         11    1    4    4    0    0 -0.18910242018E-01 -0.24476782353E-01  0.20845937640E-01  0.37303141485E-01  0.51100000000E-03 0.  1.
</event>
<event>
 8    1  0.1132255E+005  0.1043930E+01  0.7957747E-01            NaN
         13   -1    0    0    0    0  0.00000000000E+00  0.00000000000E+00  0.74505805969E-08  0.10566000000E+00  0.10566000000E+00 0.  1.
     999900   -1    0    0    0    0 -0.00000000000E+00 -0.00000000000E+00 -0.74505805969E-08  0.93827000000E+00  0.93827000000E+00 0.  1.
     999902    2    1    2    0    0 -0.10203642138E-01 -0.12962889385E-01 -0.19475186563E-01  0.10184068006E+01  0.10180869206E+01 0.  0.
     999903    2    3    3    0    0  0.24178542391E-01  0.67979954419E-01 -0.10603918051E+00  0.12979709800E+00  0.19927436607E-01 0.  0.
         14    1    1    2    0    0  0.10203642138E-01  0.12962889385E-01  0.19475186563E-01  0.25523199363E-01  0.00000000000E+00 0.  1.
     999901    1    3    3    0    0 -0.34382184529E-01 -0.80942843804E-01  0.86563993951E-01  0.88860970264E+00  0.88000000000E+00 0. -1.
        -11    1    4    4    0    0  0.16415403965E-01  0.51424020724E-01 -0.92269687539E-01  0.10690113074E+00  0.51100000000E-03 0. -1.
         11    1    4    4    0    0  0.77631384254E-02  0.16555933694E-01 -0.13769492974E-01  0.22895967253E-01  0.51100000000E-03 0.  1.
</event>
<event>
 8    1  0.1132255E+005  0.1043930E+01  0.7957747E-01            NaN
         13   -1    0    0    0    0  0.00000000000E+00  0.00000000000E+00  0.74505805969E-08  0.10566000000E+00  0.10566000000E+00 0. -1.
     999900   -1    0    0    0    0 -0.00000000000E+00 -0.00000000000E+00 -0.74505805969E-08  0.93827000000E+00  0.93827000000E+00 0. -1.
     999902    2    1    2    0    0  0.83198239302E-02 -0.17677006764E-01 -0.16191195036E-01  0.10185557841E+01  0.10182396743E+01 0.  0.
     999903    2    3    3    0    0  0.67904611838E-01  0.78460371682E-01  0.71154088342E-01  0.12702791516E+00  0.17496305561E-01 0.  0.
         14    1    1    2    0    0 -0.83198239302E-02  0.17677006764E-01  0.16191195036E-01  0.25374215950E-01  0.00000000000E+00 0. -1.
     999901    1    3    3    0    0 -0.59584787907E-01 -0.96137378445E-01 -0.87345283378E-01  0.89152786889E+00  0.88000000000E+00 0. -1.
        -11    1    4    4    0    0  0.29684484029E-01  0.36957269118E-01  0.42860180097E-01  0.63908250576E-01  0.51100000000E-03 0. -1.
         11    1    4    4    0    0  0.38220127809E-01  0.41503102564E-01  0.28293908245E-01  0.63119664582E-01  0.51100000000E-03 0.  1.
</event>
<event>
 8    1  0.1132255E+005  0.1043930E+01  0.7957747E-01            NaN
         13   -1    0    0    0    0  0.00000000000E+00  0.00000000000E+00  0.74505805969E-08  0.10566000000E+00  0.10566000000E+00 0.  1.
     999900   -1    0    0    0    0 -0.00000000000E+00 -0.00000000000E+00 -0.74505805969E-08  0.93827000000E+00  0.93827000000E+00 0. -1.
     999902    2    1    2    0    0 -0.22484205591E-01 -0.76422916752E-02  0.19277492850E-02  0.10201043764E+01  0.10198261020E+01 0.  0.
     999903    2    3    3    0    0 -0.71997233652E-01 -0.92816368665E-01 -0.58188468853E-01  0.13256839232E+00  0.19748437629E-01 0.  0.
         14    1    1    2    0    0  0.22484205591E-01  0.76422916752E-02 -0.19277492850E-02  0.23825623610E-01  0.00000000000E+00 0. -1.
     999901    1    3    3    0    0  0.49513028061E-01  0.85174076990E-01  0.60116218138E-01  0.88753598407E+00  0.88000000000E+00 0.  1.
        -11    1    4    4    0    0 -0.48977344164E-01 -0.76062321191E-01 -0.47247987573E-01  0.10206316866E+00  0.51100000000E-03 0.  1.
         11    1    4    4    0    0 -0.23019889488E-01 -0.16754047474E-01 -0.10940481281E-01  0.30505223659E-01  0.51100000000E-03 0. -1.
</event>
<event>
 8    1  0.1132255E+005  0.1043930E+01  0.7957747E-01            NaN
         13   -1    0    0    0    0  0.00000000000E+00  0.00000000000E+00  0.74505805969E-08  0.10566000000E+00  0.10566000000E+00 0.  1.
     999900   -1    0    0    0    0 -0.00000000000E+00 -0.00000000000E+00 -0.74505805969E-08  0.93827000000E+00  0.93827000000E+00 0.  1.
     999902    2    1    2    0    0 -0.20316725027E-01 -0.99483512946E-02  0.21393481167E-02  0.10212074161E+01  0.10209545880E+01 0.  0.
     999903    2    3    3    0    0 -0.12041507446E+00  0.38700500173E-01  0.37624858478E-01  0.13348808445E+00  0.20147452536E-01 0.  0.
         14    1    1    2    0    0  0.20316725027E-01  0.99483512946E-02 -0.21393481167E-02  0.22722583913E-01  0.00000000000E+00 0. -1.
     999901    1    3    3    0    0  0.10009834944E+00 -0.48648851468E-01 -0.35485510362E-01  0.88771933163E+00  0.88000000000E+00 0. -1.
        -11    1    4    4    0    0 -0.10248960877E+00  0.27218457939E-01  0.25822161497E-01  0.10914215273E+00  0.51100000000E-03 0.  1.
         11    1    4    4    0    0 -0.17925465698E-01  0.11482042234E-01  0.11802696981E-01  0.24345931721E-01  0.51100000000E-03 0. -1.
</event>
<event>
 8    1  0.1132255E+005  0.1043930E+01  0.7957747E-01            NaN
         13   -1    0    0    0    0  0.00000000000E+00  0.00000000000E+00  0.74505805969E-08  0.10566000000E+00  0.10566000000E+00 0.  1.
     999900   -1    0    0    0    0 -0.00000000000E+00 -0.00000000000E+00 -0.74505805969E-08  0.93827000000E+00  0.93827000000E+00 0. -1.
     999902    2    1    2    0    0  0.15690325656E-01  0.19664513952E-01  0.49691179722E-02  0.10182868418E+01  0.10179639093E+01 0.  0.
     999903    2    3    3    0    0  0.46596544726E-01  0.50316518821E-02 -0.11816566027E+00  0.12905600079E+00  0.22265950945E-01 0.  0.
         14    1    1    2    0    0 -0.15690325656E-01 -0.19664513952E-01 -0.49691179722E-02  0.25643158183E-01  0.00000000000E+00 0.  1.
     999901    1    3    3    0    0 -0.30906219069E-01  0.14632862070E-01  0.12313477824E+00  0.88923084103E+00  0.88000000000E+00 0.  1.
        -11    1    4    4    0    0  0.25701432559E-01 -0.30713738939E-02 -0.86267920894E-01  0.90068930656E-01  0.51100000000E-03 0. -1.
         11    1    4    4    0    0  0.20895112167E-01  0.81030257759E-02 -0.31897739372E-01  0.38987070129E-01  0.51100000000E-03 0.  1.
</event>
<event>
 8    1  0.1132255E+005  0.1043930E+01  0.7957747E-01            NaN
         13   -1    0    0    0    0  0.00000000000E+00  0.00000000000E+00  0.74505805969E-08  0.10566000000E+00  0.10566000000E+00 0.  1.
     999900   -1    0    0    0    0 -0.00000000000E+00 -0.00000000000E+00 -0.74505805969E-08  0.93827000000E+00  0.93827000000E+00 0. -1.
     999902    2    1    2    0    0  0.21100709151E-01 -0.90649207310E-02 -0.78184556988E-02  0.10196701368E+01  0.10193815021E+01 0.  0.
     999903    2    3    3    0    0 -0.12389642977E+00  0.19817569444E-01  0.56859526879E-02  0.12723485195E+00  0.20330177675E-01 0.  0.
         14    1    1    2    0    0 -0.21100709151E-01  0.90649207310E-02  0.78184556988E-02  0.24259863232E-01  0.00000000000E+00 0.  1.
     999901    1    3    3    0    0  0.14499713892E+00 -0.28882490175E-01 -0.13504408387E-01  0.89243528481E+00  0.88000000000E+00 0. -1.
        -11    1    4    4    0    0 -0.35024252502E-01 -0.34213920541E-02  0.31945300699E-02  0.35339359506E-01  0.51100000000E-03 0. -1.
         11    1    4    4    0    0 -0.88872177272E-01  0.23238961498E-01  0.24914226180E-02  0.91895492448E-01  0.51100000000E-03 0.  1.
</event>
<event>
 8    1  0.1132255E+005  0.1043930E+01  0.7957747E-01            NaN
         13   -1    0    0    0    0  0.00000000000E+00  0.00000000000E+00  0.74505805969E-08  0.10566000000E+00  0.10566000000E+00 0. -1.
     999900   -1    0    0    0    0 -0.00000000000E+00 -0.00000000000E+00 -0.74505805969E-08  0.93827000000E+00  0.93827000000E+00 0.  1.
     999902    2    1    2    0    0  0.19075280102E-01 -0.78264212808E-02 -0.13906474706E-01  0.10190601544E+01  0.10187566388E+01 0.  0.
     999903    2    3    3    0    0  0.49264069681E-01 -0.35384047619E-01  0.11227256242E+00  0.12912086704E+00  0.19700016430E-01 0.  0.
         14    1    1    2    0    0 -0.19075280102E-01  0.78264212808E-02  0.13906474706E-01  0.24869845592E-01  0.00000000000E+00 0. -1.
     999901    1    3    3    0    0 -0.30188789579E-01  0.27557626339E-01 -0.12617903712E+00  0.88993928736E+00  0.88000000000E+00 0.  1.
        -11    1    4    4    0    0  0.74306497544E-02 -0.15046638238E-01  0.23262848226E-01  0.28688623296E-01  0.51100000000E-03 0. -1.
         11    1    4    4    0    0  0.41833419926E-01 -0.20337409381E-01  0.89009714190E-01  0.10043224375E+00  0.51100000000E-03 0.  1.
</event>
<event>
 8    1  0.1132255E+005  0.1043930E+01  0.7957747E-01            NaN
         13   -1    0    0    0    0  0.00000000000E+00  0.00000000000E+00  0.74505805969E-08  0.10566000000E+00  0.10566000000E+00 0.  1.
     999900   -1    0    0    0    0 -0.00000000000E+00 -0.00000000000E+00 -0.74505805969E-08  0.93827000000E+00  0.93827000000E+00 0. -1.
     999902    2    1    2    0    0  0.58067598834E-02 -0.18931027729E-01 -0.13314732784E-01  0.10200682234E+01  0.10197890939E+01 0.  0.
     999903    2    3    3    0    0 -0.97854905489E-01 -0.71974522318E-01  0.43317021954E-01  0.13059281129E+00  0.20547593003E-01 0.  0.
         14    1    1    2    0    0 -0.58067598834E-02  0.18931027729E-01  0.13314732784E-01  0.23861776554E-01  0.00000000000E+00 0.  1.
     999901    1    3    3    0    0  0.10366166537E+00  0.53043494589E-01 -0.56631754739E-01  0.88947541216E+00  0.88000000000E+00 0. -1.
        -11    1    4    4    0    0 -0.17671232637E-02 -0.34392598065E-02 -0.17239257795E-02  0.42643022570E-02  0.51100000000E-03 0. -1.
         11    1    4    4    0    0 -0.96087782226E-01 -0.68535262512E-01  0.45040947734E-01  0.12632850903E+00  0.51100000000E-03 0.  1.
</event>
<event>
 8    1  0.1132255E+005  0.1043930E+01  0.7957747E-01            NaN
         13   -1    0    0    0    0  0.00000000000E+00  0.00000000000E+00  0.74505805969E-08  0.10566000000E+00  0.10566000000E+00 0.  1.
     999900   -1    0    0    0    0 -0.00000000000E+00 -0.00000000000E+00 -0.74505805969E-08  0.93827000000E+00  0.93827000000E+00 0. -1.
     999902    2    1    2    0    0  0.22728513019E-01  0.26038905789E-02 -0.12146528793E-02  0.10210205929E+01  0.10207635428E+01 0.  0.
     999903    2    3    3    0    0  0.96535738605E-01  0.42533150131E-01  0.78807589714E-01  0.13341402941E+00  0.21458083747E-01 0.  0.
         14    1    1    2    0    0 -0.22728513019E-01 -0.26038905789E-02  0.12146528793E-02  0.22909407060E-01  0.00000000000E+00 0.  1.
     999901    1    3    3    0    0 -0.73807225586E-01 -0.39929259552E-01 -0.80022242593E-01  0.88760656353E+00  0.88000000000E+00 0. -1.
        -11    1    4    4    0    0  0.61601656275E-01  0.16469314368E-01  0.41924407588E-01  0.76314608328E-01  0.51100000000E-03 0.  1.
         11    1    4    4    0    0  0.34934082330E-01  0.26063835762E-01  0.36883182126E-01  0.57099421079E-01  0.51100000000E-03 0. -1.
</event>
<event>
 8    1  0.1132255E+005  0.1043930E+01  0.7957747E-01            NaN
         13   -1    0    0    0    0  0.00000000000E+00  0.00000000000E+00  0.74505805969E-08  0.10566000000E+00  0.10566000000E+00 0. -1.
     999900   -1    0    0    0    0 -0.00000000000E+00 -0.00000000000E+00 -0.74505805969E-08  0.93827000000E+00  0.93827000000E+00 0.  1.
     999902    2    1    2    0    0 -0.10835779815E-01  0.11390524020E-01  0.17612912923E-01  0.10203212545E+01  0.10200480820E+01 0.  0.
     999903    2    3    3    0    0 -0.95195321225E-01  0.56965226362E-01  0.71447222190E-01  0.13347757124E+00  0.20108959863E-01 0.  0.
         14    1    1    2    0    0  0.10835779815E-01 -0.11390524020E-01 -0.17612912923E-01  0.23608745483E-01  0.00000000000E+00 0.  1.
     999901    1    3    3    0    0  0.84359541411E-01 -0.45574702342E-01 -0.53834309267E-01  0.88684368328E+00  0.88000000000E+00 0.  1.
        -11    1    4    4    0    0 -0.83628795422E-01  0.47633668524E-01  0.68962611349E-01  0.11840120221E+00  0.51100000000E-03 0. -1.
         11    1    4    4    0    0 -0.11566525804E-01  0.93315578378E-02  0.24846108407E-02  0.15076369022E-01  0.51100000000E-03 0.  1.
</event>
<event>
 8    1  0.1132255E+005  0.1043930E+01  0.7957747E-01            NaN
         13   -1    0    0    0    0  0.00000000000E+00  0.00000000000E+00  0.74505805969E-08  0.10566000000E+00  0.10566000000E+00 0. -1.
     999900   -1    0    0    0    0 -0.00000000000E+00 -0.00000000000E+00 -0.74505805969E-08  0.93827000000E+00  0.93827000000E+00 0. -1.
     999902    2    1    2    0    0 -0.98170416196E-02  0.13697935904E-01 -0.17569199260E-01  0.10195848872E+01  0.10192941959E+01 0.  0.
     999903    2    3    3    0    0 -0.10378294543E+00 -0.75691574476E-01 -0.58267856027E-03  0.12991718659E+00  0.19442778777E-01 0.  0.
         14    1    1    2    0    0  0.98170416196E-02 -0.13697935904E-01  0.17569199260E-01  0.24345112792E-01  0.00000000000E+00 0. -1.
     999901    1    3    3    0    0  0.93965903813E-01  0.89389510380E-01 -0.16986520700E-01  0.88966770062E+00  0.88000000000E+00 0.  1.
        -11    1    4    4    0    0 -0.60047384100E-01 -0.31810005315E-01 -0.84080174392E-03  0.67959788434E-01  0.51100000000E-03 0.  1.
         11    1    4    4    0    0 -0.43735561333E-01 -0.43881569161E-01  0.25812318366E-03  0.61957398152E-01  0.51100000000E-03 0. -1.
</event>
<event>
 8    1  0.1132255E+005  0.1043930E+01  0.7957747E-01            NaN
         13   -1    0    0    0    0  0.00000000000E+00  0.00000000000E+00  0.74505805969E-08  0.10566000000E+00  0.10566000000E+00 0.  1.
     999900   -1    0    0    0    0 -0.00000000000E+00 -0.00000000000E+00 -0.74505805969E-08  0.93827000000E+00  0.93827000000E+00 0. -1.
     999902    2    1    2    0    0  0.43990496867E-03 -0.10188972288E-01 -0.22170152141E-01  0.10195266330E+01  0.10192345320E+01 0.  0.
     999903    2    3    3    0    0 -0.78102597295E-01 -0.75942166785E-01  0.66506384558E-01  0.12915820627E+00  0.19786729361E-01 0.  0.
         14    1    1    2    0    0 -0.43990496867E-03  0.10188972288E-01  0.22170152141E-01  0.24403366952E-01  0.00000000000E+00 0.  1.
     999901    1    3    3    0    0  0.78542502263E-01  0.65753194497E-01 -0.88676536699E-01  0.89036842678E+00  0.88000000000E+00 0.  1.
        -11    1    4    4    0    0 -0.61276358418E-01 -0.51941231357E-01  0.56386316597E-01  0.98144594533E-01  0.51100000000E-03 0.  1.
         11    1    4    4    0    0 -0.16826238877E-01 -0.24000935428E-01  0.10120067961E-01  0.31013611733E-01  0.51100000000E-03 0. -1.
</event>
<event>
 8    1  0.1132255E+005  0.1043930E+01  0.7957747E-01            NaN
         13   -1    0    0    0    0  0.00000000000E+00  0.00000000000E+00  0.74505805969E-08  0.10566000000E+00  0.10566000000E+00 0. -1.
     999900   -1    0    0    0    0 -0.00000000000E+00 -0.00000000000E+00 -0.74505805969E-08  0.93827000000E+00  0.93827000000E+00 0.  1.
     999902    2    1    2    0    0 -0.88066053921E-02 -0.14672090737E-01  0.14962263793E-01  0.10211990545E+01  0.10209460383E+01 0.  0.
     999903    2    3    3    0    0 -0.55672353242E-01 -0.67138577643E-01 -0.96310242768E-01  0.13140654988E+00  0.19621900190E-01 0.  0.
         14    1    1    2    0    0  0.88066053921E-02  0.14672090737E-01 -0.14962263793E-01  0.22730945491E-01  0.00000000000E+00 0.  1.
     999901    1    3    3    0    0  0.46865747849E-01  0.52466486906E-01  0.11127250656E+00  0.88979250462E+00  0.88000000000E+00 0. -1.
        -11    1    4    4    0    0 -0.39818945210E-01 -0.38144117444E-01 -0.49476654799E-01  0.74085913535E-01  0.51100000000E-03 0.  1.
         11    1    4    4    0    0 -0.15853408032E-01 -0.28994460198E-01 -0.46833587969E-01  0.57320636349E-01  0.51100000000E-03 0. -1.
</event>
<event>
 8    1  0.1132255E+005  0.1043930E+01  0.7957747E-01            NaN
         13   -1    0    0    0    0  0.00000000000E+00  0.00000000000E+00  0.74505805969E-08  0.10566000000E+00  0.10566000000E+00 0.  1.
     999900   -1    0    0    0    0 -0.00000000000E+00 -0.00000000000E+00 -0.74505805969E-08  0.93827000000E+00  0.93827000000E+00 0.  1.
     999902    2    1    2    0    0  0.21583808076E-01 -0.69587684411E-02  0.61686664439E-02  0.10204281346E+01  0.10201574586E+01 0.  0.
     999903    2    3    3    0    0 -0.99039043578E-01 -0.71550934627E-01 -0.35455707629E-01  0.12888194471E+00  0.20619895021E-01 0.  0.
         14    1    1    2    0    0 -0.21583808076E-01  0.69587684411E-02 -0.61686664439E-02  0.23501865351E-01  0.00000000000E+00 0.  1.
     999901    1    3    3    0    0  0.12062285165E+00  0.64592166186E-01  0.41624374072E-01  0.89154618994E+00  0.88000000000E+00 0.  1.
        -11    1    4    4    0    0 -0.43234028795E-01 -0.35616525597E-01 -0.26276991338E-01  0.61874546755E-01  0.51100000000E-03 0. -1.
         11    1    4    4    0    0 -0.55805014783E-01 -0.35934409030E-01 -0.91787162910E-02  0.67007397957E-01  0.51100000000E-03 0.  1.
</event>
<event>
 8    1  0.1132255E+005  0.1043930E+01  0.7957747E-01            NaN
         13   -1    0    0    0    0  0.00000000000E+00  0.00000000000E+00  0.74505805969E-08  0.10566000000E+00  0.10566000000E+00 0.  1.
     999900   -1    0    0    0    0 -0.00000000000E+00 -0.00000000000E+00 -0.74505805969E-08  0.93827000000E+00  0.93827000000E+00 0. -1.
     999902    2    1    2    0    0 -0.22409651716E-01  0.70148665783E-02  0.60064017816E-02  0.10196920606E+01  0.10194039537E+01 0.  0.
     999903    2    3    3    0    0 -0.12578662471E+00 -0.31809377638E-02 -0.36731714626E-01  0.13255210573E+00  0.19709098202E-01 0.  0.
         14    1    1    2    0    0  0.22409651716E-01 -0.70148665783E-02 -0.60064017816E-02  0.24237939382E-01  0.00000000000E+00 0.  1.
     999901    1    3    3    0    0  0.10337697299E+00  0.10195804342E-01  0.42738116408E-01  0.88713995489E+00  0.88000000000E+00 0.  1.
        -11    1    4    4    0    0 -0.49969340772E-01 -0.20136351525E-02 -0.46888645797E-02  0.50231825726E-01  0.51100000000E-03 0.  1.
         11    1    4    4    0    0 -0.75817283938E-01 -0.11673026113E-02 -0.32042850046E-01  0.82320280000E-01  0.51100000000E-03 0. -1.
</event>
<event>
 8    1  0.1132255E+005  0.1043930E+01  0.7957747E-01            NaN
         13   -1    0    0    0    0  0.00000000000E+00  0.00000000000E+00  0.74505805969E-08  0.10566000000E+00  0.10566000000E+00 0. -1.
     999900   -1    0    0    0    0 -0.00000000000E+00 -0.00000000000E+00 -0.74505805969E-08  0.93827000000E+00  0.93827000000E+00 0. -1.
     999902    2    1    2    0    0 -0.16886109615E-01  0.15430005396E-01  0.56793263687E-02  0.10203613659E+01  0.10200891317E+01 0.  0.
     999903    2    3    3    0    0 -0.96920355032E-01  0.54209888937E-01  0.71279314912E-01  0.13344946595E+00  0.19893515281E-01 0.  0.
         14    1    1    2    0    0  0.16886109615E-01 -0.15430005396E-01 -0.56793263687E-02  0.23568634081E-01  0.00000000000E+00 0.  1.
     999901    1    3    3    0    0  0.80034245418E-01 -0.38779883541E-01 -0.65599988543E-01  0.88691189997E+00  0.88000000000E+00 0. -1.
        -11    1    4    4    0    0 -0.26483664167E-01  0.20334388133E-01  0.30798184493E-01  0.45427536775E-01  0.51100000000E-03 0. -1.
         11    1    4    4    0    0 -0.70436690866E-01  0.33875500804E-01  0.40481130419E-01  0.88021929176E-01  0.51100000000E-03 0.  1.
</event>
<event>
 8    1  0.1132255E+005  0.1043930E+01  0.7957747E-01            NaN
         13   -1    0    0    0    0  0.00000000000E+00  0.00000000000E+00  0.74505805969E-08  0.10566000000E+00  0.10566000000E+00 0.  1.
     999900   -1    0    0    0    0 -0.00000000000E+00 -0.00000000000E+00 -0.74505805969E-08  0.93827000000E+00  0.93827000000E+00 0. -1.
     999902    2    1    2    0    0 -0.14477497674E-01 -0.14766126537E-01  0.12464862817E-01  0.10197844158E+01  0.10194985265E+01 0.  0.
     999903    2    3    3    0    0  0.77448938621E-01 -0.21932512451E-01 -0.97730834101E-01  0.12813150215E+00  0.19672130392E-01 0.  0.
         14    1    1    2    0    0  0.14477497674E-01  0.14766126537E-01 -0.12464862817E-01  0.24145584210E-01  0.00000000000E+00 0. -1.
     999901    1    3    3    0    0 -0.91926436295E-01  0.71663859148E-02  0.11019569692E+00  0.89165291364E+00  0.88000000000E+00 0. -1.
        -11    1    4    4    0    0  0.46161262418E-01 -0.21177969942E-01 -0.68734147353E-01  0.85463516732E-01  0.51100000000E-03 0. -1.
         11    1    4    4    0    0  0.31287676203E-01 -0.75454250954E-03 -0.28996686748E-01  0.42667985421E-01  0.51100000000E-03 0.  1.
</event>
<event>
 8    1  0.1132255E+005  0.1043930E+01  0.7957747E-01            NaN
         13   -1    0    0    0    0  0.00000000000E+00  0.00000000000E+00  0.74505805969E-08  0.10566000000E+00  0.10566000000E+00 0. -1.
     999900   -1    0    0    0    0 -0.00000000000E+00 -0.00000000000E+00 -0.74505805969E-08  0.93827000000E+00  0.93827000000E+00 0.  1.
     999902    2    1    2    0    0  0.50337438186E-02 -0.16177119163E-01  0.16385392053E-01  0.10203605530E+01  0.10200882997E+01 0.  0.
     999903    2    3    3    0    0 -0.24684438315E-01  0.11750208520E+00  0.44810766230E-01  0.12931549129E+00  0.17275126479E-01 0.  0.
         14    1    1    2    0    0 -0.50337438186E-02  0.16177119163E-01 -0.16385392053E-01  0.23569447045E-01  0.00000000000E+00 0.  1.
     999901    1    3    3    0    0  0.29718182133E-01 -0.13367920436E+00 -0.28425374177E-01  0.89104506167E+00  0.88000000000E+00 0. -1.
        -11    1    4    4    0    0  0.21746000109E-02  0.21077117360E-01  0.84935858676E-02  0.22833656810E-01  0.51100000000E-03 0. -1.
         11    1    4    4    0    0 -0.26859038325E-01  0.96424967841E-01  0.36317180363E-01  0.10648183448E+00  0.51100000000E-03 0.  1.
</event>
<event>
 8    1  0.1132255E+005  0.1043930E+01  0.7957747E-01            NaN
         13   -1    0    0    0    0  0.00000000000E+00  0.00000000000E+00  0.74505805969E-08  0.10566000000E+00  0.10566000000E+00 0.  1.
     999900   -1    0    0    0    0 -0.00000000000E+00 -0.00000000000E+00 -0.74505805969E-08  0.93827000000E+00  0.93827000000E+00 0. -1.
     999902    2    1    2    0    0  0.14632838361E-01  0.19757952726E-01 -0.14966439751E-02  0.10192979762E+01  0.10190003080E+01 0.  0.
     999903    2    3    3    0    0 -0.62855382445E-01  0.11286180910E+00 -0.30628161963E-02  0.13099892443E+00  0.21511631842E-01 0.  0.
         14    1    1    2    0    0 -0.14632838361E-01 -0.19757952726E-01  0.14966439751E-02  0.24632023823E-01  0.00000000000E+00 0. -1.
     999901    1    3    3    0    0  0.77488220806E-01 -0.93103856370E-01  0.15661722212E-02  0.88829905174E+00  0.88000000000E+00 0.  1.
        -11    1    4    4    0    0 -0.56776354658E-01  0.10817529808E+00 -0.69725003409E-02  0.12236963040E+00  0.51100000000E-03 0.  1.
         11    1    4    4    0    0 -0.60790277868E-02  0.46865110178E-02  0.39096841446E-02  0.86292940304E-02  0.51100000000E-03 0. -1.
</event>
<event>
 8    1  0.1132255E+005  0.1043930E+01  0.7957747E-01            NaN
         13   -1    0    0    0    0  0.00000000000E+00  0.00000000000E+00  0.74505805969E-08  0.10566000000E+00  0.10566000000E+00 0. -1.
     999900   -1    0    0    0    0 -0.00000000000E+00 -0.00000000000E+00 -0.74505805969E-08  0.93827000000E+00  0.93827000000E+00 0.  1.
     999902    2    1    2    0    0  0.36508679280E-02 -0.23046835054E-01  0.25646081717E-02  0.10204552762E+01  0.10201852322E+01 0.  0.
     999903    2    3    3    0    0  0.20389708478E-01 -0.12353054358E+00  0.43238437528E-01  0.13364553061E+00  0.17777231633E-01 0.  0.
         14    1    1    2    0    0 -0.36508679280E-02  0.23046835054E-01 -0.25646081717E-02  0.23474723805E-01  0.00000000000E+00 0. -1.
     999901    1    3    3    0    0 -0.16738840550E-01  0.10048370853E+00 -0.40673829356E-01  0.88680974558E+00  0.88000000000E+00 0.  1.
        -11    1    4    4    0    0  0.19887981480E-01 -0.67063627472E-01  0.25464191501E-01  0.74442918447E-01  0.51100000000E-03 0. -1.
         11    1    4    4    0    0  0.50172699759E-03 -0.56466916108E-01  0.17774246027E-01  0.59202612168E-01  0.51100000000E-03 0.  1.
</event>
<event>
 8    1  0.1132255E+005  0.1043930E+01  0.7957747E-01            NaN
         13   -1    0    0    0    0  0.00000000000E+00  0.00000000000E+00  0.74505805969E-08  0.10566000000E+00  0.10566000000E+00 0. -1.
     999900   -1    0    0    0    0 -0.00000000000E+00 -0.00000000000E+00 -0.74505805969E-08  0.93827000000E+00  0.93827000000E+00 0. -1.
     999902    2    1    2    0    0  0.15234059771E-01  0.11960356415E-01 -0.14476258327E-01  0.10197496618E+01  0.10194629389E+01 0.  0.
     999903    2    3    3    0    0 -0.48637462351E-01  0.18302479538E-01  0.11512582190E+00  0.12794447391E+00  0.20377684738E-01 0.  0.
         14    1    1    2    0    0 -0.15234059771E-01 -0.11960356415E-01  0.14476258327E-01  0.24180338249E-01  0.00000000000E+00 0.  1.
     999901    1    3    3    0    0  0.63871522122E-01 -0.63421231228E-02 -0.12960208022E+00  0.89180518784E+00  0.88000000000E+00 0. -1.
        -11    1    4    4    0    0 -0.31589370552E-01  0.17672368665E-01  0.94354757633E-01  0.10106078545E+00  0.51100000000E-03 0.  1.
         11    1    4    4    0    0 -0.17048091799E-01  0.63011087261E-03  0.20771064264E-01  0.26883688463E-01  0.51100000000E-03 0. -1.
</event>
<event>
 8    1  0.1132255E+005  0.1043930E+01  0.7957747E-01            NaN
         13   -1    0    0    0    0  0.00000000000E+00  0.00000000000E+00  0.74505805969E-08  0.10566000000E+00  0.10566000000E+00 0. -1.
     999900   -1    0    0    0    0 -0.00000000000E+00 -0.00000000000E+00 -0.74505805969E-08  0.93827000000E+00  0.93827000000E+00 0.  1.
     999902    2    1    2    0    0 -0.11719025063E-01 -0.19239125690E-01  0.69966417604E-02  0.10203411785E+01  0.10200684722E+01 0.  0.
     999903    2    3    3    0    0  0.87886334708E-01  0.67692551620E-01  0.62111245212E-01  0.12876057990E+00  0.20376230782E-01 0.  0.
         14    1    1    2    0    0  0.11719025063E-01  0.19239125690E-01 -0.69966417604E-02  0.23588821540E-01  0.00000000000E+00 0.  1.
     999901    1    3    3    0    0 -0.99605359771E-01 -0.86931677310E-01 -0.55114603452E-01  0.89158059856E+00  0.88000000000E+00 0. -1.
        -11    1    4    4    0    0  0.10265707057E-01  0.17665236596E-01  0.11711764326E-01  0.23555718414E-01  0.51100000000E-03 0.  1.
         11    1    4    4    0    0  0.77620627651E-01  0.50027315024E-01  0.50399480886E-01  0.10520486149E+00  0.51100000000E-03 0. -1.
</event>
<event>
 8    1  0.1132255E+005  0.1043930E+01  0.7957747E-01            NaN
         13   -1    0    0    0    0  0.00000000000E+00  0.00000000000E+00  0.74505805969E-08  0.10566000000E+00  0.10566000000E+00 0.  1.
     999900   -1    0    0    0    0 -0.00000000000E+00 -0.00000000000E+00 -0.74505805969E-08  0.93827000000E+00  0.93827000000E+00 0. -1.
     999902    2    1    2    0    0  0.26784340258E-03 -0.14935783145E-01  0.18741771078E-01  0.10199632868E+01  0.10196816675E+01 0.  0.
     999903    2    3    3    0    0 -0.10675653032E+00 -0.47555478124E-01  0.58271652324E-01  0.13199883223E+00  0.19225659455E-01 0.  0.
         14    1    1    2    0    0 -0.26784340258E-03  0.14935783145E-01 -0.18741771078E-01  0.23966713196E-01  0.00000000000E+00 0. -1.
     999901    1    3    3    0    0  0.10702437372E+00  0.32619694979E-01 -0.39529881246E-01  0.88796445457E+00  0.88000000000E+00 0. -1.
        -11    1    4    4    0    0 -0.48233376749E-01 -0.31451770050E-01  0.24988699055E-01  0.62772355965E-01  0.51100000000E-03 0.  1.
         11    1    4    4    0    0 -0.58523153567E-01 -0.16103708074E-01  0.33282953269E-01  0.69226476268E-01  0.51100000000E-03 0. -1.
</event>
<event>
 8    1  0.1132255E+005  0.1043930E+01  0.7957747E-01            NaN
         13   -1    0    0    0    0  0.00000000000E+00  0.00000000000E+00  0.74505805969E-08  0.10566000000E+00  0.10566000000E+00 0. -1.
     999900   -1    0    0    0    0 -0.00000000000E+00 -0.00000000000E+00 -0.74505805969E-08  0.93827000000E+00  0.93827000000E+00 0. -1.
     999902    2    1    2    0    0  0.11093214592E-01 -0.19070594496E-01 -0.86226479600E-02  0.10202425130E+01  0.10199674937E+01 0.  0.
     999903    2    3    3    0    0 -0.10432393353E+00  0.46323263441E-01  0.54750655025E-01  0.12804654219E+00  0.19208198694E-01 0.  0.
         14    1    1    2    0    0 -0.11093214592E-01  0.19070594496E-01  0.86226479600E-02  0.23687487039E-01  0.00000000000E+00 0. -1.
     999901    1    3    3    0    0  0.11541714812E+00 -0.65393857936E-01 -0.63373302985E-01  0.89219597078E+00  0.88000000000E+00 0.  1.
        -11    1    4    4    0    0 -0.61373992416E-01  0.37423126407E-01  0.34093061522E-01  0.79560387757E-01  0.51100000000E-03 0.  1.
         11    1    4    4    0    0 -0.42949941113E-01  0.89001370338E-02  0.20657593503E-01  0.48486154428E-01  0.51100000000E-03 0. -1.
</event>
<event>
 8    1  0.1132255E+005  0.1043930E+01  0.7957747E-01            NaN
         13   -1    0    0    0    0  0.00000000000E+00  0.00000000000E+00  0.74505805969E-08  0.10566000000E+00  0.10566000000E+00 0. -1.
     999900   -1    0    0    0    0 -0.00000000000E+00 -0.00000000000E+00 -0.74505805969E-08  0.93827000000E+00  0.93827000000E+00 0. -1.
     999902    2    1    2    0    0  0.13129239972E-01  0.15210451904E-01  0.13237082552E-01  0.10198685133E+01  0.10195846356E+01 0.  0.
     999903    2    3    3    0    0  0.83530175206E-01 -0.70867155017E-01 -0.65639987080E-01  0.12937020434E+00  0.20702609398E-01 0.  0.
         14    1    1    2    0    0 -0.13129239972E-01 -0.15210451904E-01 -0.13237082552E-01  0.24061486734E-01  0.00000000000E+00 0.  1.
     999901    1    3    3    0    0 -0.70400935234E-01  0.86077606921E-01  0.78877069632E-01  0.89049830893E+00  0.88000000000E+00 0.  1.
        -11    1    4    4    0    0  0.29529844075E-01 -0.33792275186E-01 -0.17912498612E-01  0.48322337287E-01  0.51100000000E-03 0. -1.
         11    1    4    4    0    0  0.54000331131E-01 -0.37074879831E-01 -0.47727488468E-01  0.81047867049E-01  0.51100000000E-03 0.  1.
</event>
<event>
 8    1  0.1132255E+005  0.1043930E+01  0.7957747E-01            NaN
         13   -1    0    0    0    0  0.00000000000E+00  0.00000000000E+00  0.74505805969E-08  0.10566000000E+00  0.10566000000E+00 0.  1.
     999900   -1    0    0    0    0 -0.00000000000E+00 -0.00000000000E+00 -0.74505805969E-08  0.93827000000E+00  0.93827000000E+00 0. -1.
     999902    2    1    2    0    0  0.10845771388E-01  0.93331511722E-02 -0.19088191845E-01  0.10200742347E+01  0.10197952475E+01 0.  0.
     999903    2    3    3    0    0 -0.10887846806E+00 -0.32868936035E-01 -0.59370336574E-01  0.13005313339E+00  0.21309455082E-01 0.  0.
         14    1    1    2    0    0 -0.10845771388E-01 -0.93331511722E-02  0.19088191845E-01  0.23855765251E-01  0.00000000000E+00 0.  1.
     999901    1    3    3    0    0  0.11972423945E+00  0.42202087207E-01  0.40282144729E-01  0.89002110136E+00  0.88000000000E+00 0.  1.
        -11    1    4    4    0    0 -0.19061066724E-01 -0.10569289960E-01 -0.38726632705E-02  0.22142556237E-01  0.51100000000E-03 0. -1.
         11    1    4    4    0    0 -0.89817401341E-01 -0.22299646075E-01 -0.55497673304E-01  0.10791057715E+00  0.51100000000E-03 0.  1.
</event>
<event>
 8    1  0.1132255E+005  0.1043930E+01  0.7957747E-01            NaN
         13   -1    0    0    0    0  0.00000000000E+00  0.00000000000E+00  0.74505805969E-08  0.10566000000E+00  0.10566000000E+00 0. -1.
     999900   -1    0    0    0    0 -0.00000000000E+00 -0.00000000000E+00 -0.74505805969E-08  0.93827000000E+00  0.93827000000E+00 0.  1.
     999902    2    1    2    0    0 -0.69255794177E-02  0.12397492942E-01 -0.18963601851E-01  0.10202386582E+01  0.10199635484E+01 0.  0.
     999903    2    3    3    0    0 -0.10075966050E+00 -0.54388473234E-01  0.57125759734E-01  0.12947786483E+00  0.19762334115E-01 0.  0.
         14    1    1    2    0    0  0.69255794177E-02 -0.12397492942E-01  0.18963601851E-01  0.23691341808E-01  0.00000000000E+00 0. -1.
     999901    1    3    3    0    0  0.93834081083E-01  0.66785966177E-01 -0.76089361585E-01  0.89076079337E+00  0.88000000000E+00 0.  1.
        -11    1    4    4    0    0 -0.39478770603E-01 -0.10626417029E-01  0.20560675361E-01  0.45765670098E-01  0.51100000000E-03 0.  1.
         11    1    4    4    0    0 -0.61280889898E-01 -0.43762056206E-01  0.36565084373E-01  0.83712194729E-01  0.51100000000E-03 0. -1.
</event>
<event>
 8    1  0.1132255E+005  0.1043930E+01  0.7957747E-01            NaN
         13   -1    0    0    0    0  0.00000000000E+00  0.00000000000E+00  0.74505805969E-08  0.10566000000E+00  0.10566000000E+00 0. -1.
     999900   -1    0    0    0    0 -0.00000000000E+00 -0.00000000000E+00 -0.74505805969E-08  0.93827000000E+00  0.93827000000E+00 0.  1.
     999902    2    1    2    0    0  0.14368125902E-01  0.17266805203E-01  0.14234220155E-02  0.10214219629E+01  0.10211739394E+01 0.  0.
     999903    2    3    3    0    0 -0.53114954423E-01  0.63828357416E-01  0.10091482860E+00  0.13202863919E+00  0.18775019082E-01 0.  0.
         14    1    1    2    0    0 -0.14368125902E-01 -0.17266805203E-01 -0.14234220155E-02  0.22508037100E-01  0.00000000000E+00 0.  1.
     999901    1    3    3    0    0  0.67483080326E-01 -0.46561552213E-01 -0.99491406583E-01  0.88939332371E+00  0.88000000000E+00 0.  1.
        -11    1    4    4    0    0 -0.43771086930E-01  0.58737111669E-01  0.79460156228E-01  0.10807466811E+00  0.51100000000E-03 0.  1.
         11    1    4    4    0    0 -0.93438674935E-02  0.50912457467E-02  0.21454672371E-01  0.23953971081E-01  0.51100000000E-03 0. -1.
</event>
<event>
 8    1  0.1132255E+005  0.1043930E+01  0.7957747E-01            NaN
         13   -1    0    0    0    0  0.00000000000E+00  0.00000000000E+00  0.74505805969E-08  0.10566000000E+00  0.10566000000E+00 0.  1.
     999900   -1    0    0    0    0 -0.00000000000E+00 -0.00000000000E+00 -0.74505805969E-08  0.93827000000E+00  0.93827000000E+00 0.  1.
     999902    2    1    2    0    0 -0.15908961409E-01 -0.98818748936E-03  0.17329409759E-01  0.10203847242E+01  0.10201130356E+01 0.  0.
     999903    2    3    3    0    0  0.15320562856E-01 -0.43349488334E-01 -0.11837517384E+00  0.12842872925E+00  0.19166609808E-01 0.  0.
         14    1    1    2    0    0  0.15908961409E-01  0.98818748936E-03 -0.17329409759E-01  0.23545275752E-01  0.00000000000E+00 0.  1.
     999901    1    3    3    0    0 -0.31229524266E-01  0.42361300844E-01  0.13570458360E+00  0.89195599499E+00  0.88000000000E+00 0. -1.
        -11    1    4    4    0    0  0.15979712843E-01 -0.17001086771E-01 -0.59915585333E-01  0.64300285075E-01  0.51100000000E-03 0.  1.
         11    1    4    4    0    0 -0.65914998608E-03 -0.26348401563E-01 -0.58459588506E-01  0.64128444180E-01  0.51100000000E-03 0. -1.
</event>
<event>
 8    1  0.1132255E+005  0.1043930E+01  0.7957747E-01            NaN
         13   -1    0    0    0    0  0.00000000000E+00  0.00000000000E+00  0.74505805969E-08  0.10566000000E+00  0.10566000000E+00 0. -1.
     999900   -1    0    0    0    0 -0.00000000000E+00 -0.00000000000E+00 -0.74505805969E-08  0.93827000000E+00  0.93827000000E+00 0.  1.
     999902    2    1    2    0    0 -0.94271959796E-02 -0.18863169248E-01  0.10554353241E-01  0.10203485338E+01  0.10200759995E+01 0.  0.
     999903    2    3    3    0    0  0.91428734869E-01  0.87378386180E-01 -0.34561912635E-02  0.12812912002E+00  0.20271413546E-01 0.  0.
         14    1    1    2    0    0  0.94271959796E-02  0.18863169248E-01 -0.10554353241E-01  0.23581466249E-01  0.00000000000E+00 0.  1.
     999901    1    3    3    0    0 -0.10085593085E+00 -0.10624155543E+00  0.14010544505E-01  0.89221941373E+00  0.88000000000E+00 0. -1.
        -11    1    4    4    0    0  0.37079599005E-01  0.28632422422E-01  0.71643118093E-02  0.47395155458E-01  0.51100000000E-03 0. -1.
         11    1    4    4    0    0  0.54349135863E-01  0.58745963758E-01 -0.10620503073E-01  0.80733964559E-01  0.51100000000E-03 0.  1.
</event>
<event>
 8    1  0.1132255E+005  0.1043930E+01  0.7957747E-01            NaN
         13   -1    0    0    0    0  0.00000000000E+00  0.00000000000E+00  0.74505805969E-08  0.10566000000E+00  0.10566000000E+00 0.  1.
     999900   -1    0    0    0    0 -0.00000000000E+00 -0.00000000000E+00 -0.74505805969E-08  0.93827000000E+00  0.93827000000E+00 0. -1.
     999902    2    1    2    0    0  0.14322175282E-01  0.81256767708E-02  0.16555776927E-01  0.10205795165E+01  0.10203123563E+01 0.  0.
     999903    2    3    3    0    0 -0.40376477376E-01 -0.12048827268E+00 -0.10120705427E-01  0.12915081760E+00  0.20732130343E-01 0.  0.
         14    1    1    2    0    0 -0.14322175282E-01 -0.81256767708E-02 -0.16555776927E-01  0.23350483453E-01  0.00000000000E+00 0. -1.
     999901    1    3    3    0    0  0.54698652658E-01  0.12861394946E+00  0.26676482354E-01  0.89142869895E+00  0.88000000000E+00 0. -1.
        -11    1    4    4    0    0 -0.16792191879E-01 -0.52024582373E-01 -0.14639944840E-01  0.56596148148E-01  0.51100000000E-03 0. -1.
         11    1    4    4    0    0 -0.23584285497E-01 -0.68463690311E-01  0.45192394138E-02  0.72554669452E-01  0.51100000000E-03 0.  1.
</event>
<event>
 8    1  0.1132255E+005  0.1043930E+01  0.7957747E-01            NaN
         13   -1    0    0    0    0  0.00000000000E+00  0.00000000000E+00  0.74505805969E-08  0.10566000000E+00  0.10566000000E+00 0.  1.
     999900   -1    0    0    0    0 -0.00000000000E+00 -0.00000000000E+00 -0.74505805969E-08  0.93827000000E+00  0.93827000000E+00 0. -1.
     999902    2    1    2    0    0 -0.99288759433E-02 -0.14424891899E-01  0.10403826894E-01  0.10235609132E+01  0.10233582185E+01 0.  0.
     999903    2    3    3    0    0  0.93645679222E-01  0.30477214410E-01 -0.84476649339E-01  0.13129066690E+00  0.20063925251E-01 0.  0.
         14    1    1    2    0    0  0.99288759433E-02  0.14424891899E-01 -0.10403826894E-01  0.20369086819E-01  0.00000000000E+00 0. -1.
     999901    1    3    3    0    0 -0.10357455517E+00 -0.44902106309E-01  0.94880476232E-01  0.89227024628E+00  0.88000000000E+00 0.  1.
        -11    1    4    4    0    0  0.40505140113E-02  0.62761547851E-02 -0.42209721204E-02  0.85950281723E-02  0.51100000000E-03 0.  1.
         11    1    4    4    0    0  0.89595165210E-01  0.24201059625E-01 -0.80255677218E-01  0.12269563873E+00  0.51100000000E-03 0. -1.
</event>
<event>
 8    1  0.1132255E+005  0.1043930E+01  0.7957747E-01            NaN
         13   -1    0    0    0    0  0.00000000000E+00  0.00000000000E+00  0.74505805969E-08  0.10566000000E+00  0.10566000000E+00 0. -1.
     999900   -1    0    0    0    0 -0.00000000000E+00 -0.00000000000E+00 -0.74505805969E-08  0.93827000000E+00  0.93827000000E+00 0. -1.
     999902    2    1    2    0    0  0.23877447671E-01 -0.28425805336E-02  0.54942242251E-03  0.10198776688E+01  0.10195940097E+01 0.  0.
     999903    2    3    3    0    0 -0.34002192871E-01  0.11286681861E+00 -0.48412772983E-01  0.12907128443E+00  0.20506877250E-01 0.  0.
         14    1    1    2    0    0 -0.23877447671E-01  0.28425805336E-02 -0.54942242251E-03  0.24052331205E-01  0.00000000000E+00 0. -1.
     999901    1    3    3    0    0  0.57879640542E-01 -0.11570939914E+00  0.48962195405E-01  0.89080638436E+00  0.88000000000E+00 0.  1.
        -11    1    4    4    0    0 -0.36464494565E-01  0.10181801608E+00 -0.41779647660E-01  0.11594122581E+00  0.51100000000E-03 0.  1.
         11    1    4    4    0    0  0.24623016946E-02  0.11048802534E-01 -0.66331253223E-02  0.13130058629E-01  0.51100000000E-03 0. -1.
</event>
<event>
 8    1  0.1132255E+005  0.1043930E+01  0.7957747E-01            NaN
         13   -1    0    0    0    0  0.00000000000E+00  0.00000000000E+00  0.74505805969E-08  0.10566000000E+00  0.10566000000E+00 0. -1.
     999900   -1    0    0    0    0 -0.00000000000E+00 -0.00000000000E+00 -0.74505805969E-08  0.93827000000E+00  0.93827000000E+00 0. -1.
     999902    2    1    2    0    0 -0.20076040886E-01  0.10966853001E-01 -0.28418371440E-02  0.10208779866E+01  0.10206176896E+01 0.  0.
     999903    2    3    3    0    0  0.83320249527E-01 -0.82387089826E-01  0.48484050440E-01  0.12844306000E+00  0.20421066690E-01 0.  0.
         14    1    1    2    0    0  0.20076040886E-01 -0.10966853001E-01  0.28418371440E-02  0.23052013378E-01  0.00000000000E+00 0. -1.
     999901    1    3    3    0    0 -0.10339629041E+00  0.93353942826E-01 -0.51325887584E-01  0.89243492662E+00  0.88000000000E+00 0.  1.
        -11    1    4    4    0    0  0.37199806634E-01 -0.30716776368E-01  0.10224660248E-01  0.49316840554E-01  0.51100000000E-03 0.  1.
         11    1    4    4    0    0  0.46120442893E-01 -0.51670313458E-01  0.38259390192E-01  0.79126219449E-01  0.51100000000E-03 0. -1.
</event>
<event>
 8    1  0.1132255E+005  0.1043930E+01  0.7957747E-01            NaN
         13   -1    0    0    0    0  0.00000000000E+00  0.00000000000E+00  0.74505805969E-08  0.10566000000E+00  0.10566000000E+00 0. -1.
     999900   -1    0    0    0    0 -0.00000000000E+00 -0.00000000000E+00 -0.74505805969E-08  0.93827000000E+00  0.93827000000E+00 0. -1.
     999902    2    1    2    0    0  0.90476495145E-02  0.17851365360E-01 -0.13004948600E-01  0.10200624510E+01  0.10197831848E+01 0.  0.
     999903    2    3    3    0    0 -0.12263623962E+00  0.13877018136E-01 -0.35601213122E-01  0.12996861704E+00  0.19803437534E-01 0.  0.
         14    1    1    2    0    0 -0.90476495145E-02 -0.17851365360E-01  0.13004948600E-01  0.23867548996E-01  0.00000000000E+00 0. -1.
     999901    1    3    3    0    0  0.13168388914E+00  0.39743472249E-02  0.22596264521E-01  0.89009383397E+00  0.88000000000E+00 0.  1.
        -11    1    4    4    0    0 -0.55365494809E-01 -0.36156662593E-02 -0.15435883419E-01  0.57592870009E-01  0.51100000000E-03 0.  1.
         11    1    4    4    0    0 -0.67270744813E-01  0.17492684395E-01 -0.20165329702E-01  0.72375747029E-01  0.51100000000E-03 0. -1.
</event>
<event>
 8    1  0.1132255E+005  0.1043930E+01  0.7957747E-01            NaN
         13   -1    0    0    0    0  0.00000000000E+00  0.00000000000E+00  0.74505805969E-08  0.10566000000E+00  0.10566000000E+00 0. -1.
     999900   -1    0    0    0    0 -0.00000000000E+00 -0.00000000000E+00 -0.74505805969E-08  0.93827000000E+00  0.93827000000E+00 0. -1.
     999902    2    1    2    0    0  0.18306406098E-01 -0.84331860254E-03  0.15467166310E-01  0.10199494053E+01  0.10196674558E+01 0.  0.
     999903    2    3    3    0    0  0.87916497059E-01 -0.88641017417E-01  0.39667695417E-01  0.13251508865E+00  0.20004555407E-01 0.  0.
         14    1    1    2    0    0 -0.18306406098E-01  0.84331860254E-03 -0.15467166310E-01  0.23980594742E-01  0.00000000000E+00 0.  1.
     999901    1    3    3    0    0 -0.69610090961E-01  0.87797698814E-01 -0.24200529107E-01  0.88743431661E+00  0.88000000000E+00 0. -1.
        -11    1    4    4    0    0  0.15439130908E-01 -0.77844139710E-02  0.98634836724E-02  0.19912641593E-01  0.51100000000E-03 0.  1.
         11    1    4    4    0    0  0.72477366151E-01 -0.80856603446E-01  0.29804211745E-01  0.11260244706E+00  0.51100000000E-03 0. -1.
</event>
<event>
 8    1  0.1132255E+005  0.1043930E+01  0.7957747E-01            NaN
         13   -1    0    0    0    0  0.00000000000E+00  0.00000000000E+00  0.74505805969E-08  0.10566000000E+00  0.10566000000E+00 0.  1.
     999900   -1    0    0    0    0 -0.00000000000E+00 -0.00000000000E+00 -0.74505805969E-08  0.93827000000E+00  0.93827000000E+00 0. -1.
     999902    2    1    2    0    0 -0.25685002128E-02  0.16472064125E-01  0.17002344789E-01  0.10201181160E+01  0.10198401663E+01 0.  0.
     999903    2    3    3    0    0  0.53801722835E-01 -0.27312680247E-01  0.11544307145E+00  0.13175710689E+00  0.19804660817E-01 0.  0.
         14    1    1    2    0    0  0.25685002128E-02 -0.16472064125E-01 -0.17002344789E-01  0.23811883970E-01  0.00000000000E+00 0. -1.
     999901    1    3    3    0    0 -0.56370223048E-01  0.43784744372E-01 -0.98440726657E-01  0.88836100913E+00  0.88000000000E+00 0. -1.
        -11    1    4    4    0    0  0.16259446192E-01 -0.17274726527E-01  0.54962967497E-01  0.59866306752E-01  0.51100000000E-03 0. -1.
         11    1    4    4    0    0  0.37542276644E-01 -0.10037953719E-01  0.60480103949E-01  0.71890800143E-01  0.51100000000E-03 0.  1.
</event>
<event>
 8    1  0.1132255E+005  0.1043930E+01  0.7957747E-01            NaN
         13   -1    0    0    0    0  0.00000000000E+00  0.00000000000E+00  0.74505805969E-08  0.10566000000E+00  0.10566000000E+00 0.  1.
     999900   -1    0    0    0    0 -0.00000000000E+00 -0.00000000000E+00 -0.74505805969E-08  0.93827000000E+00  0.93827000000E+00 0. -1.
     999902    2    1    2    0    0 -0.92081950006E-03  0.23286941171E-01 -0.53311670376E-02  0.10200228697E+01  0.10197426655E+01 0.  0.
     999903    2    3    3    0    0 -0.71474131835E-01 -0.69560834963E-01 -0.80432371544E-01  0.12915886754E+00  0.16290653429E-01 0.  0.
         14    1    1    2    0    0  0.92081950006E-03 -0.23286941171E-01  0.53311670376E-02  0.23907130309E-01  0.00000000000E+00 0. -1.
     999901    1    3    3    0    0  0.70553312335E-01  0.92847776134E-01  0.75101204506E-01  0.89086400215E+00  0.88000000000E+00 0.  1.
        -11    1    4    4    0    0 -0.48359057962E-01 -0.56459750037E-01 -0.62216621980E-01  0.96940554118E-01  0.51100000000E-03 0. -1.
         11    1    4    4    0    0 -0.23115073874E-01 -0.13101084926E-01 -0.18215749563E-01  0.32218313419E-01  0.51100000000E-03 0.  1.
</event>
<event>
 8    1  0.1132255E+005  0.1043930E+01  0.7957747E-01            NaN
         13   -1    0    0    0    0  0.00000000000E+00  0.00000000000E+00  0.74505805969E-08  0.10566000000E+00  0.10566000000E+00 0.  1.
     999900   -1    0    0    0    0 -0.00000000000E+00 -0.00000000000E+00 -0.74505805969E-08  0.93827000000E+00  0.93827000000E+00 0. -1.
     999902    2    1    2    0    0  0.16072693965E-01 -0.22056038908E-02 -0.17807600015E-01  0.10198404421E+01  0.10195558938E+01 0.  0.
     999903    2    3    3    0    0  0.76497099258E-01 -0.10241149597E+00  0.21600121056E-01  0.13122055825E+00  0.20306377719E-01 0.  0.
         14    1    1    2    0    0 -0.16072693965E-01  0.22056038908E-02  0.17807600015E-01  0.24089557864E-01  0.00000000000E+00 0.  1.
     999901    1    3    3    0    0 -0.60424405294E-01  0.10020589208E+00 -0.39407721071E-01  0.88861988389E+00  0.88000000000E+00 0. -1.
        -11    1    4    4    0    0  0.70122303417E-01 -0.85067072211E-01  0.13607942267E-01  0.11108096788E+00  0.51100000000E-03 0. -1.
         11    1    4    4    0    0  0.63747958417E-02 -0.17344423756E-01  0.79921787893E-02  0.20139590370E-01  0.51100000000E-03 0.  1.
</event>
<event>
 8    1  0.1132255E+005  0.1043930E+01  0.7957747E-01            NaN
         13   -1    0    0    0    0  0.00000000000E+00  0.00000000000E+00  0.74505805969E-08  0.10566000000E+00  0.10566000000E+00 0. -1.
     999900   -1    0    0    0    0 -0.00000000000E+00 -0.00000000000E+00 -0.74505805969E-08  0.93827000000E+00  0.93827000000E+00 0. -1.
     999902    2    1    2    0    0 -0.14470597308E-01 -0.14765543825E-01 -0.10650419129E-01  0.10206737987E+01  0.10204088163E+01 0.  0.
     999903    2    3    3    0    0 -0.69161012333E-01  0.81214000776E-01  0.71559777042E-01  0.12996529935E+00  0.19779226359E-01 0.  0.
         14    1    1    2    0    0  0.14470597308E-01  0.14765543825E-01  0.10650419129E-01  0.23256201292E-01  0.00000000000E+00 0. -1.
     999901    1    3    3    0    0  0.54690415025E-01 -0.95979544601E-01 -0.82210196171E-01  0.89070849936E+00  0.88000000000E+00 0. -1.
        -11    1    4    4    0    0 -0.31871621858E-01  0.29397415895E-01  0.19305700806E-01  0.47465561682E-01  0.51100000000E-03 0. -1.
         11    1    4    4    0    0 -0.37289390476E-01  0.51816584880E-01  0.52254076237E-01  0.82499737667E-01  0.51100000000E-03 0.  1.
</event>
<event>
 8    1  0.1132255E+005  0.1043930E+01  0.7957747E-01            NaN
         13   -1    0    0    0    0  0.00000000000E+00  0.00000000000E+00  0.74505805969E-08  0.10566000000E+00  0.10566000000E+00 0. -1.
     999900   -1    0    0    0    0 -0.00000000000E+00 -0.00000000000E+00 -0.74505805969E-08  0.93827000000E+00  0.93827000000E+00 0.  1.
     999902    2    1    2    0    0 -0.17816931363E-01  0.14442805381E-01 -0.77683717452E-02  0.10197146068E+01  0.10194270420E+01 0.  0.
     999903    2    3    3    0    0  0.62099788603E-01  0.59752065638E-01  0.94131038100E-01  0.12908387468E+00  0.19372694057E-01 0.  0.
         14    1    1    2    0    0  0.17816931363E-01 -0.14442805381E-01  0.77683717452E-02  0.24215393246E-01  0.00000000000E+00 0. -1.
     999901    1    3    3    0    0 -0.79916719967E-01 -0.45309260257E-01 -0.10189940985E+00  0.89063073208E+00  0.88000000000E+00 0. -1.
        -11    1    4    4    0    0  0.17312062679E-01  0.14083379080E-01  0.37545647054E-01  0.43680496955E-01  0.51100000000E-03 0.  1.
         11    1    4    4    0    0  0.44787725924E-01  0.45668686558E-01  0.56585391046E-01  0.85403377721E-01  0.51100000000E-03 0. -1.
</event>
<event>
 8    1  0.1132255E+005  0.1043930E+01  0.7957747E-01            NaN
         13   -1    0    0    0    0  0.00000000000E+00  0.00000000000E+00  0.74505805969E-08  0.10566000000E+00  0.10566000000E+00 0.  1.
     999900   -1    0    0    0    0 -0.00000000000E+00 -0.00000000000E+00 -0.74505805969E-08  0.93827000000E+00  0.93827000000E+00 0.  1.
     999902    2    1    2    0    0  0.47485171305E-02 -0.29258465101E-02  0.23330855344E-01  0.10199417153E+01  0.10196595828E+01 0.  0.
     999903    2    3    3    0    0  0.72817320686E-01  0.66277191818E-01 -0.80380317812E-01  0.12855042636E+00  0.19214272757E-01 0.  0.
         14    1    1    2    0    0 -0.47485171305E-02  0.29258465101E-02 -0.23330855344E-01  0.23988284720E-01  0.00000000000E+00 0. -1.
     999901    1    3    3    0    0 -0.68068803555E-01 -0.69203038328E-01  0.10371117316E+00  0.89139128892E+00  0.88000000000E+00 0. -1.
        -11    1    4    4    0    0  0.49792930449E-01  0.53020822458E-01 -0.66574973322E-01  0.98605434590E-01  0.51100000000E-03 0. -1.
         11    1    4    4    0    0  0.23024390237E-01  0.13256369360E-01 -0.13805344490E-01  0.29944991766E-01  0.51100000000E-03 0.  1.
</event>
<event>
 8    1  0.1132255E+005  0.1043930E+01  0.7957747E-01            NaN
         13   -1    0    0    0    0  0.00000000000E+00  0.00000000000E+00  0.74505805969E-08  0.10566000000E+00  0.10566000000E+00 0. -1.
     999900   -1    0    0    0    0 -0.00000000000E+00 -0.00000000000E+00 -0.74505805969E-08  0.93827000000E+00  0.93827000000E+00 0.  1.
     999902    2    1    2    0    0  0.40094683805E-02  0.42007633827E-02 -0.24502833054E-01  0.10187484377E+01  0.10184371696E+01 0.  0.
     999903    2    3    3    0    0 -0.94613133244E-01  0.33820130989E-01  0.75326273511E-01  0.12713777440E+00  0.19862526398E-01 0.  0.
         14    1    1    2    0    0 -0.40094683805E-02 -0.42007633827E-02  0.24502833054E-01  0.25181562250E-01  0.00000000000E+00 0. -1.
     999901    1    3    3    0    0  0.98622601625E-01 -0.29619367607E-01 -0.99829106565E-01  0.89161066335E+00  0.88000000000E+00 0. -1.
        -11    1    4    4    0    0 -0.56929197677E-01  0.99552917631E-02  0.43667638188E-01  0.72437318615E-01  0.51100000000E-03 0.  1.
         11    1    4    4    0    0 -0.37683935567E-01  0.23864839226E-01  0.31658635322E-01  0.54700455781E-01  0.51100000000E-03 0. -1.
</event>
<event>
 8    1  0.1132255E+005  0.1043930E+01  0.7957747E-01            NaN
         13   -1    0    0    0    0  0.00000000000E+00  0.00000000000E+00  0.74505805969E-08  0.10566000000E+00  0.10566000000E+00 0. -1.
     999900   -1    0    0    0    0 -0.00000000000E+00 -0.00000000000E+00 -0.74505805969E-08  0.93827000000E+00  0.93827000000E+00 0.  1.
     999902    2    1    2    0    0 -0.22905942526E-02  0.20562817547E-01  0.93372982509E-02  0.10212306294E+01  0.10209783235E+01 0.  0.
     999903    2    3    3    0    0  0.90958193838E-01  0.68874602133E-02  0.93545366541E-01  0.13220118632E+00  0.20139213707E-01 0.  0.
         14    1    1    2    0    0  0.22905942526E-02 -0.20562817547E-01 -0.93372982509E-02  0.22699370611E-01  0.00000000000E+00 0. -1.
     999901    1    3    3    0    0 -0.93248788090E-01  0.13675357334E-01 -0.84208068290E-01  0.88902944307E+00  0.88000000000E+00 0.  1.
        -11    1    4    4    0    0  0.38038042336E-01  0.17687577479E-03  0.25765746354E-01  0.45946259434E-01  0.51100000000E-03 0.  1.
         11    1    4    4    0    0  0.52920151502E-01  0.67105844385E-02  0.67779620186E-01  0.86254926886E-01  0.51100000000E-03 0. -1.
</event>
<event>
 8    1  0.1132255E+005  0.1043930E+01  0.7957747E-01            NaN
         13   -1    0    0    0    0  0.00000000000E+00  0.00000000000E+00  0.74505805969E-08  0.10566000000E+00  0.10566000000E+00 0.  1.
     999900   -1    0    0    0    0 -0.00000000000E+00 -0.00000000000E+00 -0.74505805969E-08  0.93827000000E+00  0.93827000000E+00 0.  1.
     999902    2    1    2    0    0 -0.11480303393E-01  0.12481505413E-01  0.22008004527E-01  0.10161462348E+01  0.10157663279E+01 0.  0.
     999903    2    3    3    0    0  0.36155016611E-01 -0.11130082165E+00  0.42149172274E-01  0.12597947808E+00  0.19980441604E-01 0.  0.
         14    1    1    2    0    0  0.11480303393E-01 -0.12481505413E-01 -0.22008004527E-01  0.27783765163E-01  0.00000000000E+00 0. -1.
     999901    1    3    3    0    0 -0.47635320004E-01  0.12378232706E+00 -0.20141167747E-01  0.89016675676E+00  0.88000000000E+00 0.  1.
        -11    1    4    4    0    0  0.31974752311E-01 -0.86494685524E-01  0.40634892771E-01  0.10077286857E+00  0.51100000000E-03 0.  1.
         11    1    4    4    0    0  0.41802643003E-02 -0.24806136126E-01  0.15142795027E-02  0.25206609501E-01  0.51100000000E-03 0. -1.
</event>
<event>
 8    1  0.1132255E+005  0.1043930E+01  0.7957747E-01            NaN
         13   -1    0    0    0    0  0.00000000000E+00  0.00000000000E+00  0.74505805969E-08  0.10566000000E+00  0.10566000000E+00 0. -1.
     999900   -1    0    0    0    0 -0.00000000000E+00 -0.00000000000E+00 -0.74505805969E-08  0.93827000000E+00  0.93827000000E+00 0.  1.
     999902    2    1    2    0    0 -0.11694339205E-01 -0.12715508496E-01 -0.12037671260E-01  0.10228741871E+01  0.10226574478E+01 0.  0.
     999903    2    3    3    0    0  0.62549236325E-01 -0.73250044770E-01 -0.91239223045E-01  0.13413945484E+00  0.19769205853E-01 0.  0.
         14    1    1    2    0    0  0.11694339205E-01  0.12715508496E-01  0.12037671260E-01  0.21055812858E-01  0.00000000000E+00 0. -1.
     999901    1    3    3    0    0 -0.74243575529E-01  0.60534536273E-01  0.79201551785E-01  0.88873473230E+00  0.88000000000E+00 0. -1.
        -11    1    4    4    0    0  0.23198993435E-01 -0.24429018948E-01 -0.45056116674E-01  0.56260865918E-01  0.51100000000E-03 0.  1.
         11    1    4    4    0    0  0.39350242890E-01 -0.48821025821E-01 -0.46183106372E-01  0.77878588925E-01  0.51100000000E-03 0. -1.
</event>
<event>
 8    1  0.1132255E+005  0.1043930E+01  0.7957747E-01            NaN
         13   -1    0    0    0    0  0.00000000000E+00  0.00000000000E+00  0.74505805969E-08  0.10566000000E+00  0.10566000000E+00 0. -1.
     999900   -1    0    0    0    0 -0.00000000000E+00 -0.00000000000E+00 -0.74505805969E-08  0.93827000000E+00  0.93827000000E+00 0.  1.
     999902    2    1    2    0    0  0.11121559454E-01  0.41721583412E-02  0.19031627254E-01  0.10214956775E+01  0.10212492939E+01 0.  0.
     999903    2    3    3    0    0 -0.34726493236E-01  0.99954789404E-01 -0.74179184298E-01  0.13022433176E+00  0.16091486659E-01 0.  0.
         14    1    1    2    0    0 -0.11121559454E-01 -0.41721583412E-02 -0.19031627254E-01  0.22434322496E-01  0.00000000000E+00 0.  1.
     999901    1    3    3    0    0  0.45848052689E-01 -0.95782631062E-01  0.93210811552E-01  0.89127134574E+00  0.88000000000E+00 0.  1.
        -11    1    4    4    0    0 -0.10985032625E-01  0.30925791590E-01 -0.32372250643E-01  0.46100968102E-01  0.51100000000E-03 0. -1.
         11    1    4    4    0    0 -0.23741460611E-01  0.69028997813E-01 -0.41806933655E-01  0.84123363661E-01  0.51100000000E-03 0.  1.
</event>
<event>
 8    1  0.1132255E+005  0.1043930E+01  0.7957747E-01            NaN
         13   -1    0    0    0    0  0.00000000000E+00  0.00000000000E+00  0.74505805969E-08  0.10566000000E+00  0.10566000000E+00 0. -1.
     999900   -1    0    0    0    0 -0.00000000000E+00 -0.00000000000E+00 -0.74505805969E-08  0.93827000000E+00  0.93827000000E+00 0.  1.
     999902    2    1    2    0    0 -0.15344443782E-01  0.18232774672E-01 -0.18969207655E-01  0.10134715551E+01  0.10130137591E+01 0.  0.
     999903    2    3    3    0    0  0.79083704687E-02  0.90952303888E-01 -0.86800737642E-01  0.12756527350E+00  0.20091466902E-01 0.  0.
         14    1    1    2    0    0  0.15344443782E-01 -0.18232774672E-01  0.18969207655E-01  0.30458444909E-01  0.00000000000E+00 0. -1.
     999901    1    3    3    0    0 -0.23252814250E-01 -0.72719529216E-01  0.67831529987E-01  0.88590628159E+00  0.88000000000E+00 0. -1.
        -11    1    4    4    0    0  0.10931908212E-01  0.57832347614E-01 -0.44686366234E-01  0.73900064248E-01  0.51100000000E-03 0. -1.
         11    1    4    4    0    0 -0.30235377435E-02  0.33119956274E-01 -0.42114371408E-01  0.53665209253E-01  0.51100000000E-03 0.  1.
</event>
<event>
 8    1  0.1132255E+005  0.1043930E+01  0.7957747E-01            NaN
         13   -1    0    0    0    0  0.00000000000E+00  0.00000000000E+00  0.74505805969E-08  0.10566000000E+00  0.10566000000E+00 0.  1.
     999900   -1    0    0    0    0 -0.00000000000E+00 -0.00000000000E+00 -0.74505805969E-08  0.93827000000E+00  0.93827000000E+00 0.  1.
     999902    2    1    2    0    0  0.46393249725E-02  0.67565180862E-05 -0.22748467337E-01  0.10207132787E+01  0.10204492056E+01 0.  0.
     999903    2    3    3    0    0  0.12967136190E+00  0.85864574085E-02  0.56082520023E-03  0.13152828971E+00  0.20272817255E-01 0.  0.
         14    1    1    2    0    0 -0.46393249725E-02 -0.67565180862E-05  0.22748467337E-01  0.23216721302E-01  0.00000000000E+00 0.  1.
     999901    1    3    3    0    0 -0.12503203693E+00 -0.85797008904E-02 -0.23309292537E-01  0.88918498899E+00  0.88000000000E+00 0. -1.
        -11    1    4    4    0    0  0.19247843049E-01  0.18725274301E-03  0.72683869865E-02  0.20581668932E-01  0.51100000000E-03 0. -1.
         11    1    4    4    0    0  0.11042351886E+00  0.83992046655E-02 -0.67075617863E-02  0.11094662078E+00  0.51100000000E-03 0.  1.
</event>
<event>
 8    1  0.1132255E+005  0.1043930E+01  0.7957747E-01            NaN
         13   -1    0    0    0    0  0.00000000000E+00  0.00000000000E+00  0.74505805969E-08  0.10566000000E+00  0.10566000000E+00 0. -1.
     999900   -1    0    0    0    0 -0.00000000000E+00 -0.00000000000E+00 -0.74505805969E-08  0.93827000000E+00  0.93827000000E+00 0.  1.
     999902    2    1    2    0    0  0.94976022018E-02  0.21619415261E-01  0.10267621910E-02  0.10202940569E+01  0.10200202473E+01 0.  0.
     999903    2    3    3    0    0 -0.34880811807E-01 -0.40861089632E-01  0.11610548727E+00  0.12949869880E+00  0.20078076014E-01 0.  0.
         14    1    1    2    0    0 -0.94976022018E-02 -0.21619415261E-01 -0.10267621910E-02  0.23635943061E-01  0.00000000000E+00 0. -1.
     999901    1    3    3    0    0  0.44378414009E-01  0.62480504893E-01 -0.11507872508E+00  0.89079535814E+00  0.88000000000E+00 0. -1.
        -11    1    4    4    0    0 -0.21725299010E-01 -0.14442892524E-01  0.70508121810E-01  0.75181394798E-01  0.51100000000E-03 0.  1.
         11    1    4    4    0    0 -0.13155512797E-01 -0.26418197108E-01  0.45597365464E-01  0.54317303998E-01  0.51100000000E-03 0. -1.
</event>
<event>
 8    1  0.1132255E+005  0.1043930E+01  0.7957747E-01            NaN
         13   -1    0    0    0    0  0.00000000000E+00  0.00000000000E+00  0.74505805969E-08  0.10566000000E+00  0.10566000000E+00 0. -1.
     999900   -1    0    0    0    0 -0.00000000000E+00 -0.00000000000E+00 -0.74505805969E-08  0.93827000000E+00  0.93827000000E+00 0. -1.
     999902    2    1    2    0    0  0.22572670964E-02  0.22366137497E-01 -0.67520032977E-02  0.10204581251E+01  0.10201881475E+01 0.  0.
     999903    2    3    3    0    0  0.41843885094E-01 -0.38083509463E-01 -0.11621179136E+00  0.13073754802E+00  0.19643360102E-01 0.  0.
         14    1    1    2    0    0 -0.22572670964E-02 -0.22366137497E-01  0.67520032977E-02  0.23471874868E-01  0.00000000000E+00 0. -1.
     999901    1    3    3    0    0 -0.39586617997E-01  0.60449646960E-01  0.10945978807E+00  0.88972057712E+00  0.88000000000E+00 0.  1.
        -11    1    4    4    0    0  0.28030227999E-01 -0.24873401174E-01 -0.95287143523E-01  0.10239277616E+00  0.51100000000E-03 0.  1.
         11    1    4    4    0    0  0.13813657094E-01 -0.13210108288E-01 -0.20924647841E-01  0.28344771856E-01  0.51100000000E-03 0. -1.
</event>
<event>
 8    1  0.1132255E+005  0.1043930E+01  0.7957747E-01            NaN
         13   -1    0    0    0    0  0.00000000000E+00  0.00000000000E+00  0.74505805969E-08  0.10566000000E+00  0.10566000000E+00 0.  1.
     999900   -1    0    0    0    0 -0.00000000000E+00 -0.00000000000E+00 -0.74505805969E-08  0.93827000000E+00  0.93827000000E+00 0.  1.
     999902    2    1    2    0    0  0.18301093918E-01  0.15245837662E-01 -0.21531654948E-03  0.10201095893E+01  0.10198314381E+01 0.  0.
     999903    2    3    3    0    0 -0.27804388797E-01 -0.91868625051E-01  0.83082868344E-01  0.12851673869E+00  0.20021508571E-01 0.  0.
         14    1    1    2    0    0 -0.18301093918E-01 -0.15245837662E-01  0.21531654948E-03  0.23820410698E-01  0.00000000000E+00 0. -1.
     999901    1    3    3    0    0  0.46105482715E-01  0.10711446271E+00 -0.83298184894E-01  0.89159285061E+00  0.88000000000E+00 0. -1.
        -11    1    4    4    0    0 -0.24933395864E-01 -0.58574993069E-01  0.62786794784E-01  0.89415584562E-01  0.51100000000E-03 0.  1.
         11    1    4    4    0    0 -0.28709929328E-02 -0.33293631982E-01  0.20296073561E-01  0.39101154126E-01  0.51100000000E-03 0. -1.
</event>
<event>
 8    1  0.1132255E+005  0.1043930E+01  0.7957747E-01            NaN
         13   -1    0    0    0    0  0.00000000000E+00  0.00000000000E+00  0.74505805969E-08  0.10566000000E+00  0.10566000000E+00 0.  1.
     999900   -1    0    0    0    0 -0.00000000000E+00 -0.00000000000E+00 -0.74505805969E-08  0.93827000000E+00  0.93827000000E+00 0. -1.
     999902    2    1    2    0    0 -0.23284702178E-01 -0.45630095060E-03  0.14772284804E-02  0.10205940241E+01  0.10203271996E+01 0.  0.
     999903    2    3    3    0    0 -0.12114403200E+00 -0.41485692575E-01 -0.32111688117E-01  0.13358327181E+00  0.20405656443E-01 0.  0.
         14    1    1    2    0    0  0.23284702178E-01  0.45630095060E-03 -0.14772284804E-02  0.23335975876E-01  0.00000000000E+00 0. -1.
     999901    1    3    3    0    0  0.97859329823E-01  0.41029391624E-01  0.33588916597E-01  0.88701075232E+00  0.88000000000E+00 0.  1.
        -11    1    4    4    0    0 -0.11125387589E+00 -0.33430875061E-01 -0.24512962936E-01  0.11872739693E+00  0.51100000000E-03 0.  1.
         11    1    4    4    0    0 -0.98901561106E-02 -0.80548175138E-02 -0.75987251812E-02  0.14855874880E-01  0.51100000000E-03 0. -1.
</event>
<event>
 7    1  0.1132255E+005  0.1043930E+01  0.7957747E-01            NaN
         13   -1    0    0    0    0  0.00000000000E+00  0.00000000000E+00  0.74505805969E-08  0.10566000000E+00  0.10566000000E+00 0. -1.
     999900   -1    0    0    0    0 -0.00000000000E+00 -0.00000000000E+00 -0.74505805969E-08  0.93827000000E+00  0.93827000000E+00 0. -1.
     999903    2    1    2    0    0  0.61068213421E-01 -0.48454696947E-01  0.78292411135E-01  0.11227922682E+00  0.19993468628E-01 0.  0.
         14    1    1    2    0    0  0.27345215141E-01 -0.21716260134E-01  0.17903335315E-01  0.39241383267E-01  0.00000000000E+00 0. -1.
     999901    1    1    2    0    0 -0.88413428561E-01  0.70170957081E-01 -0.96195746450E-01  0.89240938991E+00  0.88000000000E+00 0.  1.
        -11    1    3    3    0    0  0.14209777312E-01 -0.15152501002E-01  0.33410123784E-01  0.39344803343E-01  0.51100000000E-03 0.  1.
         11    1    3    3    0    0  0.46858436108E-01 -0.33302195945E-01  0.44882287351E-01  0.72934423478E-01  0.51100000000E-03 0. -1.
</event>
<event>
 8    1  0.1132255E+005  0.1043930E+01  0.7957747E-01            NaN
         13   -1    0    0    0    0  0.00000000000E+00  0.00000000000E+00  0.74505805969E-08  0.10566000000E+00  0.10566000000E+00 0. -1.
     999900   -1    0    0    0    0 -0.00000000000E+00 -0.00000000000E+00 -0.74505805969E-08  0.93827000000E+00  0.93827000000E+00 0. -1.
     999902    2    1    2    0    0  0.71383654100E-02 -0.15691684878E-01  0.14040849419E-01  0.10216964513E+01  0.10214545060E+01 0.  0.
     999903    2    3    3    0    0 -0.41377749128E-02 -0.67645393874E-01  0.11436133326E+00  0.13440250977E+00  0.19811602473E-01 0.  0.
         14    1    1    2    0    0 -0.71383654100E-02  0.15691684878E-01 -0.14040849419E-01  0.22233548692E-01  0.00000000000E+00 0.  1.
     999901    1    3    3    0    0  0.11276140323E-01  0.51953708997E-01 -0.10032048384E+00  0.88729394154E+00  0.88000000000E+00 0.  1.
        -11    1    4    4    0    0  0.16858137184E-02 -0.34429837968E-01  0.40369619078E-01  0.53086937903E-01  0.51100000000E-03 0. -1.
         11    1    4    4    0    0 -0.58235886313E-02 -0.33215555906E-01  0.73991714183E-01  0.81315571863E-01  0.51100000000E-03 0.  1.
</event>
<event>
 8    1  0.1132255E+005  0.1043930E+01  0.7957747E-01            NaN
         13   -1    0    0    0    0  0.00000000000E+00  0.00000000000E+00  0.74505805969E-08  0.10566000000E+00  0.10566000000E+00 0.  1.
     999900   -1    0    0    0    0 -0.00000000000E+00 -0.00000000000E+00 -0.74505805969E-08  0.93827000000E+00  0.93827000000E+00 0.  1.
     999902    2    1    2    0    0 -0.13607373588E-02  0.21814425803E-01 -0.84199421087E-02  0.10205074424E+01  0.10202386112E+01 0.  0.
     999903    2    3    3    0    0 -0.93321445747E-01  0.44308472259E-01 -0.79835213239E-01  0.13255311083E+00  0.22902684711E-01 0.  0.
         14    1    1    2    0    0  0.13607373588E-02 -0.21814425803E-01  0.84199421087E-02  0.23422557597E-01  0.00000000000E+00 0. -1.
     999901    1    3    3    0    0  0.91960708388E-01 -0.22494046456E-01  0.71415271130E-01  0.88795433158E+00  0.88000000000E+00 0. -1.
        -11    1    4    4    0    0 -0.39490617872E-01  0.22220981767E-01 -0.48838243509E-01  0.66623690086E-01  0.51100000000E-03 0. -1.
         11    1    4    4    0    0 -0.53830827875E-01  0.22087490491E-01 -0.30996969730E-01  0.65929420742E-01  0.51100000000E-03 0.  1.
</event>
<event>
 8    1  0.1132255E+005  0.1043930E+01  0.7957747E-01            NaN
         13   -1    0    0    0    0  0.00000000000E+00  0.00000000000E+00  0.74505805969E-08  0.10566000000E+00  0.10566000000E+00 0.  1.
     999900   -1    0    0    0    0 -0.00000000000E+00 -0.00000000000E+00 -0.74505805969E-08  0.93827000000E+00  0.93827000000E+00 0.  1.
     999902    2    1    2    0    0 -0.15452460335E-01 -0.17222408344E-01 -0.38924494908E-02  0.10204663890E+01  0.10201966036E+01 0.  0.
     999903    2    3    3    0    0 -0.21758474762E-01  0.56648704810E-01  0.11277770589E+00  0.12967537401E+00  0.20356441224E-01 0.  0.
         14    1    1    2    0    0  0.15452460335E-01  0.17222408344E-01  0.38924494908E-02  0.23463611030E-01  0.00000000000E+00 0. -1.
     999901    1    3    3    0    0  0.63060144278E-02 -0.73871113154E-01 -0.11667015538E+00  0.89079101496E+00  0.88000000000E+00 0. -1.
        -11    1    4    4    0    0 -0.19728120671E-01  0.33251519428E-01  0.54340026931E-01  0.66693042646E-01  0.51100000000E-03 0.  1.
         11    1    4    4    0    0 -0.20303540910E-02  0.23397185382E-01  0.58437678954E-01  0.62982331364E-01  0.51100000000E-03 0. -1.
</event>
<event>
 8    1  0.1132255E+005  0.1043930E+01  0.7957747E-01            NaN
         13   -1    0    0    0    0  0.00000000000E+00  0.00000000000E+00  0.74505805969E-08  0.10566000000E+00  0.10566000000E+00 0. -1.
     999900   -1    0    0    0    0 -0.00000000000E+00 -0.00000000000E+00 -0.74505805969E-08  0.93827000000E+00  0.93827000000E+00 0. -1.
     999902    2    1    2    0    0  0.23037681225E-01  0.58270153985E-02  0.17606244037E-02  0.10201016836E+01  0.10198233456E+01 0.  0.
     999903    2    3    3    0    0  0.12018248223E+00  0.42603410016E-01 -0.36977718876E-01  0.13314606192E+00  0.10081792151E-01 0.  0.
         14    1    1    2    0    0 -0.23037681225E-01 -0.58270153985E-02 -0.17606244037E-02  0.23828316410E-01  0.00000000000E+00 0. -1.
     999901    1    3    3    0    0 -0.97144801005E-01 -0.36776394617E-01  0.38738343280E-01  0.88695562167E+00  0.88000000000E+00 0.  1.
        -11    1    4    4    0    0  0.45317743158E-01  0.15744042816E-01 -0.88933578493E-02  0.48794729879E-01  0.51100000000E-03 0.  1.
         11    1    4    4    0    0  0.74864739071E-01  0.26859367199E-01 -0.28084361027E-01  0.84351332045E-01  0.51100000000E-03 0. -1.
</event>
<event>
 8    1  0.1132255E+005  0.1043930E+01  0.7957747E-01            NaN
         13   -1    0    0    0    0  0.00000000000E+00  0.00000000000E+00  0.74505805969E-08  0.10566000000E+00  0.10566000000E+00 0. -1.
     999900   -1    0    0    0    0 -0.00000000000E+00 -0.00000000000E+00 -0.74505805969E-08  0.93827000000E+00  0.93827000000E+00 0. -1.
     999902    2    1    2    0    0 -0.10381939086E-01 -0.19042480847E-01  0.10438445493E-01  0.10198600627E+01  0.10195759833E+01 0.  0.
     999903    2    3    3    0    0 -0.30613599942E-01  0.12283251765E+00  0.35036386667E-03  0.12821012879E+00  0.20314883106E-01 0.  0.
         14    1    1    2    0    0  0.10381939086E-01  0.19042480847E-01 -0.10438445493E-01  0.24069937273E-01  0.00000000000E+00 0.  1.
     999901    1    3    3    0    0  0.20231660857E-01 -0.14187499850E+00  0.10088081627E-01  0.89164993394E+00  0.88000000000E+00 0.  1.
        -11    1    4    4    0    0 -0.75912178215E-03  0.32129862879E-01 -0.51871554150E-02  0.32558747777E-01  0.51100000000E-03 0.  1.
         11    1    4    4    0    0 -0.29854478160E-01  0.90702654772E-01  0.55375192817E-02  0.95651381013E-01  0.51100000000E-03 0. -1.
</event>
<event>
 8    1  0.1132255E+005  0.1043930E+01  0.7957747E-01            NaN
         13   -1    0    0    0    0  0.00000000000E+00  0.00000000000E+00  0.74505805969E-08  0.10566000000E+00  0.10566000000E+00 0.  1.
     999900   -1    0    0    0    0 -0.00000000000E+00 -0.00000000000E+00 -0.74505805969E-08  0.93827000000E+00  0.93827000000E+00 0. -1.
     999902    2    1    2    0    0  0.71262550512E-02  0.21600078905E-01 -0.60594488938E-02  0.10203914393E+01  0.10201199074E+01 0.  0.
     999903    2    3    3    0    0  0.11152901209E-01 -0.12381176787E+00  0.22327550786E-01  0.12799766924E+00  0.20763976933E-01 0.  0.
         14    1    1    2    0    0 -0.71262550512E-02 -0.21600078905E-01  0.60594488938E-02  0.23538560717E-01  0.00000000000E+00 0. -1.
     999901    1    3    3    0    0 -0.40266461580E-02  0.14541184677E+00 -0.28386999679E-01  0.89239377004E+00  0.88000000000E+00 0.  1.
        -11    1    4    4    0    0  0.14403079424E-01 -0.73581209405E-01  0.66454731581E-02  0.75273278850E-01  0.51100000000E-03 0.  1.
         11    1    4    4    0    0 -0.32501782152E-02 -0.50230558466E-01  0.15682077628E-01  0.52724390389E-01  0.51100000000E-03 0. -1.
</event>
<event>
 8    1  0.1132255E+005  0.1043930E+01  0.7957747E-01            NaN
         13   -1    0    0    0    0  0.00000000000E+00  0.00000000000E+00  0.74505805969E-08  0.10566000000E+00  0.10566000000E+00 0. -1.
     999900   -1    0    0    0    0 -0.00000000000E+00 -0.00000000000E+00 -0.74505805969E-08  0.93827000000E+00  0.93827000000E+00 0. -1.
     999902    2    1    2    0    0  0.56760161376E-02 -0.43858440217E-02  0.22831386138E-01  0.10199983268E+01  0.10197175402E+01 0.  0.
     999903    2    3    3    0    0  0.82382496573E-01  0.97612194537E-01 -0.19296785373E-01  0.12979482941E+00  0.12622026463E-01 0.  0.
         14    1    1    2    0    0 -0.56760161376E-02  0.43858440217E-02 -0.22831386138E-01  0.23931673155E-01  0.00000000000E+00 0.  1.
     999901    1    3    3    0    0 -0.76706480436E-01 -0.10199803856E+00  0.42128171512E-01  0.89020349743E+00  0.88000000000E+00 0.  1.
        -11    1    4    4    0    0  0.21568273120E-01  0.31411260293E-01 -0.13823450106E-02  0.38131741073E-01  0.51100000000E-03 0. -1.
         11    1    4    4    0    0  0.60814223453E-01  0.66200934244E-01 -0.17914440363E-01  0.91663088337E-01  0.51100000000E-03 0.  1.
</event>
<event>
 8    1  0.1132255E+005  0.1043930E+01  0.7957747E-01            NaN
         13   -1    0    0    0    0  0.00000000000E+00  0.00000000000E+00  0.74505805969E-08  0.10566000000E+00  0.10566000000E+00 0.  1.
     999900   -1    0    0    0    0 -0.00000000000E+00 -0.00000000000E+00 -0.74505805969E-08  0.93827000000E+00  0.93827000000E+00 0. -1.
     999902    2    1    2    0    0 -0.30481454337E-02  0.44045370655E-02 -0.23018926691E-01  0.10202960811E+01  0.10200223188E+01 0.  0.
     999903    2    3    3    0    0  0.11810149873E+00  0.19519717279E-01 -0.50619341955E-01  0.13143867527E+00  0.19616936820E-01 0.  0.
         14    1    1    2    0    0  0.30481454337E-02 -0.44045370655E-02  0.23018926691E-01  0.23633918917E-01  0.00000000000E+00 0.  1.
     999901    1    3    3    0    0 -0.12114964417E+00 -0.15115180213E-01  0.27600415264E-01  0.88885740582E+00  0.88000000000E+00 0.  1.
        -11    1    4    4    0    0  0.34498496786E-01  0.74524620753E-02 -0.24695824821E-01  0.43079349532E-01  0.51100000000E-03 0. -1.
         11    1    4    4    0    0  0.83603001946E-01  0.12067255204E-01 -0.25923517133E-01  0.88359325734E-01  0.51100000000E-03 0.  1.
</event>
<event>
 8    1  0.1132255E+005  0.1043930E+01  0.7957747E-01            NaN
         13   -1    0    0    0    0  0.00000000000E+00  0.00000000000E+00  0.74505805969E-08  0.10566000000E+00  0.10566000000E+00 0.  1.
     999900   -1    0    0    0    0 -0.00000000000E+00 -0.00000000000E+00 -0.74505805969E-08  0.93827000000E+00  0.93827000000E+00 0. -1.
     999902    2    1    2    0    0 -0.14827952206E-01  0.17335973049E-01  0.98837485520E-03  0.10210962309E+01  0.10208408944E+01 0.  0.
     999903    2    3    3    0    0 -0.99057321791E-01 -0.22526300721E-01 -0.81147429486E-01  0.13237249543E+00  0.24855281310E-01 0.  0.
         14    1    1    2    0    0  0.14827952206E-01 -0.17335973049E-01 -0.98837485520E-03  0.22833769137E-01  0.00000000000E+00 0.  1.
     999901    1    3    3    0    0  0.84229369584E-01  0.39862273770E-01  0.82135804342E-01  0.88872373543E+00  0.88000000000E+00 0.  1.
        -11    1    4    4    0    0 -0.45179759331E-01 -0.20890684273E-01 -0.47642386895E-01  0.68903479539E-01  0.51100000000E-03 0. -1.
         11    1    4    4    0    0 -0.53877562460E-01 -0.16356164485E-02 -0.33505042591E-01  0.63469015888E-01  0.51100000000E-03 0.  1.
</event>
<event>
 8    1  0.1132255E+005  0.1043930E+01  0.7957747E-01            NaN
         13   -1    0    0    0    0  0.00000000000E+00  0.00000000000E+00  0.74505805969E-08  0.10566000000E+00  0.10566000000E+00 0.  1.
     999900   -1    0    0    0    0 -0.00000000000E+00 -0.00000000000E+00 -0.74505805969E-08  0.93827000000E+00  0.93827000000E+00 0.  1.
     999902    2    1    2    0    0 -0.10909904156E-01  0.21275716480E-01 -0.86955351502E-03  0.10200043183E+01  0.10197236739E+01 0.  0.
     999903    2    3    3    0    0 -0.67249883012E-01 -0.53998388634E-01  0.95304797881E-01  0.12978530595E+00  0.17967982687E-01 0.  0.
         14    1    1    2    0    0  0.10909904156E-01 -0.21275716480E-01  0.86955351502E-03  0.23925681678E-01  0.00000000000E+00 0.  1.
     999901    1    3    3    0    0  0.56339978856E-01  0.75274105114E-01 -0.96174351396E-01  0.89021901237E+00  0.88000000000E+00 0.  1.
        -11    1    4    4    0    0 -0.51181866824E-01 -0.32147487555E-01  0.72129800340E-01  0.94106395456E-01  0.51100000000E-03 0. -1.
         11    1    4    4    0    0 -0.16068016188E-01 -0.21850901078E-01  0.23174997541E-01  0.35678910496E-01  0.51100000000E-03 0.  1.
</event>
<event>
 8    1  0.1132255E+005  0.1043930E+01  0.7957747E-01            NaN
         13   -1    0    0    0    0  0.00000000000E+00  0.00000000000E+00  0.74505805969E-08  0.10566000000E+00  0.10566000000E+00 0. -1.
     999900   -1    0    0    0    0 -0.00000000000E+00 -0.00000000000E+00 -0.74505805969E-08  0.93827000000E+00  0.93827000000E+00 0. -1.
     999902    2    1    2    0    0  0.11807480562E-01 -0.16431726657E-02 -0.28135917526E-01  0.10133727346E+01  0.10129119176E+01 0.  0.
     999903    2    3    3    0    0 -0.70614366214E-01  0.95117145382E-01 -0.31655453657E-01  0.12423365262E+00  0.19956769161E-01 0.  0.
         14    1    1    2    0    0 -0.11807480562E-01  0.16431726657E-02  0.28135917526E-01  0.30557265399E-01  0.00000000000E+00 0. -1.
     999901    1    3    3    0    0  0.82421846776E-01 -0.96760318047E-01  0.35195361318E-02  0.88913908198E+00  0.88000000000E+00 0. -1.
        -11    1    4    4    0    0 -0.68714044912E-01  0.89302469989E-01 -0.25477611766E-01  0.11552454690E+00  0.51100000000E-03 0. -1.
         11    1    4    4    0    0 -0.19003213019E-02  0.58146753931E-02 -0.61778418912E-02  0.87091057182E-02  0.51100000000E-03 0.  1.
</event>
<event>
 8    1  0.1132255E+005  0.1043930E+01  0.7957747E-01            NaN
         13   -1    0    0    0    0  0.00000000000E+00  0.00000000000E+00  0.74505805969E-08  0.10566000000E+00  0.10566000000E+00 0. -1.
     999900   -1    0    0    0    0 -0.00000000000E+00 -0.00000000000E+00 -0.74505805969E-08  0.93827000000E+00  0.93827000000E+00 0. -1.
     999902    2    1    2    0    0 -0.14435682946E-01  0.18318829571E-01 -0.40728117794E-02  0.10202539308E+01  0.10199791797E+01 0.  0.
     999903    2    3    3    0    0 -0.11360781181E-01 -0.11497564339E+00 -0.55087279452E-01  0.12874995014E+00  0.13909542854E-01 0.  0.
         14    1    1    2    0    0  0.14435682946E-01 -0.18318829571E-01  0.40728117794E-02  0.23676069242E-01  0.00000000000E+00 0. -1.
     999901    1    3    3    0    0 -0.30749017646E-02  0.13329447296E+00  0.51014467672E-01  0.89150398062E+00  0.88000000000E+00 0.  1.
        -11    1    4    4    0    0 -0.62190443729E-02 -0.70197681186E-01 -0.26067031060E-01  0.75140815713E-01  0.51100000000E-03 0. -1.
         11    1    4    4    0    0 -0.51417368085E-02 -0.44777962203E-01 -0.29020248391E-01  0.53609134428E-01  0.51100000000E-03 0.  1.
</event>
<event>
 8    1  0.1132255E+005  0.1043930E+01  0.7957747E-01            NaN
         13   -1    0    0    0    0  0.00000000000E+00  0.00000000000E+00  0.74505805969E-08  0.10566000000E+00  0.10566000000E+00 0.  1.
     999900   -1    0    0    0    0 -0.00000000000E+00 -0.00000000000E+00 -0.74505805969E-08  0.93827000000E+00  0.93827000000E+00 0. -1.
     999902    2    1    2    0    0  0.19851589997E-01  0.12727681697E-01 -0.47620790790E-02  0.10198726331E+01  0.10195888538E+01 0.  0.
     999903    2    3    3    0    0  0.12107455831E+00 -0.17378735619E-01 -0.47095461050E-01  0.13254822739E+00  0.19747936854E-01 0.  0.
         14    1    1    2    0    0 -0.19851589997E-01 -0.12727681697E-01  0.47620790790E-02  0.24057366937E-01  0.00000000000E+00 0. -1.
     999901    1    3    3    0    0 -0.10122296832E+00  0.30106417316E-01  0.42333381971E-01  0.88732440568E+00  0.88000000000E+00 0.  1.
        -11    1    4    4    0    0  0.44787184882E-01 -0.71706181599E-02 -0.27785136905E-01  0.53193840323E-01  0.51100000000E-03 0. -1.
         11    1    4    4    0    0  0.76287373430E-01 -0.10208117459E-01 -0.19310324145E-01  0.79354387065E-01  0.51100000000E-03 0.  1.
</event>
<event>
 8    1  0.1132255E+005  0.1043930E+01  0.7957747E-01            NaN
         13   -1    0    0    0    0  0.00000000000E+00  0.00000000000E+00  0.74505805969E-08  0.10566000000E+00  0.10566000000E+00 0. -1.
     999900   -1    0    0    0    0 -0.00000000000E+00 -0.00000000000E+00 -0.74505805969E-08  0.93827000000E+00  0.93827000000E+00 0. -1.
     999902    2    1    2    0    0 -0.21462706225E-02 -0.18665546696E-01 -0.13948615145E-01  0.10205297227E+01  0.10202614087E+01 0.  0.
     999903    2    3    3    0    0  0.42159226272E-01 -0.17081854882E-01 -0.12317844091E+00  0.13266901297E+00  0.18945938070E-01 0.  0.
         14    1    1    2    0    0  0.21462706225E-02  0.18665546696E-01  0.13948615145E-01  0.23400277253E-01  0.00000000000E+00 0. -1.
     999901    1    3    3    0    0 -0.44305496894E-01 -0.15836918143E-02  0.10922982577E+00  0.88786070978E+00  0.88000000000E+00 0.  1.
        -11    1    4    4    0    0  0.36332232295E-01 -0.10706423022E-01 -0.78515268099E-01  0.87175495657E-01  0.51100000000E-03 0. -1.
         11    1    4    4    0    0  0.58269939768E-02 -0.63754318603E-02 -0.44663172816E-01  0.45493517309E-01  0.51100000000E-03 0.  1.
</event>
<event>
 8    1  0.1132255E+005  0.1043930E+01  0.7957747E-01            NaN
         13   -1    0    0    0    0  0.00000000000E+00  0.00000000000E+00  0.74505805969E-08  0.10566000000E+00  0.10566000000E+00 0.  1.
     999900   -1    0    0    0    0 -0.00000000000E+00 -0.00000000000E+00 -0.74505805969E-08  0.93827000000E+00  0.93827000000E+00 0.  1.
     999902    2    1    2    0    0 -0.38686766718E-02 -0.10911625645E-01  0.20129861820E-01  0.10207084245E+01  0.10204442396E+01 0.  0.
     999903    2    3    3    0    0  0.24239154192E-01 -0.13661081778E-01 -0.12386053353E+00  0.12855886099E+00  0.20292540987E-01 0.  0.
         14    1    1    2    0    0  0.38686766718E-02  0.10911625645E-01 -0.20129861820E-01  0.23221575534E-01  0.00000000000E+00 0. -1.
     999901    1    3    3    0    0 -0.28107830864E-01  0.27494561332E-02  0.14399039535E+00  0.89214956348E+00  0.88000000000E+00 0. -1.
        -11    1    4    4    0    0  0.26363825896E-01 -0.13628326739E-01 -0.93020204017E-01  0.97641190498E-01  0.51100000000E-03 0.  1.
         11    1    4    4    0    0 -0.21246717037E-02 -0.32755038817E-04 -0.30840329515E-01  0.30917670487E-01  0.51100000000E-03 0. -1.
</event>
<event>
 8    1  0.1132255E+005  0.1043930E+01  0.7957747E-01            NaN
         13   -1    0    0    0    0  0.00000000000E+00  0.00000000000E+00  0.74505805969E-08  0.10566000000E+00  0.10566000000E+00 0.  1.
     999900   -1    0    0    0    0 -0.00000000000E+00 -0.00000000000E+00 -0.74505805969E-08  0.93827000000E+00  0.93827000000E+00 0. -1.
     999902    2    1    2    0    0  0.45085587094E-02 -0.23066174777E-01  0.35555821442E-02  0.10201598994E+01  0.10198829357E+01 0.  0.
     999903    2    3    3    0    0  0.65973894822E-01  0.65070903976E-01 -0.87427645228E-01  0.12896739497E+00  0.20055385162E-01 0.  0.
         14    1    1    2    0    0 -0.45085587094E-02  0.23066174777E-01 -0.35555821442E-02  0.23770100649E-01  0.00000000000E+00 0.  1.
     999901    1    3    3    0    0 -0.61465336113E-01 -0.88137078753E-01  0.90983227372E-01  0.89119250438E+00  0.88000000000E+00 0.  1.
        -11    1    4    4    0    0  0.10004606576E-01  0.21891874455E-01 -0.20519381435E-01  0.31633091145E-01  0.51100000000E-03 0.  1.
         11    1    4    4    0    0  0.55969288246E-01  0.43179029521E-01 -0.66908263793E-01  0.97334303829E-01  0.51100000000E-03 0. -1.
</event>
<event>
 8    1  0.1132255E+005  0.1043930E+01  0.7957747E-01            NaN
         13   -1    0    0    0    0  0.00000000000E+00  0.00000000000E+00  0.74505805969E-08  0.10566000000E+00  0.10566000000E+00 0. -1.
     999900   -1    0    0    0    0 -0.00000000000E+00 -0.00000000000E+00 -0.74505805969E-08  0.93827000000E+00  0.93827000000E+00 0.  1.
     999902    2    1    2    0    0 -0.87625312165E-02 -0.56313624860E-03  0.22876604799E-01  0.10194261611E+01  0.10191316204E+01 0.  0.
     999903    2    3    3    0    0 -0.29529125602E-01 -0.11613017968E-01  0.12747707941E+00  0.13291918950E+00  0.20255214610E-01 0.  0.
         14    1    1    2    0    0  0.87625312165E-02  0.56313624860E-03 -0.22876604799E-01  0.24503838942E-01  0.00000000000E+00 0.  1.
     999901    1    3    3    0    0  0.20766594386E-01  0.11049881720E-01 -0.10460047461E+00  0.88650697156E+00  0.88000000000E+00 0.  1.
        -11    1    4    4    0    0 -0.13286373908E-01 -0.86965518123E-02  0.28992954312E-01  0.33060705766E-01  0.51100000000E-03 0.  1.
         11    1    4    4    0    0 -0.16242751694E-01 -0.29164661559E-02  0.98484125095E-01  0.99858483736E-01  0.51100000000E-03 0. -1.
</event>
<event>
 8    1  0.1132255E+005  0.1043930E+01  0.7957747E-01            NaN
         13   -1    0    0    0    0  0.00000000000E+00  0.00000000000E+00  0.74505805969E-08  0.10566000000E+00  0.10566000000E+00 0. -1.
     999900   -1    0    0    0    0 -0.00000000000E+00 -0.00000000000E+00 -0.74505805969E-08  0.93827000000E+00  0.93827000000E+00 0. -1.
     999902    2    1    2    0    0 -0.30519419357E-02 -0.22619030505E-01 -0.45408231357E-02  0.10206586879E+01  0.10203933571E+01 0.  0.
     999903    2    3    3    0    0 -0.57858707244E-01  0.96059582730E-01 -0.60948670808E-01  0.12921590231E+00  0.20172642319E-01 0.  0.
         14    1    1    2    0    0  0.30519419357E-02  0.22619030505E-01  0.45408231357E-02  0.23271312067E-01  0.00000000000E+00 0. -1.
     999901    1    3    3    0    0  0.54806765308E-01 -0.11867861323E+00  0.56407847673E-01  0.89144278562E+00  0.88000000000E+00 0. -1.
        -11    1    4    4    0    0 -0.21321584048E-01  0.34181718151E-01 -0.33114771622E-01  0.52152171793E-01  0.51100000000E-03 0.  1.
         11    1    4    4    0    0 -0.36537123196E-01  0.61877864578E-01 -0.27833899186E-01  0.77063730516E-01  0.51100000000E-03 0. -1.
</event>
<event>
 8    1  0.1132255E+005  0.1043930E+01  0.7957747E-01            NaN
         13   -1    0    0    0    0  0.00000000000E+00  0.00000000000E+00  0.74505805969E-08  0.10566000000E+00  0.10566000000E+00 0. -1.
     999900   -1    0    0    0    0 -0.00000000000E+00 -0.00000000000E+00 -0.74505805969E-08  0.93827000000E+00  0.93827000000E+00 0. -1.
     999902    2    1    2    0    0  0.21250054762E-01  0.35739459286E-03  0.99747696481E-02  0.10204525941E+01  0.10201824877E+01 0.  0.
     999903    2    3    3    0    0 -0.56282219814E-01 -0.93280588420E-01  0.68691406929E-01  0.13015659335E+00  0.18795556990E-01 0.  0.
         14    1    1    2    0    0 -0.21250054762E-01 -0.35739459286E-03 -0.99747696481E-02  0.23477405900E-01  0.00000000000E+00 0. -1.
     999901    1    3    3    0    0  0.77532274576E-01  0.93637983013E-01 -0.58716637281E-01  0.89029600075E+00  0.88000000000E+00 0. -1.
        -11    1    4    4    0    0 -0.46560321162E-01 -0.63450160845E-01  0.54419958819E-01  0.95684792192E-01  0.51100000000E-03 0.  1.
         11    1    4    4    0    0 -0.97218986524E-02 -0.29830427575E-01  0.14271448110E-01  0.34471801155E-01  0.51100000000E-03 0. -1.
</event>
<event>
 8    1  0.1132255E+005  0.1043930E+01  0.7957747E-01            NaN
         13   -1    0    0    0    0  0.00000000000E+00  0.00000000000E+00  0.74505805969E-08  0.10566000000E+00  0.10566000000E+00 0.  1.
     999900   -1    0    0    0    0 -0.00000000000E+00 -0.00000000000E+00 -0.74505805969E-08  0.93827000000E+00  0.93827000000E+00 0.  1.
     999902    2    1    2    0    0  0.20197513264E-01  0.11376473450E-01  0.45972100335E-02  0.10202974371E+01  0.10200237066E+01 0.  0.
     999903    2    3    3    0    0  0.44488929828E-01  0.12039187783E+00  0.24881169142E-01  0.13300612623E+00  0.24455835953E-01 0.  0.
         14    1    1    2    0    0 -0.20197513264E-01 -0.11376473450E-01 -0.45972100335E-02  0.23632562923E-01  0.00000000000E+00 0. -1.
     999901    1    3    3    0    0 -0.24291416564E-01 -0.10901540438E+00 -0.20283959109E-01  0.88729131085E+00  0.88000000000E+00 0. -1.
        -11    1    4    4    0    0  0.34797480853E-01  0.75336382781E-01  0.25812396532E-01  0.86907860289E-01  0.51100000000E-03 0. -1.
         11    1    4    4    0    0  0.96914489745E-02  0.45055495047E-01 -0.93122738994E-03  0.46098265940E-01  0.51100000000E-03 0.  1.
</event>
<event>
 8    1  0.1132255E+005  0.1043930E+01  0.7957747E-01            NaN
         13   -1    0    0    0    0  0.00000000000E+00  0.00000000000E+00  0.74505805969E-08  0.10566000000E+00  0.10566000000E+00 0. -1.
     999900   -1    0    0    0    0 -0.00000000000E+00 -0.00000000000E+00 -0.74505805969E-08  0.93827000000E+00  0.93827000000E+00 0. -1.
     999902    2    1    2    0    0 -0.16428446745E-01 -0.12266587003E-01 -0.11947345699E-01  0.10202002278E+01  0.10199242142E+01 0.  0.
     999903    2    3    3    0    0  0.26716397884E-01 -0.97024989552E-01  0.80459325218E-01  0.13026514183E+00  0.19175235278E-01 0.  0.
         14    1    1    2    0    0  0.16428446745E-01  0.12266587003E-01  0.11947345699E-01  0.23729772194E-01  0.00000000000E+00 0. -1.
     999901    1    3    3    0    0 -0.43144844629E-01  0.84758402550E-01 -0.92406670917E-01  0.88993508598E+00  0.88000000000E+00 0.  1.
        -11    1    4    4    0    0  0.19300909558E-01 -0.39153097242E-01  0.28487770878E-01  0.52127769413E-01  0.51100000000E-03 0. -1.
         11    1    4    4    0    0  0.74154883257E-02 -0.57871892311E-01  0.51971554340E-01  0.78137372417E-01  0.51100000000E-03 0.  1.
</event>
<event>
 8    1  0.1132255E+005  0.1043930E+01  0.7957747E-01            NaN
         13   -1    0    0    0    0  0.00000000000E+00  0.00000000000E+00  0.74505805969E-08  0.10566000000E+00  0.10566000000E+00 0.  1.
     999900   -1    0    0    0    0 -0.00000000000E+00 -0.00000000000E+00 -0.74505805969E-08  0.93827000000E+00  0.93827000000E+00 0. -1.
     999902    2    1    2    0    0 -0.23651293470E-01  0.11277758248E-02 -0.14375688385E-02  0.10202082344E+01  0.10199324092E+01 0.  0.
     999903    2    3    3    0    0 -0.20804363375E-01  0.91440107446E-01  0.90157393855E-01  0.13085225420E+00  0.14136547543E-01 0.  0.
         14    1    1    2    0    0  0.23651293470E-01 -0.11277758248E-02  0.14375688385E-02  0.23721765645E-01  0.00000000000E+00 0. -1.
     999901    1    3    3    0    0 -0.28469300951E-02 -0.90312331621E-01 -0.91594962693E-01  0.88935598016E+00  0.88000000000E+00 0. -1.
        -11    1    4    4    0    0 -0.76974381345E-02  0.49098410170E-01  0.39098279582E-01  0.63236390016E-01  0.51100000000E-03 0. -1.
         11    1    4    4    0    0 -0.13106925241E-01  0.42341697276E-01  0.51059114273E-01  0.67615864180E-01  0.51100000000E-03 0.  1.
</event>
<event>
 8    1  0.1132255E+005  0.1043930E+01  0.7957747E-01            NaN
         13   -1    0    0    0    0  0.00000000000E+00  0.00000000000E+00  0.74505805969E-08  0.10566000000E+00  0.10566000000E+00 0.  1.
     999900   -1    0    0    0    0 -0.00000000000E+00 -0.00000000000E+00 -0.74505805969E-08  0.93827000000E+00  0.93827000000E+00 0.  1.
     999902    2    1    2    0    0  0.22333501561E-01  0.38864134254E-02  0.51900389523E-02  0.10206743339E+01  0.10204093639E+01 0.  0.
     999903    2    3    3    0    0  0.14125178097E-01 -0.11579813636E+00 -0.55827033687E-01  0.13044130195E+00  0.17016066625E-01 0.  0.
         14    1    1    2    0    0 -0.22333501561E-01 -0.38864134254E-02 -0.51900389523E-02  0.23255666097E-01  0.00000000000E+00 0.  1.
     999901    1    3    3    0    0  0.82083234638E-02  0.11968454978E+00  0.61017072639E-01  0.89023303196E+00  0.88000000000E+00 0. -1.
        -11    1    4    4    0    0 -0.14992620172E-02 -0.26587309334E-01 -0.69591779698E-02  0.27528604818E-01  0.51100000000E-03 0.  1.
         11    1    4    4    0    0  0.15624440114E-01 -0.89210827024E-01 -0.48867855717E-01  0.10291269713E+00  0.51100000000E-03 0. -1.
</event>
<event>
 8    1  0.1132255E+005  0.1043930E+01  0.7957747E-01            NaN
         13   -1    0    0    0    0  0.00000000000E+00  0.00000000000E+00  0.74505805969E-08  0.10566000000E+00  0.10566000000E+00 0. -1.
     999900   -1    0    0    0    0 -0.00000000000E+00 -0.00000000000E+00 -0.74505805969E-08  0.93827000000E+00  0.93827000000E+00 0.  1.
     999902    2    1    2    0    0  0.16108150638E-02 -0.14824571385E-01 -0.18451325378E-01  0.10202062977E+01  0.10199304270E+01 0.  0.
     999903    2    3    3    0    0 -0.42680335507E-01  0.11680336169E+00 -0.29145290911E-01  0.12925064243E+00  0.19790003659E-01 0.  0.
         14    1    1    2    0    0 -0.16108150638E-02  0.14824571385E-01  0.18451325378E-01  0.23723702285E-01  0.00000000000E+00 0. -1.
     999901    1    3    3    0    0  0.44291150570E-01 -0.13162793308E+00  0.10693965533E-01  0.89095565528E+00  0.88000000000E+00 0. -1.
        -11    1    4    4    0    0 -0.16933333758E-01  0.28423140140E-01 -0.14560307491E-02  0.33120897242E-01  0.51100000000E-03 0.  1.
         11    1    4    4    0    0 -0.25747001749E-01  0.88380221551E-01 -0.27689260162E-01  0.96129745188E-01  0.51100000000E-03 0. -1.
</event>
<event>
 8    1  0.1132255E+005  0.1043930E+01  0.7957747E-01            NaN
         13   -1    0    0    0    0  0.00000000000E+00  0.00000000000E+00  0.74505805969E-08  0.10566000000E+00  0.10566000000E+00 0.  1.
     999900   -1    0    0    0    0 -0.00000000000E+00 -0.00000000000E+00 -0.74505805969E-08  0.93827000000E+00  0.93827000000E+00 0. -1.
     999902    2    1    2    0    0 -0.22556588322E-01  0.51890395420E-02  0.43889390599E-02  0.10203718041E+01  0.10200998137E+01 0.  0.
     999903    2    3    3    0    0 -0.12468331497E+00 -0.13079741759E-01  0.41562252075E-01  0.13349781538E+00  0.19422596053E-01 0.  0.
         14    1    1    2    0    0  0.22556588322E-01 -0.51890395420E-02 -0.43889390599E-02  0.23558195902E-01  0.00000000000E+00 0. -1.
     999901    1    3    3    0    0  0.10212672665E+00  0.18268781301E-01 -0.37173313015E-01  0.88687398872E+00  0.88000000000E+00 0. -1.
        -11    1    4    4    0    0 -0.90993765177E-01 -0.27238099811E-02  0.35594544938E-01  0.97747210662E-01  0.51100000000E-03 0.  1.
         11    1    4    4    0    0 -0.33689549792E-01 -0.10355931778E-01  0.59677071363E-02  0.35750604717E-01  0.51100000000E-03 0. -1.
</event>
<event>
 8    1  0.1132255E+005  0.1043930E+01  0.7957747E-01            NaN
         13   -1    0    0    0    0  0.00000000000E+00  0.00000000000E+00  0.74505805969E-08  0.10566000000E+00  0.10566000000E+00 0.  1.
     999900   -1    0    0    0    0 -0.00000000000E+00 -0.00000000000E+00 -0.74505805969E-08  0.93827000000E+00  0.93827000000E+00 0. -1.
     999902    2    1    2    0    0 -0.16351124987E-01 -0.19161183368E-01  0.74557346232E-02  0.10176602795E+01  0.10173211618E+01 0.  0.
     999903    2    3    3    0    0 -0.32341627119E-01  0.75538389500E-01 -0.94132388606E-01  0.12662500969E+00  0.20517245475E-01 0.  0.
         14    1    1    2    0    0  0.16351124987E-01  0.19161183368E-01 -0.74557346232E-02  0.26269720500E-01  0.00000000000E+00 0. -1.
     999901    1    3    3    0    0  0.15990502132E-01 -0.94699572868E-01  0.10158812323E+00  0.89103526981E+00  0.88000000000E+00 0.  1.
        -11    1    4    4    0    0 -0.22697507865E-01  0.30729256898E-01 -0.50649050957E-01  0.63443294182E-01  0.51100000000E-03 0.  1.
         11    1    4    4    0    0 -0.96441192537E-02  0.44809132602E-01 -0.43483337649E-01  0.63181715510E-01  0.51100000000E-03 0. -1.
</event>
<event>
 8    1  0.1132255E+005  0.1043930E+01  0.7957747E-01            NaN
         13   -1    0    0    0    0  0.00000000000E+00  0.00000000000E+00  0.74505805969E-08  0.10566000000E+00  0.10566000000E+00 0.  1.
     999900   -1    0    0    0    0 -0.00000000000E+00 -0.00000000000E+00 -0.74505805969E-08  0.93827000000E+00  0.93827000000E+00 0. -1.
     999902    2    1    2    0    0 -0.16614967825E-01 -0.11453127621E-01  0.37845976455E-02  0.10233982084E+01  0.10231922295E+01 0.  0.
     999903    2    3    3    0    0 -0.86232417693E-01 -0.10292435149E+00  0.42470560216E-02  0.13592213095E+00  0.20672111811E-01 0.  0.
         14    1    1    2    0    0  0.16614967825E-01  0.11453127621E-01 -0.37845976455E-02  0.20531791628E-01  0.00000000000E+00 0.  1.
     999901    1    3    3    0    0  0.69617449868E-01  0.91471223871E-01 -0.46245837601E-03  0.88747607742E+00  0.88000000000E+00 0. -1.
        -11    1    4    4    0    0 -0.64441831672E-01 -0.64379427198E-01 -0.25223362781E-02  0.91126744795E-01  0.51100000000E-03 0. -1.
         11    1    4    4    0    0 -0.21790586021E-01 -0.38544924294E-01  0.67693922996E-02  0.44795386159E-01  0.51100000000E-03 0.  1.
</event>
<event>
 8    1  0.1132255E+005  0.1043930E+01  0.7957747E-01            NaN
         13   -1    0    0    0    0  0.00000000000E+00  0.00000000000E+00  0.74505805969E-08  0.10566000000E+00  0.10566000000E+00 0.  1.
     999900   -1    0    0    0    0 -0.00000000000E+00 -0.00000000000E+00 -0.74505805969E-08  0.93827000000E+00  0.93827000000E+00 0.  1.
     999902    2    1    2    0    0 -0.96755339717E-02 -0.11423182484E-02  0.21568980547E-01  0.10202626856E+01  0.10199881401E+01 0.  0.
     999903    2    3    3    0    0  0.12708405033E+00 -0.13191580574E-01 -0.19001760277E-02  0.12930860715E+00  0.19817456109E-01 0.  0.
         14    1    1    2    0    0  0.96755339717E-02  0.11423182484E-02 -0.21568980547E-01  0.23667314391E-01  0.00000000000E+00 0. -1.
     999901    1    3    3    0    0 -0.13675958430E+00  0.12049262325E-01  0.23469156575E-01  0.89095407846E+00  0.88000000000E+00 0.  1.
        -11    1    4    4    0    0  0.53818309790E-01 -0.15413533081E-01 -0.63616008073E-04  0.55984396386E-01  0.51100000000E-03 0.  1.
         11    1    4    4    0    0  0.73265740540E-01  0.22219525068E-02 -0.18365600196E-02  0.73324210760E-01  0.51100000000E-03 0. -1.
</event>
<event>
 8    1  0.1132255E+005  0.1043930E+01  0.7957747E-01            NaN
         13   -1    0    0    0    0  0.00000000000E+00  0.00000000000E+00  0.74505805969E-08  0.10566000000E+00  0.10566000000E+00 0.  1.
     999900   -1    0    0    0    0 -0.00000000000E+00 -0.00000000000E+00 -0.74505805969E-08  0.93827000000E+00  0.93827000000E+00 0. -1.
     999902    2    1    2    0    0  0.11432957663E-01  0.85996098368E-02  0.17876734917E-01  0.10210336365E+01  0.10207768823E+01 0.  0.
     999903    2    3    3    0    0 -0.26182478156E-01  0.91560606701E-01 -0.86476594857E-01  0.13019859821E+00  0.20114836697E-01 0.  0.
         14    1    1    2    0    0 -0.11432957663E-01 -0.85996098368E-02 -0.17876734917E-01  0.22896363501E-01  0.00000000000E+00 0. -1.
     999901    1    3    3    0    0  0.37615435819E-01 -0.82960996865E-01  0.10435332977E+00  0.89083503829E+00  0.88000000000E+00 0.  1.
        -11    1    4    4    0    0 -0.41640771447E-02  0.15421012558E-01 -0.55371665690E-02  0.16913559690E-01  0.51100000000E-03 0.  1.
         11    1    4    4    0    0 -0.22018401011E-01  0.76139594144E-01 -0.80939428288E-01  0.11328503852E+00  0.51100000000E-03 0. -1.
</event>
<event>
 8    1  0.1132255E+005  0.1043930E+01  0.7957747E-01            NaN
         13   -1    0    0    0    0  0.00000000000E+00  0.00000000000E+00  0.74505805969E-08  0.10566000000E+00  0.10566000000E+00 0.  1.
     999900   -1    0    0    0    0 -0.00000000000E+00 -0.00000000000E+00 -0.74505805969E-08  0.93827000000E+00  0.93827000000E+00 0.  1.
     999902    2    1    2    0    0  0.12162486855E-01 -0.21703499685E-01 -0.52276704990E-03  0.10190454411E+01  0.10187415618E+01 0.  0.
     999903    2    3    3    0    0  0.55858115966E-01  0.61382640003E-01  0.96539834500E-01  0.12874562464E+00  0.19171296401E-01 0.  0.
         14    1    1    2    0    0 -0.12162486855E-01  0.21703499685E-01  0.52276704990E-03  0.24884558876E-01  0.00000000000E+00 0. -1.
     999901    1    3    3    0    0 -0.43695629111E-01 -0.83086139688E-01 -0.97062601550E-01  0.89029981648E+00  0.88000000000E+00 0.  1.
        -11    1    4    4    0    0  0.25138283322E-01  0.36318559542E-01  0.39368374183E-01  0.59170102775E-01  0.51100000000E-03 0. -1.
         11    1    4    4    0    0  0.30719832644E-01  0.25064080461E-01  0.57171460317E-01  0.69575521865E-01  0.51100000000E-03 0.  1.
</event>
<event>
 8    1  0.1132255E+005  0.1043930E+01  0.7957747E-01            NaN
         13   -1    0    0    0    0  0.00000000000E+00  0.00000000000E+00  0.74505805969E-08  0.10566000000E+00  0.10566000000E+00 0. -1.
     999900   -1    0    0    0    0 -0.00000000000E+00 -0.00000000000E+00 -0.74505805969E-08  0.93827000000E+00  0.93827000000E+00 0. -1.
     999902    2    1    2    0    0  0.18234461409E-01 -0.54558156403E-02 -0.17157871854E-01  0.10183047376E+01  0.10179822614E+01 0.  0.
     999903    2    3    3    0    0 -0.12097577181E+00  0.20521487597E-01 -0.27299364301E-01  0.12692537997E+00  0.17564964295E-01 0.  0.
         14    1    1    2    0    0 -0.18234461409E-01  0.54558156403E-02  0.17157871854E-01  0.25625262413E-01  0.00000000000E+00 0. -1.
     999901    1    3    3    0    0  0.13921023322E+00 -0.25977303237E-01  0.10141492447E-01  0.89137935762E+00  0.88000000000E+00 0. -1.
        -11    1    4    4    0    0 -0.92495452376E-01  0.21610364006E-01 -0.25560194345E-01  0.98366667112E-01  0.51100000000E-03 0.  1.
         11    1    4    4    0    0 -0.28480319435E-01 -0.10888764088E-02 -0.17391699557E-02  0.28558712858E-01  0.51100000000E-03 0. -1.
</event>
<event>
 8    1  0.1283778E+005  0.1043930E+01  0.7957747E-01            NaN
         13   -1    0    0    0    0  0.00000000000E+00  0.00000000000E+00  0.74505805969E-08  0.10566000000E+00  0.10566000000E+00 0.  1.
     999900   -1    0    0    0    0 -0.00000000000E+00 -0.00000000000E+00 -0.74505805969E-08  0.93827000000E+00  0.93827000000E+00 0. -1.
     999902    2    1    2    0    0 -0.18526941961E-01  0.76796712663E-02  0.11826570317E-01  0.10206471158E+01  0.10203815181E+01 0.  0.
     999903    2    3    3    0    0  0.90516207969E-01  0.89214987395E-01 -0.15973058050E-01  0.12974238712E+00  0.20626452711E-01 0.  0.
         14    1    1    2    0    0  0.18526941961E-01 -0.76796712663E-02 -0.11826570317E-01  0.23282884156E-01  0.00000000000E+00 0. -1.
     999901    1    3    3    0    0 -0.10904314993E+00 -0.81535316129E-01  0.27799628367E-01  0.89090472872E+00  0.88000000000E+00 0.  1.
        -11    1    4    4    0    0  0.47873500378E-01  0.61109776059E-01 -0.11410717751E-01  0.78464911706E-01  0.51100000000E-03 0. -1.
         11    1    4    4    0    0  0.42642707591E-01  0.28105211336E-01 -0.45623402997E-02  0.51277475415E-01  0.51100000000E-03 0.  1.
</event>
<event>
 8    1  0.1132255E+005  0.1043930E+01  0.7957747E-01            NaN
         13   -1    0    0    0    0  0.00000000000E+00  0.00000000000E+00  0.74505805969E-08  0.10566000000E+00  0.10566000000E+00 0. -1.
     999900   -1    0    0    0    0 -0.00000000000E+00 -0.00000000000E+00 -0.74505805969E-08  0.93827000000E+00  0.93827000000E+00 0.  1.
     999902    2    1    2    0    0 -0.17123765753E-01  0.36781016833E-02  0.35719010435E-03  0.10264120272E+01  0.10262625250E+01 0.  0.
     999903    2    3    3    0    0  0.99998874744E-01 -0.84300805344E-01  0.21564661785E-01  0.13405124936E+00  0.19957507021E-01 0.  0.
         14    1    1    2    0    0  0.17123765753E-01 -0.36781016833E-02 -0.35719010435E-03  0.17517972780E-01  0.00000000000E+00 0.  1.
     999901    1    3    3    0    0 -0.11712264050E+00  0.87978907028E-01 -0.21207471681E-01  0.89236077785E+00  0.88000000000E+00 0. -1.
        -11    1    4    4    0    0  0.70345501711E-01 -0.68285852218E-01  0.10617708982E-01  0.98612595996E-01  0.51100000000E-03 0. -1.
         11    1    4    4    0    0  0.29653373033E-01 -0.16014953127E-01  0.10946952803E-01  0.35438653368E-01  0.51100000000E-03 0.  1.
</event>
<event>
 8    1  0.1639458E+005  0.1043930E+01  0.7957747E-01            NaN
         13   -1    0    0    0    0  0.00000000000E+00  0.00000000000E+00  0.74505805969E-08  0.10566000000E+00  0.10566000000E+00 0.  1.
     999900   -1    0    0    0    0 -0.00000000000E+00 -0.00000000000E+00 -0.74505805969E-08  0.93827000000E+00  0.93827000000E+00 0.  1.
     999902    2    1    2    0    0  0.89559530594E-02 -0.20836226522E-01  0.72467699681E-02  0.10201209029E+01  0.10198430190E+01 0.  0.
     999903    2    3    3    0    0  0.17216609873E-01  0.27919870674E-01  0.12532458831E+00  0.13085841820E+00  0.18486274521E-01 0.  0.
         14    1    1    2    0    0 -0.89559530594E-02  0.20836226522E-01 -0.72467699681E-02  0.23809097124E-01  0.00000000000E+00 0.  1.
     999901    1    3    3    0    0 -0.82606568135E-02 -0.48756097196E-01 -0.11807781834E+00  0.88926248467E+00  0.88000000000E+00 0.  1.
        -11    1    4    4    0    0  0.43332654374E-03  0.18085294760E-01  0.55756714824E-01  0.58620286825E-01  0.51100000000E-03 0. -1.
         11    1    4    4    0    0  0.16783283329E-01  0.98345759135E-02  0.69567873484E-01  0.72238131377E-01  0.51100000000E-03 0.  1.
</event>
<event>
 8    1  0.1132255E+005  0.1043930E+01  0.7957747E-01            NaN
         13   -1    0    0    0    0  0.00000000000E+00  0.00000000000E+00  0.74505805969E-08  0.10566000000E+00  0.10566000000E+00 0.  1.
     999900   -1    0    0    0    0 -0.00000000000E+00 -0.00000000000E+00 -0.74505805969E-08  0.93827000000E+00  0.93827000000E+00 0.  1.
     999902    2    1    2    0    0  0.15262328722E-01  0.90101658192E-02  0.15457795352E-01  0.10204126616E+01  0.10201416249E+01 0.  0.
     999903    2    3    3    0    0 -0.31268773589E-01  0.50138818574E-01  0.11678290085E+00  0.13242421208E+00  0.20156603979E-01 0.  0.
         14    1    1    2    0    0 -0.15262328722E-01 -0.90101658192E-02 -0.15457795352E-01  0.23517338354E-01  0.00000000000E+00 0. -1.
     999901    1    3    3    0    0  0.46531102311E-01 -0.41128652754E-01 -0.10132510550E+00  0.88798844957E+00  0.88000000000E+00 0.  1.
        -11    1    4    4    0    0 -0.82510263614E-02  0.24868741414E-01  0.67826882284E-01  0.72713690711E-01  0.51100000000E-03 0.  1.
         11    1    4    4    0    0 -0.23017747228E-01  0.25270077160E-01  0.48956018567E-01  0.59710521368E-01  0.51100000000E-03 0. -1.
</event>
<event>
 8    1  0.1132255E+005  0.1043930E+01  0.7957747E-01            NaN
         13   -1    0    0    0    0  0.00000000000E+00  0.00000000000E+00  0.74505805969E-08  0.10566000000E+00  0.10566000000E+00 0.  1.
     999900   -1    0    0    0    0 -0.00000000000E+00 -0.00000000000E+00 -0.74505805969E-08  0.93827000000E+00  0.93827000000E+00 0.  1.
     999902    2    1    2    0    0  0.14518421998E-01 -0.14660277924E-01  0.11447825246E-01  0.10203342159E+01  0.10200613467E+01 0.  0.
     999903    2    3    3    0    0  0.66562186771E-01 -0.14436000629E-01  0.11265883795E+00  0.13300548713E+00  0.18961092136E-01 0.  0.
         14    1    1    2    0    0 -0.14518421998E-01  0.14660277924E-01 -0.11447825246E-01  0.23595784136E-01  0.00000000000E+00 0. -1.
     999901    1    3    3    0    0 -0.52043764773E-01 -0.22427729511E-03 -0.10121101271E+00  0.88732872874E+00  0.88000000000E+00 0.  1.
        -11    1    4    4    0    0  0.49337642935E-01 -0.54058349297E-02  0.92586747462E-01  0.10505233452E+00  0.51100000000E-03 0.  1.
         11    1    4    4    0    0  0.17224543837E-01 -0.90301656995E-02  0.20072090490E-01  0.27953152605E-01  0.51100000000E-03 0. -1.
</event>
<event>
 8    1  0.1132255E+005  0.1043930E+01  0.7957747E-01            NaN
         13   -1    0    0    0    0  0.00000000000E+00  0.00000000000E+00  0.74505805969E-08  0.10566000000E+00  0.10566000000E+00 0. -1.
     999900   -1    0    0    0    0 -0.00000000000E+00 -0.00000000000E+00 -0.74505805969E-08  0.93827000000E+00  0.93827000000E+00 0. -1.
     999902    2    1    2    0    0  0.99630416031E-03 -0.21411267091E-01  0.54244108163E-02  0.10218198391E+01  0.10215806011E+01 0.  0.
     999903    2    3    3    0    0 -0.13994470949E-01 -0.11971591854E+00 -0.55776887379E-01  0.13410697637E+00  0.18597676623E-01 0.  0.
         14    1    1    2    0    0 -0.99630416031E-03  0.21411267091E-01 -0.54244108163E-02  0.22110160857E-01  0.00000000000E+00 0. -1.
     999901    1    3    3    0    0  0.14990775110E-01  0.98304651450E-01  0.61201298195E-01  0.88771286277E+00  0.88000000000E+00 0.  1.
        -11    1    4    4    0    0 -0.30533308242E-02 -0.85066317368E-01 -0.44531297120E-01  0.96067157364E-01  0.51100000000E-03 0.  1.
         11    1    4    4    0    0 -0.10941140125E-01 -0.34649601172E-01 -0.11245590259E-01  0.38039819004E-01  0.51100000000E-03 0. -1.
</event>
<event>
 8    1  0.1132255E+005  0.1043930E+01  0.7957747E-01            NaN
         13   -1    0    0    0    0  0.00000000000E+00  0.00000000000E+00  0.74505805969E-08  0.10566000000E+00  0.10566000000E+00 0.  1.
     999900   -1    0    0    0    0 -0.00000000000E+00 -0.00000000000E+00 -0.74505805969E-08  0.93827000000E+00  0.93827000000E+00 0.  1.
     999902    2    1    2    0    0 -0.16601081630E-01  0.15798992622E-01 -0.54085268456E-02  0.10203831055E+01  0.10201113791E+01 0.  0.
     999903    2    3    3    0    0 -0.31902640013E-01 -0.51249288356E-01 -0.11466032282E+00  0.13096443882E+00  0.18984904770E-01 0.  0.
         14    1    1    2    0    0  0.16601081630E-01 -0.15798992622E-01  0.54085268456E-02  0.23546894526E-01  0.00000000000E+00 0. -1.
     999901    1    3    3    0    0  0.15301558382E-01  0.67048280978E-01  0.10925179597E+00  0.88941866666E+00  0.88000000000E+00 0. -1.
        -11    1    4    4    0    0 -0.53420809567E-02 -0.23146938342E-01 -0.54402285188E-01  0.59364874617E-01  0.51100000000E-03 0.  1.
         11    1    4    4    0    0 -0.26560559056E-01 -0.28102350014E-01 -0.60258037632E-01  0.71599564202E-01  0.51100000000E-03 0. -1.
</event>
<event>
 8    1  0.1132255E+005  0.1043930E+01  0.7957747E-01            NaN
         13   -1    0    0    0    0  0.00000000000E+00  0.00000000000E+00  0.74505805969E-08  0.10566000000E+00  0.10566000000E+00 0.  1.
     999900   -1    0    0    0    0 -0.00000000000E+00 -0.00000000000E+00 -0.74505805969E-08  0.93827000000E+00  0.93827000000E+00 0. -1.
     999902    2    1    2    0    0 -0.10300136505E-02 -0.17728106205E-01 -0.15919165627E-01  0.10200811738E+01  0.10198023507E+01 0.  0.
     999903    2    3    3    0    0 -0.32905412141E-01  0.60273154048E-01  0.10654035321E+00  0.12761460781E+00  0.14799392391E-01 0.  0.
         14    1    1    2    0    0  0.10300136505E-02  0.17728106205E-01  0.15919165627E-01  0.23848826219E-01  0.00000000000E+00 0.  1.
     999901    1    3    3    0    0  0.31875398490E-01 -0.78001260253E-01 -0.12245951884E+00  0.89246656598E+00  0.88000000000E+00 0. -1.
        -11    1    4    4    0    0 -0.94484208214E-02  0.32201626823E-01  0.54354372430E-01  0.63881737213E-01  0.51100000000E-03 0. -1.
         11    1    4    4    0    0 -0.23456991319E-01  0.28071527225E-01  0.52185980785E-01  0.63732870592E-01  0.51100000000E-03 0.  1.
</event>
<event>
 8    1  0.1132255E+005  0.1043930E+01  0.7957747E-01            NaN
         13   -1    0    0    0    0  0.00000000000E+00  0.00000000000E+00  0.74505805969E-08  0.10566000000E+00  0.10566000000E+00 0.  1.
     999900   -1    0    0    0    0 -0.00000000000E+00 -0.00000000000E+00 -0.74505805969E-08  0.93827000000E+00  0.93827000000E+00 0.  1.
     999902    2    1    2    0    0 -0.15408657234E-01 -0.14659028933E-01 -0.98658661834E-02  0.10204854023E+01  0.10202160590E+01 0.  0.
     999903    2    3    3    0    0  0.11711980782E+00 -0.25668176007E-01 -0.45453688887E-01  0.12978259634E+00  0.20039456962E-01 0.  0.
         14    1    1    2    0    0  0.15408657234E-01  0.14659028933E-01  0.98658661834E-02  0.23444597726E-01  0.00000000000E+00 0.  1.
     999901    1    3    3    0    0 -0.13252846506E+00  0.11009147074E-01  0.35587822704E-01  0.89070280593E+00  0.88000000000E+00 0.  1.
        -11    1    4    4    0    0  0.53297578276E-01 -0.16940438128E-01 -0.30292309002E-01  0.63604208978E-01  0.51100000000E-03 0. -1.
         11    1    4    4    0    0  0.63822229549E-01 -0.87277378795E-02 -0.15161379886E-01  0.66178387364E-01  0.51100000000E-03 0.  1.
</event>
<event>
 8    1  0.1132255E+005  0.1043930E+01  0.7957747E-01            NaN
         13   -1    0    0    0    0  0.00000000000E+00  0.00000000000E+00  0.74505805969E-08  0.10566000000E+00  0.10566000000E+00 0. -1.
     999900   -1    0    0    0    0 -0.00000000000E+00 -0.00000000000E+00 -0.74505805969E-08  0.93827000000E+00  0.93827000000E+00 0. -1.
     999902    2    1    2    0    0 -0.22643447040E-01  0.65478903228E-02  0.37927366311E-02  0.10200556327E+01  0.10197762051E+01 0.  0.
     999903    2    3    3    0    0 -0.64982264666E-01  0.65591389002E-01  0.92973231364E-01  0.13256936756E+00  0.20141758447E-01 0.  0.
         14    1    1    2    0    0  0.22643447040E-01 -0.65478903228E-02 -0.37927366311E-02  0.23874367273E-01  0.00000000000E+00 0.  1.
     999901    1    3    3    0    0  0.42338817626E-01 -0.59043498680E-01 -0.89180494733E-01  0.88748626516E+00  0.88000000000E+00 0. -1.
        -11    1    4    4    0    0 -0.55636649642E-01  0.57479801932E-01  0.69248692616E-01  0.10580645993E+00  0.51100000000E-03 0.  1.
         11    1    4    4    0    0 -0.93456150235E-02  0.81115870701E-02  0.23724538749E-01  0.26762907630E-01  0.51100000000E-03 0. -1.
</event>
<event>
 8    1  0.1132255E+005  0.1043930E+01  0.7957747E-01            NaN
         13   -1    0    0    0    0  0.00000000000E+00  0.00000000000E+00  0.74505805969E-08  0.10566000000E+00  0.10566000000E+00 0.  1.
     999900   -1    0    0    0    0 -0.00000000000E+00 -0.00000000000E+00 -0.74505805969E-08  0.93827000000E+00  0.93827000000E+00 0. -1.
     999902    2    1    2    0    0  0.45713970975E-02  0.21352528886E-01 -0.96466736867E-02  0.10200577049E+01  0.10197783263E+01 0.  0.
     999903    2    3    3    0    0  0.77490890634E-01 -0.10028101321E+00  0.94255556813E-02  0.12849967478E+00  0.19031699252E-01 0.  0.
         14    1    1    2    0    0 -0.45713970975E-02 -0.21352528886E-01  0.96466736867E-02  0.23872295124E-01  0.00000000000E+00 0.  1.
     999901    1    3    3    0    0 -0.72919493537E-01  0.12163354210E+00 -0.19072229368E-01  0.89155803010E+00  0.88000000000E+00 0.  1.
        -11    1    4    4    0    0  0.73436070161E-02 -0.20651187050E-01  0.36058341395E-02  0.22218533962E-01  0.51100000000E-03 0. -1.
         11    1    4    4    0    0  0.70147283618E-01 -0.79629826159E-01  0.58197215418E-02  0.10628114082E+00  0.51100000000E-03 0.  1.
</event>
<event>
 8    1  0.1145845E+005  0.1043930E+01  0.7957747E-01            NaN
         13   -1    0    0    0    0  0.00000000000E+00  0.00000000000E+00  0.74505805969E-08  0.10566000000E+00  0.10566000000E+00 0. -1.
     999900   -1    0    0    0    0 -0.00000000000E+00 -0.00000000000E+00 -0.74505805969E-08  0.93827000000E+00  0.93827000000E+00 0.  1.
     999902    2    1    2    0    0 -0.19765317751E-02 -0.15130868383E-01  0.19361038062E-01  0.10192784351E+01  0.10189802887E+01 0.  0.
     999903    2    3    3    0    0  0.72748076710E-01  0.72577303015E-01  0.77165288389E-01  0.12988660820E+00  0.18875955081E-01 0.  0.
         14    1    1    2    0    0  0.19765317751E-02  0.15130868383E-01 -0.19361038062E-01  0.24651564874E-01  0.00000000000E+00 0.  1.
     999901    1    3    3    0    0 -0.74724608485E-01 -0.87708171398E-01 -0.57804250327E-01  0.88939182692E+00  0.88000000000E+00 0. -1.
        -11    1    4    4    0    0  0.43216457317E-01  0.29991871272E-01  0.36905831756E-01  0.64260999557E-01  0.51100000000E-03 0.  1.
         11    1    4    4    0    0  0.29531619393E-01  0.42585431744E-01  0.40259456633E-01  0.65625608646E-01  0.51100000000E-03 0. -1.
</event>
<event>
 8    1  0.1132255E+005  0.1043930E+01  0.7957747E-01            NaN
         13   -1    0    0    0    0  0.00000000000E+00  0.00000000000E+00  0.74505805969E-08  0.10566000000E+00  0.10566000000E+00 0. -1.
     999900   -1    0    0    0    0 -0.00000000000E+00 -0.00000000000E+00 -0.74505805969E-08  0.93827000000E+00  0.93827000000E+00 0. -1.
     999902    2    1    2    0    0 -0.26078288056E-02  0.85423162648E-03  0.22554419509E-01  0.10212092535E+01  0.10209564668E+01 0.  0.
     999903    2    3    3    0    0  0.63647805446E-01 -0.20288872836E-01  0.11412777589E+00  0.13372825677E+00  0.19885068038E-01 0.  0.
         14    1    1    2    0    0  0.26078288056E-02 -0.85423162648E-03 -0.22554419509E-01  0.22720746514E-01  0.00000000000E+00 0.  1.
     999901    1    3    3    0    0 -0.66255634251E-01  0.21143104463E-01 -0.91573356376E-01  0.88748099672E+00  0.88000000000E+00 0. -1.
        -11    1    4    4    0    0  0.46155461290E-01 -0.59090816247E-02  0.84096766339E-01  0.96113324166E-01  0.51100000000E-03 0.  1.
         11    1    4    4    0    0  0.17492344155E-01 -0.14379791212E-01  0.30031009546E-01  0.37614932603E-01  0.51100000000E-03 0. -1.
</event>
<event>
 8    1  0.1132255E+005  0.1043930E+01  0.7957747E-01            NaN
         13   -1    0    0    0    0  0.00000000000E+00  0.00000000000E+00  0.74505805969E-08  0.10566000000E+00  0.10566000000E+00 0.  1.
     999900   -1    0    0    0    0 -0.00000000000E+00 -0.00000000000E+00 -0.74505805969E-08  0.93827000000E+00  0.93827000000E+00 0.  1.
     999902    2    1    2    0    0  0.28450011972E-02  0.71587697795E-02  0.22346148788E-01  0.10202933255E+01  0.10200194987E+01 0.  0.
     999903    2    3    3    0    0 -0.11793442270E+00 -0.49755280565E-01  0.18790938664E-02  0.12998676103E+00  0.22559056916E-01 0.  0.
         14    1    1    2    0    0 -0.28450011972E-02 -0.71587697795E-02 -0.22346148788E-01  0.23636674517E-01  0.00000000000E+00 0. -1.
     999901    1    3    3    0    0  0.12077942390E+00  0.56914050344E-01  0.20467054921E-01  0.89030656445E+00  0.88000000000E+00 0. -1.
        -11    1    4    4    0    0 -0.33555696875E-01 -0.21515143757E-01 -0.73248335403E-02  0.40531475559E-01  0.51100000000E-03 0. -1.
         11    1    4    4    0    0 -0.84378725824E-01 -0.28240136808E-01  0.92039274067E-02  0.89455285475E-01  0.51100000000E-03 0.  1.
</event>
<event>
 8    1  0.1132255E+005  0.1043930E+01  0.7957747E-01            NaN
         13   -1    0    0    0    0  0.00000000000E+00  0.00000000000E+00  0.74505805969E-08  0.10566000000E+00  0.10566000000E+00 0.  1.
     999900   -1    0    0    0    0 -0.00000000000E+00 -0.00000000000E+00 -0.74505805969E-08  0.93827000000E+00  0.93827000000E+00 0. -1.
     999902    2    1    2    0    0  0.14463369111E-01 -0.17279094212E-01  0.58831429893E-02  0.10206412148E+01  0.10203754808E+01 0.  0.
     999903    2    3    3    0    0 -0.29181940336E-01  0.10400961793E+00  0.67880979194E-01  0.12909222773E+00  0.19682216819E-01 0.  0.
         14    1    1    2    0    0 -0.14463369111E-01  0.17279094212E-01 -0.58831429893E-02  0.23288785161E-01  0.00000000000E+00 0.  1.
     999901    1    3    3    0    0  0.43645309447E-01 -0.12128871214E+00 -0.61997836205E-01  0.89154898711E+00  0.88000000000E+00 0. -1.
        -11    1    4    4    0    0  0.66152625561E-03  0.93454587334E-02  0.10709870978E-02  0.94436936783E-02  0.51100000000E-03 0.  1.
         11    1    4    4    0    0 -0.29843466591E-01  0.94664159197E-01  0.66809992096E-01  0.11964853405E+00  0.51100000000E-03 0. -1.
</event>
<event>
 8    1  0.1132255E+005  0.1043930E+01  0.7957747E-01            NaN
         13   -1    0    0    0    0  0.00000000000E+00  0.00000000000E+00  0.74505805969E-08  0.10566000000E+00  0.10566000000E+00 0. -1.
     999900   -1    0    0    0    0 -0.00000000000E+00 -0.00000000000E+00 -0.74505805969E-08  0.93827000000E+00  0.93827000000E+00 0. -1.
     999902    2    1    2    0    0 -0.21995042880E-01  0.14306846498E-01  0.34207970544E-02  0.10174692816E+01  0.10171251493E+01 0.  0.
     999903    2    3    3    0    0  0.11188639691E+00 -0.18579910941E-01  0.49970007245E-01  0.12552051189E+00  0.19865003835E-01 0.  0.
         14    1    1    2    0    0  0.21995042880E-01 -0.14306846498E-01 -0.34207970544E-02  0.26460718442E-01  0.00000000000E+00 0.  1.
     999901    1    3    3    0    0 -0.13388143979E+00  0.32886757439E-01 -0.46549210191E-01  0.89194876966E+00  0.88000000000E+00 0. -1.
        -11    1    4    4    0    0  0.25766685085E-01 -0.39633839363E-02  0.21030168027E-01  0.33498650133E-01  0.51100000000E-03 0. -1.
         11    1    4    4    0    0  0.86119711828E-01 -0.14616527005E-01  0.28939839218E-01  0.92021861761E-01  0.51100000000E-03 0.  1.
</event>
<event>
 8    1  0.1132255E+005  0.1043930E+01  0.7957747E-01            NaN
         13   -1    0    0    0    0  0.00000000000E+00  0.00000000000E+00  0.74505805969E-08  0.10566000000E+00  0.10566000000E+00 0.  1.
     999900   -1    0    0    0    0 -0.00000000000E+00 -0.00000000000E+00 -0.74505805969E-08  0.93827000000E+00  0.93827000000E+00 0.  1.
     999902    2    1    2    0    0  0.65505773221E-03  0.93237490112E-02 -0.21749904681E-01  0.10202568137E+01  0.10199821303E+01 0.  0.
     999903    2    3    3    0    0  0.70422114529E-01  0.10643105399E+00 -0.27878557267E-01  0.13214937015E+00  0.19984959527E-01 0.  0.
         14    1    1    2    0    0 -0.65505773221E-03 -0.93237490112E-02  0.21749904681E-01  0.23673186306E-01  0.00000000000E+00 0.  1.
     999901    1    3    3    0    0 -0.69767056797E-01 -0.97107304981E-01  0.61286525855E-02  0.88810744354E+00  0.88000000000E+00 0. -1.
        -11    1    4    4    0    0  0.41951741333E-01  0.51164132152E-01 -0.21877045082E-01  0.69689190283E-01  0.51100000000E-03 0. -1.
         11    1    4    4    0    0  0.28470373196E-01  0.55266921840E-01 -0.60015121841E-02  0.62460179867E-01  0.51100000000E-03 0.  1.
</event>
<event>
 8    1  0.1132255E+005  0.1043930E+01  0.7957747E-01            NaN
         13   -1    0    0    0    0  0.00000000000E+00  0.00000000000E+00  0.74505805969E-08  0.10566000000E+00  0.10566000000E+00 0. -1.
     999900   -1    0    0    0    0 -0.00000000000E+00 -0.00000000000E+00 -0.74505805969E-08  0.93827000000E+00  0.93827000000E+00 0.  1.
     999902    2    1    2    0    0 -0.57837573639E-02  0.18745475942E-01  0.13246049387E-01  0.10202592894E+01  0.10199846641E+01 0.  0.
     999903    2    3    3    0    0  0.10065592411E+00  0.68656165907E-01  0.46326389496E-01  0.13182539106E+00  0.19659989504E-01 0.  0.
         14    1    1    2    0    0  0.57837573639E-02 -0.18745475942E-01 -0.13246049387E-01  0.23670710633E-01  0.00000000000E+00 0.  1.
     999901    1    3    3    0    0 -0.10643968148E+00 -0.49910689965E-01 -0.33080340109E-01  0.88843389831E+00  0.88000000000E+00 0.  1.
        -11    1    4    4    0    0  0.78602005495E-01  0.44520130017E-01  0.38534480802E-01  0.98211427931E-01  0.51100000000E-03 0. -1.
         11    1    4    4    0    0  0.22053918618E-01  0.24136035889E-01  0.77919086941E-02  0.33613963125E-01  0.51100000000E-03 0.  1.
</event>
<event>
 8    1  0.1132255E+005  0.1043930E+01  0.7957747E-01            NaN
         13   -1    0    0    0    0  0.00000000000E+00  0.00000000000E+00  0.74505805969E-08  0.10566000000E+00  0.10566000000E+00 0. -1.
     999900   -1    0    0    0    0 -0.00000000000E+00 -0.00000000000E+00 -0.74505805969E-08  0.93827000000E+00  0.93827000000E+00 0. -1.
     999902    2    1    2    0    0  0.22457766777E-01 -0.44139245315E-02 -0.84642648092E-02  0.10195275862E+01  0.10192355083E+01 0.  0.
     999903    2    3    3    0    0 -0.62882559467E-01 -0.27211540722E-01  0.10601639875E+00  0.12772686584E+00  0.19493363462E-01 0.  0.
         14    1    1    2    0    0 -0.22457766777E-01  0.44139245315E-02  0.84642648092E-02  0.24402413756E-01  0.00000000000E+00 0.  1.
     999901    1    3    3    0    0  0.85340326244E-01  0.22797616190E-01 -0.11448066356E+00  0.89180072041E+00  0.88000000000E+00 0. -1.
        -11    1    4    4    0    0 -0.13933654606E-01  0.18742054066E-02  0.17133803791E-01  0.22169522547E-01  0.51100000000E-03 0.  1.
         11    1    4    4    0    0 -0.48948904860E-01 -0.29085746128E-01  0.88882594959E-01  0.10555734329E+00  0.51100000000E-03 0. -1.
</event>
<event>
 8    1  0.1132255E+005  0.1043930E+01  0.7957747E-01            NaN
         13   -1    0    0    0    0  0.00000000000E+00  0.00000000000E+00  0.74505805969E-08  0.10566000000E+00  0.10566000000E+00 0. -1.
     999900   -1    0    0    0    0 -0.00000000000E+00 -0.00000000000E+00 -0.74505805969E-08  0.93827000000E+00  0.93827000000E+00 0.  1.
     999902    2    1    2    0    0 -0.14336733962E-01  0.60106996983E-02 -0.17520239404E-01  0.10205071641E+01  0.10202383265E+01 0.  0.
     999903    2    3    3    0    0 -0.77522763733E-01 -0.32704776672E-01  0.97139822807E-01  0.12998018961E+00  0.19476221483E-01 0.  0.
         14    1    1    2    0    0  0.14336733962E-01 -0.60106996983E-02  0.17520239404E-01  0.23422835873E-01  0.00000000000E+00 0. -1.
     999901    1    3    3    0    0  0.63186029771E-01  0.38715476370E-01 -0.11466006221E+00  0.89052697451E+00  0.88000000000E+00 0.  1.
        -11    1    4    4    0    0 -0.22256706865E-01 -0.18965766655E-01  0.29188615479E-01  0.41319459095E-01  0.51100000000E-03 0.  1.
         11    1    4    4    0    0 -0.55266056868E-01 -0.13739010016E-01  0.67951207328E-01  0.88660730519E-01  0.51100000000E-03 0. -1.
</event>
<event>
 8    1  0.1255678E+005  0.1043930E+01  0.7957747E-01            NaN
         13   -1    0    0    0    0  0.00000000000E+00  0.00000000000E+00  0.74505805969E-08  0.10566000000E+00  0.10566000000E+00 0.  1.
     999900   -1    0    0    0    0 -0.00000000000E+00 -0.00000000000E+00 -0.74505805969E-08  0.93827000000E+00  0.93827000000E+00 0.  1.
     999902    2    1    2    0    0 -0.12071149772E-02 -0.82135144352E-02 -0.22716564500E-01  0.10197440279E+01  0.10194571698E+01 0.  0.
     999903    2    3    3    0    0  0.20169895054E-01  0.93783464220E-01  0.81942329720E-01  0.12743587237E+00  0.17977578760E-01 0.  0.
         14    1    1    2    0    0  0.12071149772E-02  0.82135144352E-02  0.22716564500E-01  0.24185972145E-01  0.00000000000E+00 0.  1.
     999901    1    3    3    0    0 -0.21377010031E-01 -0.10199697866E+00 -0.10465889422E+00  0.89230815549E+00  0.88000000000E+00 0.  1.
        -11    1    4    4    0    0  0.18905350051E-01  0.47202120304E-01  0.39262918628E-01  0.64243990552E-01  0.51100000000E-03 0.  1.
         11    1    4    4    0    0  0.12645450022E-02  0.46581343916E-01  0.42679411092E-01  0.63191881814E-01  0.51100000000E-03 0. -1.
</event>
<event>
 8    1  0.1132255E+005  0.1043930E+01  0.7957747E-01            NaN
         13   -1    0    0    0    0  0.00000000000E+00  0.00000000000E+00  0.74505805969E-08  0.10566000000E+00  0.10566000000E+00 0.  1.
     999900   -1    0    0    0    0 -0.00000000000E+00 -0.00000000000E+00 -0.74505805969E-08  0.93827000000E+00  0.93827000000E+00 0. -1.
     999902    2    1    2    0    0 -0.21609692613E-01  0.84724753785E-02 -0.75166182001E-02  0.10195320246E+01  0.10192400542E+01 0.  0.
     999903    2    3    3    0    0  0.51538920304E-01 -0.95156335670E-01 -0.66343146356E-01  0.12849318681E+00  0.19952379928E-01 0.  0.
         14    1    1    2    0    0  0.21609692613E-01 -0.84724753785E-02  0.75166182001E-02  0.24397975388E-01  0.00000000000E+00 0. -1.
     999901    1    3    3    0    0 -0.73148612917E-01  0.10362881105E+00  0.58826528156E-01  0.89103883780E+00  0.88000000000E+00 0.  1.
        -11    1    4    4    0    0  0.22621348523E-01 -0.54233093937E-01 -0.26455634552E-01  0.64444670901E-01  0.51100000000E-03 0. -1.
         11    1    4    4    0    0  0.28917571781E-01 -0.40923241733E-01 -0.39887511804E-01  0.64048515912E-01  0.51100000000E-03 0.  1.
</event>
<event>
 8    1  0.1132255E+005  0.1043930E+01  0.7957747E-01            NaN
         13   -1    0    0    0    0  0.00000000000E+00  0.00000000000E+00  0.74505805969E-08  0.10566000000E+00  0.10566000000E+00 0.  1.
     999900   -1    0    0    0    0 -0.00000000000E+00 -0.00000000000E+00 -0.74505805969E-08  0.93827000000E+00  0.93827000000E+00 0. -1.
     999902    2    1    2    0    0 -0.13970904460E-01  0.17274191083E-01  0.59604060734E-02  0.10209276025E+01  0.10206684375E+01 0.  0.
     999903    2    3    3    0    0 -0.51874648613E-01 -0.77142105144E-01  0.90086250221E-01  0.13108026255E+00  0.20606290194E-01 0.  0.
         14    1    1    2    0    0  0.13970904460E-01 -0.17274191083E-01 -0.59604060734E-02  0.23002397474E-01  0.00000000000E+00 0. -1.
     999901    1    3    3    0    0  0.37903744154E-01  0.94416296228E-01 -0.84125844148E-01  0.88984733998E+00  0.88000000000E+00 0. -1.
        -11    1    4    4    0    0 -0.49449498642E-01 -0.75949341824E-01  0.80879479496E-01  0.12147142365E+00  0.51100000000E-03 0.  1.
         11    1    4    4    0    0 -0.24251499708E-02 -0.11927633200E-02  0.92067707248E-02  0.96088388943E-02  0.51100000000E-03 0. -1.
</event>
<event>
 8    1  0.1132255E+005  0.1043930E+01  0.7957747E-01            NaN
         13   -1    0    0    0    0  0.00000000000E+00  0.00000000000E+00  0.74505805969E-08  0.10566000000E+00  0.10566000000E+00 0. -1.
     999900   -1    0    0    0    0 -0.00000000000E+00 -0.00000000000E+00 -0.74505805969E-08  0.93827000000E+00  0.93827000000E+00 0. -1.
     999902    2    1    2    0    0 -0.20205597320E-01  0.63893110518E-02  0.15524470510E-01  0.10176602713E+01  0.10173211534E+01 0.  0.
     999903    2    3    3    0    0 -0.55866348436E-01  0.40341576677E-01  0.10987592088E+00  0.13124804123E+00  0.20120602412E-01 0.  0.
         14    1    1    2    0    0  0.20205597320E-01 -0.63893110518E-02 -0.15524470510E-01  0.26269728651E-01  0.00000000000E+00 0.  1.
     999901    1    3    3    0    0  0.35660751117E-01 -0.33952265625E-01 -0.94351450373E-01  0.88641223012E+00  0.88000000000E+00 0. -1.
        -11    1    4    4    0    0 -0.28531778591E-01  0.31581582036E-01  0.73156707550E-01  0.84638192880E-01  0.51100000000E-03 0. -1.
         11    1    4    4    0    0 -0.27334569846E-01  0.87599946412E-02  0.36719213332E-01  0.46609848353E-01  0.51100000000E-03 0.  1.
</event>
<event>
 8    1  0.1132255E+005  0.1043930E+01  0.7957747E-01            NaN
         13   -1    0    0    0    0  0.00000000000E+00  0.00000000000E+00  0.74505805969E-08  0.10566000000E+00  0.10566000000E+00 0.  1.
     999900   -1    0    0    0    0 -0.00000000000E+00 -0.00000000000E+00 -0.74505805969E-08  0.93827000000E+00  0.93827000000E+00 0. -1.
     999902    2    1    2    0    0  0.95244512230E-02 -0.10498768080E-01 -0.25465161874E-01  0.10147852960E+01  0.10143666907E+01 0.  0.
     999903    2    3    3    0    0 -0.47109167645E-01  0.60195384795E-01  0.93220087454E-01  0.12220968662E+00  0.20061524690E-01 0.  0.
         14    1    1    2    0    0 -0.95244512230E-02  0.10498768080E-01  0.25465161874E-01  0.29144704005E-01  0.00000000000E+00 0.  1.
     999901    1    3    3    0    0  0.56633618868E-01 -0.70694152875E-01 -0.11868524933E+00  0.89257560937E+00  0.88000000000E+00 0. -1.
        -11    1    4    4    0    0 -0.21233808023E-01  0.19652849456E-01  0.22371627418E-01  0.36576767616E-01  0.51100000000E-03 0. -1.
         11    1    4    4    0    0 -0.25875359622E-01  0.40542535338E-01  0.70848460037E-01  0.85632919008E-01  0.51100000000E-03 0.  1.
</event>
<event>
 8    1  0.1132255E+005  0.1043930E+01  0.7957747E-01            NaN
         13   -1    0    0    0    0  0.00000000000E+00  0.00000000000E+00  0.74505805969E-08  0.10566000000E+00  0.10566000000E+00 0.  1.
     999900   -1    0    0    0    0 -0.00000000000E+00 -0.00000000000E+00 -0.74505805969E-08  0.93827000000E+00  0.93827000000E+00 0.  1.
     999902    2    1    2    0    0  0.21983021483E-01  0.55011078172E-02  0.62664125319E-02  0.10204186549E+01  0.10201477579E+01 0.  0.
     999903    2    3    3    0    0 -0.84317896572E-01 -0.64601890243E-01 -0.68667927349E-01  0.12810174329E+00  0.20294346059E-01 0.  0.
         14    1    1    2    0    0 -0.21983021483E-01 -0.55011078172E-02 -0.62664125319E-02  0.23511345065E-01  0.00000000000E+00 0. -1.
     999901    1    3    3    0    0  0.10630091805E+00  0.70102998061E-01  0.74934339881E-01  0.89231691165E+00  0.88000000000E+00 0. -1.
        -11    1    4    4    0    0 -0.48192329348E-01 -0.24156936997E-01 -0.34163547094E-01  0.63823720388E-01  0.51100000000E-03 0. -1.
         11    1    4    4    0    0 -0.36125567224E-01 -0.40444953246E-01 -0.34504380255E-01  0.64278022902E-01  0.51100000000E-03 0.  1.
</event>
<event>
 7    1  0.1132255E+005  0.1043930E+01  0.7957747E-01            NaN
         13   -1    0    0    0    0  0.00000000000E+00  0.00000000000E+00  0.74505805969E-08  0.10566000000E+00  0.10566000000E+00 0. -1.
     999900   -1    0    0    0    0 -0.00000000000E+00 -0.00000000000E+00 -0.74505805969E-08  0.93827000000E+00  0.93827000000E+00 0. -1.
     999902    2    1    2    0    0 -0.12056888846E-01 -0.19145266429E-01  0.86004565120E-02  0.10197250904E+01  0.10194377776E+01 0.  0.
         14    1    1    2    0    0  0.12056888846E-01  0.19145266429E-01 -0.86004565120E-02  0.24204909574E-01  0.00000000000E+00 0.  1.
     999901    1    3    3    0    0 -0.11744260966E+00  0.53698782578E-01 -0.14058610625E-01  0.88953581735E+00  0.88000000000E+00 0. -1.
        -11    1    3    3    0    0  0.43043734148E-01 -0.31656986890E-01  0.76976026337E-02  0.53985572847E-01  0.51100000000E-03 0.  1.
         11    1    3    3    0    0  0.62341986668E-01 -0.41187062117E-01  0.14961464504E-01  0.76203700230E-01  0.51100000000E-03 0. -1.
</event>
<event>
 8    1  0.1132255E+005  0.1043930E+01  0.7957747E-01            NaN
         13   -1    0    0    0    0  0.00000000000E+00  0.00000000000E+00  0.74505805969E-08  0.10566000000E+00  0.10566000000E+00 0.  1.
     999900   -1    0    0    0    0 -0.00000000000E+00 -0.00000000000E+00 -0.74505805969E-08  0.93827000000E+00  0.93827000000E+00 0. -1.
     999902    2    1    2    0    0  0.16916194406E-01 -0.65948826662E-02  0.15927060668E-01  0.10197779530E+01  0.10194919088E+01 0.  0.
     999903    2    3    3    0    0  0.47828717644E-01 -0.94290754766E-01 -0.73788770728E-01  0.13034269375E+00  0.19133804186E-01 0.  0.
         14    1    1    2    0    0 -0.16916194406E-01  0.65948826662E-02 -0.15927060668E-01  0.24152046954E-01  0.00000000000E+00 0.  1.
     999901    1    3    3    0    0 -0.30912523238E-01  0.87695872100E-01  0.89715831395E-01  0.88943525930E+00  0.88000000000E+00 0.  1.
        -11    1    4    4    0    0  0.20766640696E-01 -0.23042892118E-01 -0.17754963446E-01  0.35745322644E-01  0.51100000000E-03 0. -1.
         11    1    4    4    0    0  0.27062076949E-01 -0.71247862647E-01 -0.56033807282E-01  0.94597371106E-01  0.51100000000E-03 0.  1.
</event>
<event>
 8    1  0.1132255E+005  0.1043930E+01  0.7957747E-01            NaN
         13   -1    0    0    0    0  0.00000000000E+00  0.00000000000E+00  0.74505805969E-08  0.10566000000E+00  0.10566000000E+00 0.  1.
     999900   -1    0    0    0    0 -0.00000000000E+00 -0.00000000000E+00 -0.74505805969E-08  0.93827000000E+00  0.93827000000E+00 0.  1.
     999902    2    1    2    0    0 -0.49401342675E-02 -0.20387696107E-01 -0.11516436559E-01  0.10199990286E+01  0.10197182587E+01 0.  0.
     999903    2    3    3    0    0 -0.39100005355E-01  0.41877804655E-01 -0.11598894013E+00  0.13097799774E+00  0.20475368564E-01 0.  0.
         14    1    1    2    0    0  0.49401342675E-02  0.20387696107E-01  0.11516436559E-01  0.23930971359E-01  0.00000000000E+00 0.  1.
     999901    1    3    3    0    0  0.34159871087E-01 -0.62265500762E-01  0.10447250357E+00  0.88902103090E+00  0.88000000000E+00 0. -1.
        -11    1    4    4    0    0 -0.28088900382E-01  0.40606318549E-01 -0.88664534456E-01  0.10148655193E+00  0.51100000000E-03 0.  1.
         11    1    4    4    0    0 -0.11011104973E-01  0.12714861060E-02 -0.27324405678E-01  0.29491445816E-01  0.51100000000E-03 0. -1.
</event>
<event>
 8    1  0.1132255E+005  0.1043930E+01  0.7957747E-01            NaN
         13   -1    0    0    0    0  0.00000000000E+00  0.00000000000E+00  0.74505805969E-08  0.10566000000E+00  0.10566000000E+00 0.  1.
     999900   -1    0    0    0    0 -0.00000000000E+00 -0.00000000000E+00 -0.74505805969E-08  0.93827000000E+00  0.93827000000E+00 0.  1.
     999902    2    1    2    0    0  0.20085166952E-01 -0.48364208687E-02  0.13551046356E-01  0.10192230019E+01  0.10189234966E+01 0.  0.
     999903    2    3    3    0    0 -0.38194563731E-01  0.11872464476E+00  0.25065592941E-01  0.12860723247E+00  0.18898950300E-01 0.  0.
         14    1    1    2    0    0 -0.20085166952E-01  0.48364208687E-02 -0.13551046356E-01  0.24706998111E-01  0.00000000000E+00 0. -1.
     999901    1    3    3    0    0  0.58279730683E-01 -0.12356106563E+00 -0.11514546585E-01  0.89061576942E+00  0.88000000000E+00 0. -1.
        -11    1    4    4    0    0 -0.10995215106E-01  0.19589283192E-01  0.10422234217E-01  0.24769312834E-01  0.51100000000E-03 0.  1.
         11    1    4    4    0    0 -0.27199348625E-01  0.99135361570E-01  0.14643358724E-01  0.10383791964E+00  0.51100000000E-03 0. -1.
</event>
<event>
 8    1  0.1132255E+005  0.1043930E+01  0.7957747E-01            NaN
         13   -1    0    0    0    0  0.00000000000E+00  0.00000000000E+00  0.74505805969E-08  0.10566000000E+00  0.10566000000E+00 0. -1.
     999900   -1    0    0    0    0 -0.00000000000E+00 -0.00000000000E+00 -0.74505805969E-08  0.93827000000E+00  0.93827000000E+00 0.  1.
     999902    2    1    2    0    0  0.58826677633E-02 -0.19727987080E-01  0.12121079105E-01  0.10200402572E+01  0.10197604652E+01 0.  0.
     999903    2    3    3    0    0 -0.39908608809E-01  0.63407915889E-01 -0.10150708992E+00  0.12767274309E+00  0.19580070728E-01 0.  0.
         14    1    1    2    0    0 -0.58826677633E-02  0.19727987080E-01 -0.12121079105E-01  0.23889742839E-01  0.00000000000E+00 0. -1.
     999901    1    3    3    0    0  0.45791276572E-01 -0.83135902969E-01  0.11362816902E+00  0.89236751407E+00  0.88000000000E+00 0. -1.
        -11    1    4    4    0    0 -0.40222003353E-01  0.50715310033E-01 -0.84939687666E-01  0.10679355733E+00  0.51100000000E-03 0.  1.
         11    1    4    4    0    0  0.31339454396E-03  0.12692605856E-01 -0.16567402254E-01  0.20879185760E-01  0.51100000000E-03 0. -1.
</event>
<event>
 8    1  0.1132255E+005  0.1043930E+01  0.7957747E-01            NaN
         13   -1    0    0    0    0  0.00000000000E+00  0.00000000000E+00  0.74505805969E-08  0.10566000000E+00  0.10566000000E+00 0. -1.
     999900   -1    0    0    0    0 -0.00000000000E+00 -0.00000000000E+00 -0.74505805969E-08  0.93827000000E+00  0.93827000000E+00 0. -1.
     999902    2    1    2    0    0 -0.19612859416E-01  0.36286035101E-02 -0.12958005418E-01  0.10201446910E+01  0.10198673687E+01 0.  0.
     999903    2    3    3    0    0 -0.90555664329E-01 -0.93030747393E-01 -0.12914849591E-01  0.13201411869E+00  0.20146609895E-01 0.  0.
         14    1    1    2    0    0  0.19612859416E-01 -0.36286035101E-02  0.12958005418E-01  0.23785308960E-01  0.00000000000E+00 0. -1.
     999901    1    3    3    0    0  0.70942804913E-01  0.96659350903E-01 -0.43155827347E-04  0.88813057235E+00  0.88000000000E+00 0. -1.
        -11    1    4    4    0    0 -0.45307175417E-01 -0.57867470859E-01 -0.13384848295E-01  0.74704749600E-01  0.51100000000E-03 0. -1.
         11    1    4    4    0    0 -0.45248488912E-01 -0.35163276534E-01  0.46999870405E-03  0.57309369087E-01  0.51100000000E-03 0.  1.
</event>
<event>
 8    1  0.1132255E+005  0.1043930E+01  0.7957747E-01            NaN
         13   -1    0    0    0    0  0.00000000000E+00  0.00000000000E+00  0.74505805969E-08  0.10566000000E+00  0.10566000000E+00 0. -1.
     999900   -1    0    0    0    0 -0.00000000000E+00 -0.00000000000E+00 -0.74505805969E-08  0.93827000000E+00  0.93827000000E+00 0. -1.
     999902    2    1    2    0    0  0.34620990965E-02  0.65022533311E-02 -0.22289950149E-01  0.10204543252E+01  0.10201842591E+01 0.  0.
     999903    2    3    3    0    0  0.11545266327E+00  0.47155719005E-01  0.33160689740E-01  0.13069628834E+00  0.20710121976E-01 0.  0.
         14    1    1    2    0    0 -0.34620990965E-02 -0.65022533311E-02  0.22289950149E-01  0.23475674776E-01  0.00000000000E+00 0. -1.
     999901    1    3    3    0    0 -0.11199056417E+00 -0.40653465674E-01 -0.55450639889E-01  0.88975803688E+00  0.88000000000E+00 0.  1.
        -11    1    4    4    0    0  0.10047989331E+00  0.47764607173E-01  0.26995698922E-01  0.11448447729E+00  0.51100000000E-03 0. -1.
         11    1    4    4    0    0  0.14972769955E-01 -0.60888816804E-03  0.61649908177E-02  0.16211811056E-01  0.51100000000E-03 0.  1.
</event>
<event>
 8    1  0.1132255E+005  0.1043930E+01  0.7957747E-01            NaN
         13   -1    0    0    0    0  0.00000000000E+00  0.00000000000E+00  0.74505805969E-08  0.10566000000E+00  0.10566000000E+00 0. -1.
     999900   -1    0    0    0    0 -0.00000000000E+00 -0.00000000000E+00 -0.74505805969E-08  0.93827000000E+00  0.93827000000E+00 0. -1.
     999902    2    1    2    0    0 -0.15318998614E-01  0.19059997651E-01 -0.31438766899E-03  0.10194748560E+01  0.10191814990E+01 0.  0.
     999903    2    3    3    0    0  0.30900337807E-01 -0.12125610431E+00  0.34478814355E-02  0.12715261027E+00  0.22316467108E-01 0.  0.
         14    1    1    2    0    0  0.15318998614E-01 -0.19059997651E-01  0.31438766899E-03  0.24455144011E-01  0.00000000000E+00 0. -1.
     999901    1    3    3    0    0 -0.46219336421E-01  0.14031610196E+00 -0.37622691045E-02  0.89232224571E+00  0.88000000000E+00 0. -1.
        -11    1    4    4    0    0  0.10445100335E-01 -0.57819343898E-01  0.11941251528E-01  0.59958579527E-01  0.51100000000E-03 0.  1.
         11    1    4    4    0    0  0.20455237472E-01 -0.63436760412E-01 -0.84933700924E-02  0.67194030747E-01  0.51100000000E-03 0. -1.
</event>
<event>
 8    1  0.1132255E+005  0.1043930E+01  0.7957747E-01            NaN
         13   -1    0    0    0    0  0.00000000000E+00  0.00000000000E+00  0.74505805969E-08  0.10566000000E+00  0.10566000000E+00 0. -1.
     999900   -1    0    0    0    0 -0.00000000000E+00 -0.00000000000E+00 -0.74505805969E-08  0.93827000000E+00  0.93827000000E+00 0.  1.
     999902    2    1    2    0    0 -0.17433500924E-01 -0.47188318765E-02 -0.18139070025E-01  0.10183327308E+01  0.10180109677E+01 0.  0.
     999903    2    3    3    0    0  0.44975098386E-03  0.12309903968E+00 -0.29967194327E-01  0.12884010942E+00  0.23412928339E-01 0.  0.
         14    1    1    2    0    0  0.17433500924E-01  0.47188318765E-02  0.18139070025E-01  0.25597269192E-01  0.00000000000E+00 0. -1.
     999901    1    3    3    0    0 -0.17883251908E-01 -0.12781787155E+00  0.11828124303E-01  0.88949262139E+00  0.88000000000E+00 0. -1.
        -11    1    4    4    0    0 -0.96838627041E-02  0.47896565763E-01 -0.58571475124E-02  0.49218142049E-01  0.51100000000E-03 0. -1.
         11    1    4    4    0    0  0.10133613688E-01  0.75202473913E-01 -0.24110046815E-01  0.79621967367E-01  0.51100000000E-03 0.  1.
</event>
<event>
 8    1  0.1132255E+005  0.1043930E+01  0.7957747E-01            NaN
         13   -1    0    0    0    0  0.00000000000E+00  0.00000000000E+00  0.74505805969E-08  0.10566000000E+00  0.10566000000E+00 0. -1.
     999900   -1    0    0    0    0 -0.00000000000E+00 -0.00000000000E+00 -0.74505805969E-08  0.93827000000E+00  0.93827000000E+00 0. -1.
     999902    2    1    2    0    0 -0.27389227696E-01  0.13317373349E-01 -0.58251812954E-02  0.10129226627E+01  0.10124479570E+01 0.  0.
     999903    2    3    3    0    0 -0.50011325000E-03 -0.89733100902E-02 -0.12246851578E+00  0.12453898070E+00  0.20752107083E-01 0.  0.
         14    1    1    2    0    0  0.27389227696E-01 -0.13317373349E-01  0.58251812954E-02  0.31007337257E-01  0.00000000000E+00 0.  1.
     999901    1    3    3    0    0 -0.26889114446E-01  0.22290683439E-01  0.11664333449E+00  0.88838368204E+00  0.88000000000E+00 0.  1.
        -11    1    4    4    0    0  0.89896886382E-02 -0.34193457088E-03 -0.35386226190E-01  0.36515442569E-01  0.51100000000E-03 0.  1.
         11    1    4    4    0    0 -0.94898018882E-02 -0.86313755193E-02 -0.87082289591E-01  0.88023538129E-01  0.51100000000E-03 0. -1.
</event>
<event>
 8    1  0.1132255E+005  0.1043930E+01  0.7957747E-01            NaN
         13   -1    0    0    0    0  0.00000000000E+00  0.00000000000E+00  0.74505805969E-08  0.10566000000E+00  0.10566000000E+00 0. -1.
     999900   -1    0    0    0    0 -0.00000000000E+00 -0.00000000000E+00 -0.74505805969E-08  0.93827000000E+00  0.93827000000E+00 0. -1.
     999902    2    1    2    0    0 -0.22739345992E-01 -0.50695648330E-02  0.72939307742E-03  0.10206209812E+01  0.10203547799E+01 0.  0.
     999903    2    3    3    0    0  0.53618367452E-01  0.41454938871E-01 -0.10829072580E+00  0.12939687011E+00  0.20572491680E-01 0.  0.
         14    1    1    2    0    0  0.22739345992E-01  0.50695648330E-02 -0.72939307742E-03  0.23309018813E-01  0.00000000000E+00 0.  1.
     999901    1    3    3    0    0 -0.76357713445E-01 -0.46524503704E-01  0.10902011888E+00  0.89122411108E+00  0.88000000000E+00 0.  1.
        -11    1    4    4    0    0 -0.16977381755E-02  0.25673021453E-02 -0.62404185698E-02  0.69769119347E-02  0.51100000000E-03 0. -1.
         11    1    4    4    0    0  0.55316105628E-01  0.38887636725E-01 -0.10205030723E+00  0.12241995817E+00  0.51100000000E-03 0.  1.
</event>
<event>
 8    1  0.1132255E+005  0.1043930E+01  0.7957747E-01            NaN
         13   -1    0    0    0    0  0.00000000000E+00  0.00000000000E+00  0.74505805969E-08  0.10566000000E+00  0.10566000000E+00 0. -1.
     999900   -1    0    0    0    0 -0.00000000000E+00 -0.00000000000E+00 -0.74505805969E-08  0.93827000000E+00  0.93827000000E+00 0.  1.
     999902    2    1    2    0    0  0.23910477863E-01 -0.90284585434E-02  0.12081872370E-01  0.10156599513E+01  0.10152664384E+01 0.  0.
     999903    2    3    3    0    0  0.66848291611E-01  0.92070115910E-01  0.54072912793E-01  0.12783799554E+00  0.21750238380E-01 0.  0.
         14    1    1    2    0    0 -0.23910477863E-01  0.90284585434E-02 -0.12081872370E-01  0.28270048731E-01  0.00000000000E+00 0. -1.
     999901    1    3    3    0    0 -0.42937813748E-01 -0.10109857445E+00 -0.41991040423E-01  0.88782195573E+00  0.88000000000E+00 0.  1.
        -11    1    4    4    0    0  0.62119825145E-01  0.72810040881E-01  0.48117229852E-01  0.10712471078E+00  0.51100000000E-03 0.  1.
         11    1    4    4    0    0  0.47284664660E-02  0.19260075029E-01  0.59556829417E-02  0.20713284760E-01  0.51100000000E-03 0. -1.
</event>
<event>
 8    1  0.1132255E+005  0.1043930E+01  0.7957747E-01            NaN
         13   -1    0    0    0    0  0.00000000000E+00  0.00000000000E+00  0.74505805969E-08  0.10566000000E+00  0.10566000000E+00 0.  1.
     999900   -1    0    0    0    0 -0.00000000000E+00 -0.00000000000E+00 -0.74505805969E-08  0.93827000000E+00  0.93827000000E+00 0.  1.
     999902    2    1    2    0    0 -0.17707896846E-01 -0.18033939237E-01 -0.12410506857E-01  0.10157730603E+01  0.10153827341E+01 0.  0.
     999903    2    3    3    0    0  0.42568044156E-02 -0.18057204737E-01 -0.12532570508E+00  0.12828655860E+00  0.20167442482E-01 0.  0.
         14    1    1    2    0    0  0.17707896846E-01  0.18033939237E-01  0.12410506857E-01  0.28156939741E-01  0.00000000000E+00 0.  1.
     999901    1    3    3    0    0 -0.21964701262E-01  0.23265499707E-04  0.11291519822E+00  0.88748650166E+00  0.88000000000E+00 0. -1.
        -11    1    4    4    0    0 -0.50828021466E-02 -0.11928040207E-01 -0.36069411754E-01  0.38332448476E-01  0.51100000000E-03 0.  1.
         11    1    4    4    0    0  0.93396065622E-02 -0.61291645295E-02 -0.89256293325E-01  0.89954110121E-01  0.51100000000E-03 0. -1.
</event>
<event>
 8    1  0.1132255E+005  0.1043930E+01  0.7957747E-01            NaN
         13   -1    0    0    0    0  0.00000000000E+00  0.00000000000E+00  0.74505805969E-08  0.10566000000E+00  0.10566000000E+00 0. -1.
     999900   -1    0    0    0    0 -0.00000000000E+00 -0.00000000000E+00 -0.74505805969E-08  0.93827000000E+00  0.93827000000E+00 0. -1.
     999902    2    1    2    0    0 -0.59218904186E-02  0.97320899576E-02 -0.20920381506E-01  0.10201089017E+01  0.10198307343E+01 0.  0.
     999903    2    3    3    0    0 -0.97036677860E-01 -0.79152733092E-01  0.27370897422E-01  0.12964022519E+00  0.19394585715E-01 0.  0.
         14    1    1    2    0    0  0.59218904186E-02 -0.97320899576E-02  0.20920381506E-01  0.23821098283E-01  0.00000000000E+00 0. -1.
     999901    1    3    3    0    0  0.91114787441E-01  0.88884823050E-01 -0.48291278928E-01  0.89046867653E+00  0.88000000000E+00 0. -1.
        -11    1    4    4    0    0 -0.76253913561E-01 -0.52957381891E-01  0.24818323575E-01  0.96100748885E-01  0.51100000000E-03 0.  1.
         11    1    4    4    0    0 -0.20782764299E-01 -0.26195351201E-01  0.25525738473E-02  0.33539476303E-01  0.51100000000E-03 0. -1.
</event>
<event>
 8    1  0.1132255E+005  0.1043930E+01  0.7957747E-01            NaN
         13   -1    0    0    0    0  0.00000000000E+00  0.00000000000E+00  0.74505805969E-08  0.10566000000E+00  0.10566000000E+00 0. -1.
     999900   -1    0    0    0    0 -0.00000000000E+00 -0.00000000000E+00 -0.74505805969E-08  0.93827000000E+00  0.93827000000E+00 0. -1.
     999902    2    1    2    0    0  0.12238025606E-01 -0.17608854170E-01 -0.87842280848E-02  0.10207566602E+01  0.10204935843E+01 0.  0.
     999903    2    3    3    0    0  0.69171925337E-01  0.83589873193E-01 -0.70292082942E-01  0.13100058822E+00  0.21169672517E-01 0.  0.
         14    1    1    2    0    0 -0.12238025606E-01  0.17608854170E-01  0.87842280848E-02  0.23173339832E-01  0.00000000000E+00 0.  1.
     999901    1    3    3    0    0 -0.56933899731E-01 -0.10119872736E+00  0.61507854858E-01  0.88975607195E+00  0.88000000000E+00 0.  1.
        -11    1    4    4    0    0  0.48667695289E-01  0.47929697572E-01 -0.52626578063E-01  0.86230031391E-01  0.51100000000E-03 0.  1.
         11    1    4    4    0    0  0.20504230048E-01  0.35660175620E-01 -0.17665504880E-01  0.44770556829E-01  0.51100000000E-03 0. -1.
</event>
<event>
 8    1  0.1132255E+005  0.1043930E+01  0.7957747E-01            NaN
         13   -1    0    0    0    0  0.00000000000E+00  0.00000000000E+00  0.74505805969E-08  0.10566000000E+00  0.10566000000E+00 0.  1.
     999900   -1    0    0    0    0 -0.00000000000E+00 -0.00000000000E+00 -0.74505805969E-08  0.93827000000E+00  0.93827000000E+00 0. -1.
     999902    2    1    2    0    0  0.56858951463E-02  0.20990002097E-01  0.29864575929E-03  0.10221814649E+01  0.10219500713E+01 0.  0.
     999903    2    3    3    0    0  0.85458795717E-01 -0.92001642226E-01  0.23748416399E-01  0.13106939609E+00  0.29115139925E-01 0.  0.
         14    1    1    2    0    0 -0.56858951463E-02 -0.20990002097E-01 -0.29864575929E-03  0.21748535144E-01  0.00000000000E+00 0.  1.
     999901    1    3    3    0    0 -0.79772900571E-01  0.11299164432E+00 -0.23449770639E-01  0.89111206876E+00  0.88000000000E+00 0. -1.
        -11    1    4    4    0    0  0.37961043549E-01 -0.59230387206E-01  0.20458928126E-01  0.73267376485E-01  0.51100000000E-03 0. -1.
         11    1    4    4    0    0  0.47497752168E-01 -0.32771255020E-01  0.32894882727E-02  0.57802019607E-01  0.51100000000E-03 0.  1.
</event>
<event>
 8    1  0.1132255E+005  0.1043930E+01  0.7957747E-01            NaN
         13   -1    0    0    0    0  0.00000000000E+00  0.00000000000E+00  0.74505805969E-08  0.10566000000E+00  0.10566000000E+00 0. -1.
     999900   -1    0    0    0    0 -0.00000000000E+00 -0.00000000000E+00 -0.74505805969E-08  0.93827000000E+00  0.93827000000E+00 0. -1.
     999902    2    1    2    0    0  0.13453865703E-01 -0.16766294733E-01 -0.96838795555E-02  0.10203526239E+01  0.10200801853E+01 0.  0.
     999903    2    3    3    0    0 -0.64368213434E-03 -0.83456997080E-01  0.98980478618E-01  0.13105271194E+00  0.20302548410E-01 0.  0.
         14    1    1    2    0    0 -0.13453865703E-01  0.16766294733E-01  0.96838795555E-02  0.23577376119E-01  0.00000000000E+00 0. -1.
     999901    1    3    3    0    0  0.14097547837E-01  0.66690702347E-01 -0.10866435817E+00  0.88929991194E+00  0.88000000000E+00 0. -1.
        -11    1    4    4    0    0  0.97375573078E-02 -0.40461357239E-01  0.49972325513E-01  0.65034113281E-01  0.51100000000E-03 0.  1.
         11    1    4    4    0    0 -0.10381239442E-01 -0.42995639841E-01  0.49008153105E-01  0.66018598663E-01  0.51100000000E-03 0. -1.
</event>
<event>
 8    1  0.1132255E+005  0.1043930E+01  0.7957747E-01            NaN
         13   -1    0    0    0    0  0.00000000000E+00  0.00000000000E+00  0.74505805969E-08  0.10566000000E+00  0.10566000000E+00 0.  1.
     999900   -1    0    0    0    0 -0.00000000000E+00 -0.00000000000E+00 -0.74505805969E-08  0.93827000000E+00  0.93827000000E+00 0. -1.
     999902    2    1    2    0    0  0.14117281985E-01  0.17945970916E-01  0.55447601829E-02  0.10204331941E+01  0.10201626359E+01 0.  0.
     999903    2    3    3    0    0 -0.12091639018E+00  0.30595494535E-01 -0.29429060491E-01  0.12935672643E+00  0.17613499697E-01 0.  0.
         14    1    1    2    0    0 -0.14117281985E-01 -0.17945970916E-01 -0.55447601829E-02  0.23496805916E-01  0.00000000000E+00 0.  1.
     999901    1    3    3    0    0  0.13503367217E+00 -0.12649523619E-01  0.34973820674E-01  0.89107646765E+00  0.88000000000E+00 0. -1.
        -11    1    4    4    0    0 -0.56111909021E-01  0.22675167436E-01 -0.17347973049E-01  0.62959692202E-01  0.51100000000E-03 0.  1.
         11    1    4    4    0    0 -0.64804481162E-01  0.79203270993E-02 -0.12081087442E-01  0.66397034232E-01  0.51100000000E-03 0. -1.
</event>
<event>
 8    1  0.1132255E+005  0.1043930E+01  0.7957747E-01            NaN
         13   -1    0    0    0    0  0.00000000000E+00  0.00000000000E+00  0.74505805969E-08  0.10566000000E+00  0.10566000000E+00 0. -1.
     999900   -1    0    0    0    0 -0.00000000000E+00 -0.00000000000E+00 -0.74505805969E-08  0.93827000000E+00  0.93827000000E+00 0. -1.
     999902    2    1    2    0    0  0.20989721159E-01 -0.11164134487E-01 -0.65767948337E-03  0.10201468371E+01  0.10198695654E+01 0.  0.
     999903    2    3    3    0    0  0.10234389906E-01 -0.12106665114E+00 -0.47352894086E-01  0.13201695735E+00  0.20598633314E-01 0.  0.
         14    1    1    2    0    0 -0.20989721159E-01  0.11164134487E-01  0.65767948337E-03  0.23783162857E-01  0.00000000000E+00 0.  1.
     999901    1    3    3    0    0  0.10755331253E-01  0.10990251665E+00  0.46695214602E-01  0.88812987979E+00  0.88000000000E+00 0.  1.
        -11    1    4    4    0    0  0.10797669662E-02 -0.12809227406E-01 -0.12451338928E-01  0.17903607613E-01  0.51100000000E-03 0.  1.
         11    1    4    4    0    0  0.91546229400E-02 -0.10825742373E+00 -0.34901555158E-01  0.11411334974E+00  0.51100000000E-03 0. -1.
</event>
<event>
 8    1  0.1132255E+005  0.1043930E+01  0.7957747E-01            NaN
         13   -1    0    0    0    0  0.00000000000E+00  0.00000000000E+00  0.74505805969E-08  0.10566000000E+00  0.10566000000E+00 0.  1.
     999900   -1    0    0    0    0 -0.00000000000E+00 -0.00000000000E+00 -0.74505805969E-08  0.93827000000E+00  0.93827000000E+00 0. -1.
     999902    2    1    2    0    0 -0.14993312286E-01 -0.11101281004E-01 -0.26470526305E-01  0.10115459512E+01  0.10110274402E+01 0.  0.
     999903    2    3    3    0    0 -0.14292691019E-02 -0.92477166404E-01 -0.83293523708E-01  0.12586267202E+00  0.18695774951E-01 0.  0.
         14    1    1    2    0    0  0.14993312286E-01  0.11101281004E-01  0.26470526305E-01  0.32384048792E-01  0.00000000000E+00 0.  1.
     999901    1    3    3    0    0 -0.13564043185E-01  0.81375885400E-01  0.56822997403E-01  0.88568327918E+00  0.88000000000E+00 0.  1.
        -11    1    4    4    0    0  0.51392314684E-02 -0.79778810523E-01 -0.68429272718E-01  0.10523258428E+00  0.51100000000E-03 0. -1.
         11    1    4    4    0    0 -0.65685005704E-02 -0.12698355881E-01 -0.14864250990E-01  0.20630087744E-01  0.51100000000E-03 0.  1.
</event>
<event>
 8    1  0.1132255E+005  0.1043930E+01  0.7957747E-01            NaN
         13   -1    0    0    0    0  0.00000000000E+00  0.00000000000E+00  0.74505805969E-08  0.10566000000E+00  0.10566000000E+00 0.  1.
     999900   -1    0    0    0    0 -0.00000000000E+00 -0.00000000000E+00 -0.74505805969E-08  0.93827000000E+00  0.93827000000E+00 0.  1.
     999902    2    1    2    0    0  0.12340817350E-01  0.16030784933E-01 -0.13287453910E-01  0.10197259039E+01  0.10194386106E+01 0.  0.
     999903    2    3    3    0    0  0.18242786146E-01  0.52375600694E-01  0.11515323113E+00  0.12964007180E+00  0.21685912044E-01 0.  0.
         14    1    1    2    0    0 -0.12340817350E-01 -0.16030784933E-01  0.13287453910E-01  0.24204096137E-01  0.00000000000E+00 0. -1.
     999901    1    3    3    0    0 -0.59019687965E-02 -0.36344815762E-01 -0.12844068504E+00  0.89008583206E+00  0.88000000000E+00 0.  1.
        -11    1    4    4    0    0  0.72419809450E-02  0.25944604412E-01  0.79328102005E-01  0.83778145568E-01  0.51100000000E-03 0. -1.
         11    1    4    4    0    0  0.11000805201E-01  0.26430996282E-01  0.35825129127E-01  0.45861926230E-01  0.51100000000E-03 0.  1.
</event>
<event>
 8    1  0.1132255E+005  0.1043930E+01  0.7957747E-01            NaN
         13   -1    0    0    0    0  0.00000000000E+00  0.00000000000E+00  0.74505805969E-08  0.10566000000E+00  0.10566000000E+00 0. -1.
     999900   -1    0    0    0    0 -0.00000000000E+00 -0.00000000000E+00 -0.74505805969E-08  0.93827000000E+00  0.93827000000E+00 0.  1.
     999902    2    1    2    0    0 -0.22181619358E-01  0.64181066372E-02 -0.48445311452E-02  0.10203358098E+01  0.10200629779E+01 0.  0.
     999903    2    3    3    0    0 -0.10393059351E+00 -0.42199991297E-02 -0.80971078166E-01  0.13321050001E+00  0.19218354587E-01 0.  0.
         14    1    1    2    0    0  0.22181619358E-01 -0.64181066372E-02  0.48445311452E-02  0.23594190220E-01  0.00000000000E+00 0. -1.
     999901    1    3    3    0    0  0.81748974157E-01  0.10638105767E-01  0.76126547020E-01  0.88712530977E+00  0.88000000000E+00 0. -1.
        -11    1    4    4    0    0 -0.95093610799E-01 -0.87016911167E-02 -0.76365147282E-01  0.12227187364E+00  0.51100000000E-03 0. -1.
         11    1    4    4    0    0 -0.88369827161E-02  0.44816919869E-02 -0.46059308833E-02  0.10938626371E-01  0.51100000000E-03 0.  1.
</event>
<event>
 8    1  0.1132255E+005  0.1043930E+01  0.7957747E-01            NaN
         13   -1    0    0    0    0  0.00000000000E+00  0.00000000000E+00  0.74505805969E-08  0.10566000000E+00  0.10566000000E+00 0.  1.
     999900   -1    0    0    0    0 -0.00000000000E+00 -0.00000000000E+00 -0.74505805969E-08  0.93827000000E+00  0.93827000000E+00 0.  1.
     999902    2    1    2    0    0 -0.12650533591E-01 -0.13223969861E-01  0.15263904097E-01  0.10200994283E+01  0.10198210370E+01 0.  0.
     999903    2    3    3    0    0 -0.71638704962E-01 -0.89404055111E-01 -0.61366151942E-01  0.13153025529E+00  0.20229046758E-01 0.  0.
         14    1    1    2    0    0  0.12650533591E-01  0.13223969861E-01 -0.15263904097E-01  0.23830571695E-01  0.00000000000E+00 0. -1.
     999901    1    3    3    0    0  0.58988171371E-01  0.76180085250E-01  0.76630056039E-01  0.88856917302E+00  0.88000000000E+00 0.  1.
        -11    1    4    4    0    0 -0.36179900508E-01 -0.57052164142E-01 -0.28330201242E-01  0.73258419704E-01  0.51100000000E-03 0.  1.
         11    1    4    4    0    0 -0.35458804454E-01 -0.32351890969E-01 -0.33035950700E-01  0.58271835583E-01  0.51100000000E-03 0. -1.
</event>
<event>
 8    1  0.1132255E+005  0.1043930E+01  0.7957747E-01            NaN
         13   -1    0    0    0    0  0.00000000000E+00  0.00000000000E+00  0.74505805969E-08  0.10566000000E+00  0.10566000000E+00 0.  1.
     999900   -1    0    0    0    0 -0.00000000000E+00 -0.00000000000E+00 -0.74505805969E-08  0.93827000000E+00  0.93827000000E+00 0.  1.
     999902    2    1    2    0    0 -0.22654959561E-01 -0.73570159287E-02 -0.13471200862E-02  0.10200723470E+01  0.10197933151E+01 0.  0.
     999903    2    3    3    0    0  0.55795448186E-01  0.33649258956E-01  0.10915645779E+00  0.12875477068E+00  0.20426796830E-01 0.  0.
         14    1    1    2    0    0  0.22654959561E-01  0.73570159287E-02  0.13471200862E-02  0.23857653041E-01  0.00000000000E+00 0.  1.
     999901    1    3    3    0    0 -0.78450407748E-01 -0.41006274884E-01 -0.11050357788E+00  0.89131757628E+00  0.88000000000E+00 0.  1.
        -11    1    4    4    0    0  0.25726387961E-01  0.19750313001E-01  0.36070381259E-01  0.48510364113E-01  0.51100000000E-03 0. -1.
         11    1    4    4    0    0  0.30069060225E-01  0.13898945955E-01  0.73086076535E-01  0.80244406570E-01  0.51100000000E-03 0.  1.
</event>
<event>
 8    1  0.1310204E+005  0.1043930E+01  0.7957747E-01            NaN
         13   -1    0    0    0    0  0.00000000000E+00  0.00000000000E+00  0.74505805969E-08  0.10566000000E+00  0.10566000000E+00 0.  1.
     999900   -1    0    0    0    0 -0.00000000000E+00 -0.00000000000E+00 -0.74505805969E-08  0.93827000000E+00  0.93827000000E+00 0.  1.
     999902    2    1    2    0    0 -0.89289678491E-02 -0.27875219169E-03 -0.22396752412E-01  0.10198173749E+01  0.10195322749E+01 0.  0.
     999903    2    3    3    0    0  0.96300336156E-01 -0.73302487789E-01  0.38199094239E-01  0.12848268525E+00  0.20040462771E-01 0.  0.
         14    1    1    2    0    0  0.89289678491E-02  0.27875219169E-03  0.22396752412E-01  0.24112625080E-01  0.00000000000E+00 0.  1.
     999901    1    3    3    0    0 -0.10522930401E+00  0.73023735597E-01 -0.60595846651E-01  0.89133468967E+00  0.88000000000E+00 0. -1.
        -11    1    4    4    0    0  0.55874625197E-01 -0.54608721000E-01  0.24567227595E-01  0.81901745665E-01  0.51100000000E-03 0. -1.
         11    1    4    4    0    0  0.40425710959E-01 -0.18693766788E-01  0.13631866644E-01  0.46580939583E-01  0.51100000000E-03 0.  1.
</event>
<event>
 8    1  0.1132255E+005  0.1043930E+01  0.7957747E-01            NaN
         13   -1    0    0    0    0  0.00000000000E+00  0.00000000000E+00  0.74505805969E-08  0.10566000000E+00  0.10566000000E+00 0. -1.
     999900   -1    0    0    0    0 -0.00000000000E+00 -0.00000000000E+00 -0.74505805969E-08  0.93827000000E+00  0.93827000000E+00 0.  1.
     999902    2    1    2    0    0 -0.62426872911E-02 -0.19494025644E-01 -0.12823692258E-01  0.10197755954E+01  0.10194894946E+01 0.  0.
     999903    2    3    3    0    0  0.10967548627E+00  0.61163589180E-01 -0.13223652682E-02  0.12844234998E+00  0.26944232941E-01 0.  0.
         14    1    1    2    0    0  0.62426872911E-02  0.19494025644E-01  0.12823692258E-01  0.24154404641E-01  0.00000000000E+00 0. -1.
     999901    1    3    3    0    0 -0.11591817356E+00 -0.80657614824E-01 -0.11501326990E-01  0.89133324538E+00  0.88000000000E+00 0. -1.
        -11    1    4    4    0    0  0.24305399142E-01  0.22439263034E-01  0.85767776924E-02  0.34177407589E-01  0.51100000000E-03 0.  1.
         11    1    4    4    0    0  0.85370087130E-01  0.38724326146E-01 -0.98991429605E-02  0.94264942393E-01  0.51100000000E-03 0. -1.
</event>
<event>
 8    1  0.1132255E+005  0.1043930E+01  0.7957747E-01            NaN
         13   -1    0    0    0    0  0.00000000000E+00  0.00000000000E+00  0.74505805969E-08  0.10566000000E+00  0.10566000000E+00 0.  1.
     999900   -1    0    0    0    0 -0.00000000000E+00 -0.00000000000E+00 -0.74505805969E-08  0.93827000000E+00  0.93827000000E+00 0.  1.
     999902    2    1    2    0    0 -0.23982607356E-01  0.31540634089E-02 -0.51078078756E-02  0.10192074744E+01  0.10189075878E+01 0.  0.
     999903    2    3    3    0    0 -0.96640604730E-01 -0.81037904880E-01  0.30883713665E-01  0.13147842691E+00  0.20645204351E-01 0.  0.
         14    1    1    2    0    0  0.23982607356E-01 -0.31540634089E-02  0.51078078756E-02  0.24722525617E-01  0.00000000000E+00 0. -1.
     999901    1    3    3    0    0  0.72657997374E-01  0.84191968289E-01 -0.35991521541E-01  0.88772904747E+00  0.88000000000E+00 0.  1.
        -11    1    4    4    0    0 -0.47544613471E-01 -0.52254485893E-01  0.13119144909E-01  0.71856764818E-01  0.51100000000E-03 0. -1.
         11    1    4    4    0    0 -0.49095991259E-01 -0.28783418987E-01  0.17764568757E-01  0.59621662090E-01  0.51100000000E-03 0.  1.
</event>
<event>
 8    1  0.1132255E+005  0.1043930E+01  0.7957747E-01            NaN
         13   -1    0    0    0    0  0.00000000000E+00  0.00000000000E+00  0.74505805969E-08  0.10566000000E+00  0.10566000000E+00 0.  1.
     999900   -1    0    0    0    0 -0.00000000000E+00 -0.00000000000E+00 -0.74505805969E-08  0.93827000000E+00  0.93827000000E+00 0. -1.
     999902    2    1    2    0    0  0.15462355215E-01 -0.94422543792E-02 -0.16086010106E-01  0.10197019106E+01  0.10194140406E+01 0.  0.
     999903    2    3    3    0    0 -0.49726252562E-01  0.82094257960E-01  0.81213042027E-01  0.12723589260E+00  0.19525541910E-01 0.  0.
         14    1    1    2    0    0 -0.15462355215E-01  0.94422543792E-02  0.16086010106E-01  0.24228089435E-01  0.00000000000E+00 0.  1.
     999901    1    3    3    0    0  0.65188607777E-01 -0.91536512339E-01 -0.97299052132E-01  0.89246601796E+00  0.88000000000E+00 0. -1.
        -11    1    4    4    0    0 -0.16393808339E-01  0.21482773949E-01  0.12657377418E-01  0.29845214901E-01  0.51100000000E-03 0.  1.
         11    1    4    4    0    0 -0.33332444223E-01  0.60611484011E-01  0.68555664608E-01  0.97390677699E-01  0.51100000000E-03 0. -1.
</event>
<event>
 8    1  0.1132255E+005  0.1043930E+01  0.7957747E-01            NaN
         13   -1    0    0    0    0  0.00000000000E+00  0.00000000000E+00  0.74505805969E-08  0.10566000000E+00  0.10566000000E+00 0. -1.
     999900   -1    0    0    0    0 -0.00000000000E+00 -0.00000000000E+00 -0.74505805969E-08  0.93827000000E+00  0.93827000000E+00 0.  1.
     999902    2    1    2    0    0  0.10609048274E-01  0.21658113292E-01 -0.22823742437E-02  0.10197053223E+01  0.10194175344E+01 0.  0.
     999903    2    3    3    0    0  0.78550158139E-01  0.61917183370E-01  0.83723665489E-01  0.13199262893E+00  0.20212297950E-01 0.  0.
         14    1    1    2    0    0 -0.10609048274E-01 -0.21658113292E-01  0.22823742437E-02  0.24224677683E-01  0.00000000000E+00 0.  1.
     999901    1    3    3    0    0 -0.67941109865E-01 -0.40259070079E-01 -0.86006039732E-01  0.88771269339E+00  0.88000000000E+00 0.  1.
        -11    1    4    4    0    0  0.36334923628E-01  0.23944124999E-01  0.48545191185E-01  0.65195433162E-01  0.51100000000E-03 0. -1.
         11    1    4    4    0    0  0.42215234511E-01  0.37973058372E-01  0.35178474304E-01  0.66797195766E-01  0.51100000000E-03 0.  1.
</event>
<event>
 8    1  0.1132255E+005  0.1043930E+01  0.7957747E-01            NaN
         13   -1    0    0    0    0  0.00000000000E+00  0.00000000000E+00  0.74505805969E-08  0.10566000000E+00  0.10566000000E+00 0. -1.
     999900   -1    0    0    0    0 -0.00000000000E+00 -0.00000000000E+00 -0.74505805969E-08  0.93827000000E+00  0.93827000000E+00 0.  1.
     999902    2    1    2    0    0 -0.38091557654E-02  0.23310711532E-01 -0.40512040550E-02  0.10199652093E+01  0.10196836357E+01 0.  0.
     999903    2    3    3    0    0  0.27389899939E-01  0.30342114389E-01 -0.12320355126E+00  0.13135950170E+00  0.20133383222E-01 0.  0.
         14    1    1    2    0    0  0.38091557654E-02 -0.23310711532E-01  0.40512040550E-02  0.23964790716E-01  0.00000000000E+00 0. -1.
     999901    1    3    3    0    0 -0.31199055704E-01 -0.70314028571E-02  0.11915234720E+00  0.88860570758E+00  0.88000000000E+00 0. -1.
        -11    1    4    4    0    0  0.70803206666E-02  0.61583729166E-02 -0.59697625031E-01  0.60432806099E-01  0.51100000000E-03 0. -1.
         11    1    4    4    0    0  0.20309579272E-01  0.24183741473E-01 -0.63505926229E-01  0.70926695602E-01  0.51100000000E-03 0.  1.
</event>
<event>
 8    1  0.1132255E+005  0.1043930E+01  0.7957747E-01            NaN
         13   -1    0    0    0    0  0.00000000000E+00  0.00000000000E+00  0.74505805969E-08  0.10566000000E+00  0.10566000000E+00 0.  1.
     999900   -1    0    0    0    0 -0.00000000000E+00 -0.00000000000E+00 -0.74505805969E-08  0.93827000000E+00  0.93827000000E+00 0.  1.
     999902    2    1    2    0    0 -0.19995864607E-01  0.55569748132E-02  0.12138466267E-01  0.10198871854E+01  0.10196037534E+01 0.  0.
     999903    2    3    3    0    0 -0.18591055135E-01 -0.33637619026E-01 -0.12168098109E+00  0.12890691953E+00  0.18265158125E-01 0.  0.
         14    1    1    2    0    0  0.19995864607E-01 -0.55569748132E-02 -0.12138466267E-01  0.24042814597E-01  0.00000000000E+00 0. -1.
     999901    1    3    3    0    0 -0.14048094715E-02  0.39194593839E-01  0.13381944735E+00  0.89098026587E+00  0.88000000000E+00 0. -1.
        -11    1    4    4    0    0 -0.89484050241E-02 -0.10102965982E-01 -0.20293812462E-01  0.24377116716E-01  0.51100000000E-03 0. -1.
         11    1    4    4    0    0 -0.96426501111E-02 -0.23534653043E-01 -0.10138716862E+00  0.10452980282E+00  0.51100000000E-03 0.  1.
</event>
<event>
 8    1  0.1132255E+005  0.1043930E+01  0.7957747E-01            NaN
         13   -1    0    0    0    0  0.00000000000E+00  0.00000000000E+00  0.74505805969E-08  0.10566000000E+00  0.10566000000E+00 0.  1.
     999900   -1    0    0    0    0 -0.00000000000E+00 -0.00000000000E+00 -0.74505805969E-08  0.93827000000E+00  0.93827000000E+00 0. -1.
     999902    2    1    2    0    0  0.14693526117E-01  0.68870307306E-02 -0.18945688946E-01  0.10189846591E+01  0.10186792751E+01 0.  0.
     999903    2    3    3    0    0  0.52668110748E-01 -0.20492830443E-02  0.11505630778E+00  0.12798608341E+00  0.19088062670E-01 0.  0.
         14    1    1    2    0    0 -0.14693526117E-01 -0.68870307306E-02  0.18945688946E-01  0.24945340881E-01  0.00000000000E+00 0.  1.
     999901    1    3    3    0    0 -0.37974584631E-01  0.89363137750E-02 -0.13400199673E+00  0.89099857571E+00  0.88000000000E+00 0. -1.
        -11    1    4    4    0    0  0.21568672764E-01 -0.91376149991E-02  0.38794545137E-01  0.45320872742E-01  0.51100000000E-03 0.  1.
         11    1    4    4    0    0  0.31099437984E-01  0.70883319548E-02  0.76261762644E-01  0.82665210672E-01  0.51100000000E-03 0. -1.
</event>
<event>
 8    1  0.1132255E+005  0.1043930E+01  0.7957747E-01            NaN
         13   -1    0    0    0    0  0.00000000000E+00  0.00000000000E+00  0.74505805969E-08  0.10566000000E+00  0.10566000000E+00 0. -1.
     999900   -1    0    0    0    0 -0.00000000000E+00 -0.00000000000E+00 -0.74505805969E-08  0.93827000000E+00  0.93827000000E+00 0.  1.
     999902    2    1    2    0    0  0.91811681703E-02  0.13485053833E-01  0.17296339656E-01  0.10201538798E+01  0.10198767742E+01 0.  0.
     999903    2    3    3    0    0 -0.68581422746E-01 -0.47482946565E-03  0.11064408978E+00  0.13169695832E+00  0.19958387195E-01 0.  0.
         14    1    1    2    0    0 -0.91811681703E-02 -0.13485053833E-01 -0.17296339656E-01  0.23776120191E-01  0.00000000000E+00 0.  1.
     999901    1    3    3    0    0  0.77762590917E-01  0.13959883299E-01 -0.93347750121E-01  0.88845692149E+00  0.88000000000E+00 0.  1.
        -11    1    4    4    0    0 -0.44635581118E-01 -0.85835315281E-02  0.62065440612E-01  0.76931087050E-01  0.51100000000E-03 0. -1.
         11    1    4    4    0    0 -0.23945841629E-01  0.81087020625E-02  0.48578649164E-01  0.54765871271E-01  0.51100000000E-03 0.  1.
</event>
<event>
 8    1  0.1132255E+005  0.1043930E+01  0.7957747E-01            NaN
         13   -1    0    0    0    0  0.00000000000E+00  0.00000000000E+00  0.74505805969E-08  0.10566000000E+00  0.10566000000E+00 0.  1.
     999900   -1    0    0    0    0 -0.00000000000E+00 -0.00000000000E+00 -0.74505805969E-08  0.93827000000E+00  0.93827000000E+00 0.  1.
     999902    2    1    2    0    0  0.19180955008E-01  0.55363885028E-02 -0.13374763580E-01  0.10198999161E+01  0.10196167878E+01 0.  0.
     999903    2    3    3    0    0  0.11583189347E+00  0.46192058197E-01  0.38425489875E-01  0.13216259364E+00  0.20969003292E-01 0.  0.
         14    1    1    2    0    0 -0.19180955008E-01 -0.55363885028E-02  0.13374763580E-01  0.24030083926E-01  0.00000000000E+00 0. -1.
     999901    1    3    3    0    0 -0.96650938466E-01 -0.40655669694E-01 -0.51800253455E-01  0.88773732243E+00  0.88000000000E+00 0.  1.
        -11    1    4    4    0    0  0.19086634993E-01  0.13741496549E-01  0.13484620781E-01  0.27115023168E-01  0.51100000000E-03 0. -1.
         11    1    4    4    0    0  0.96745258481E-01  0.32450561648E-01  0.24940869093E-01  0.10504757047E+00  0.51100000000E-03 0.  1.
</event>
<event>
 8    1  0.1132255E+005  0.1043930E+01  0.7957747E-01            NaN
         13   -1    0    0    0    0  0.00000000000E+00  0.00000000000E+00  0.74505805969E-08  0.10566000000E+00  0.10566000000E+00 0. -1.
     999900   -1    0    0    0    0 -0.00000000000E+00 -0.00000000000E+00 -0.74505805969E-08  0.93827000000E+00  0.93827000000E+00 0. -1.
     999902    2    1    2    0    0 -0.17234479452E-01 -0.74941040179E-02 -0.15135884965E-01  0.10197994407E+01  0.10195139113E+01 0.  0.
     999903    2    3    3    0    0 -0.73454733755E-01  0.46178426910E-01 -0.98007849593E-01  0.13249497208E+00  0.20526422506E-01 0.  0.
         14    1    1    2    0    0  0.17234479452E-01  0.74941040179E-02  0.15135884965E-01  0.24130559270E-01  0.00000000000E+00 0. -1.
     999901    1    3    3    0    0  0.56220254303E-01 -0.53672530928E-01  0.82871964628E-01  0.88730446865E+00  0.88000000000E+00 0.  1.
        -11    1    4    4    0    0 -0.47467049688E-01  0.40092101962E-01 -0.63196748625E-01  0.88626111297E-01  0.51100000000E-03 0.  1.
         11    1    4    4    0    0 -0.25987684067E-01  0.60863249482E-02 -0.34811100969E-01  0.43868860780E-01  0.51100000000E-03 0. -1.
</event>
<event>
 8    1  0.1132255E+005  0.1043930E+01  0.7957747E-01            NaN
         13   -1    0    0    0    0  0.00000000000E+00  0.00000000000E+00  0.74505805969E-08  0.10566000000E+00  0.10566000000E+00 0.  1.
     999900   -1    0    0    0    0 -0.00000000000E+00 -0.00000000000E+00 -0.74505805969E-08  0.93827000000E+00  0.93827000000E+00 0.  1.
     999902    2    1    2    0    0 -0.72716247037E-02 -0.16647613758E-01 -0.19038685722E-01  0.10176147739E+01  0.10172744649E+01 0.  0.
     999903    2    3    3    0    0  0.15458567944E-01  0.10600752643E+00  0.61601349265E-01  0.12516659037E+00  0.19884318740E-01 0.  0.
         14    1    1    2    0    0  0.72716247037E-02  0.16647613758E-01  0.19038685722E-01  0.26315226081E-01  0.00000000000E+00 0.  1.
     999901    1    3    3    0    0 -0.22730192648E-01 -0.12265514019E+00 -0.80640034987E-01  0.89244818355E+00  0.88000000000E+00 0. -1.
        -11    1    4    4    0    0  0.37893855404E-02  0.23838310097E-01  0.48552334778E-02  0.24626385934E-01  0.51100000000E-03 0.  1.
         11    1    4    4    0    0  0.11669182404E-01  0.82169216333E-01  0.56746115787E-01  0.10054020444E+00  0.51100000000E-03 0. -1.
</event>
<event>
 8    1  0.1132255E+005  0.1043930E+01  0.7957747E-01            NaN
         13   -1    0    0    0    0  0.00000000000E+00  0.00000000000E+00  0.74505805969E-08  0.10566000000E+00  0.10566000000E+00 0.  1.
     999900   -1    0    0    0    0 -0.00000000000E+00 -0.00000000000E+00 -0.74505805969E-08  0.93827000000E+00  0.93827000000E+00 0. -1.
     999902    2    1    2    0    0  0.25845966198E-01  0.88459197915E-02 -0.12685572811E-01  0.10138104379E+01  0.10133629241E+01 0.  0.
     999903    2    3    3    0    0  0.84953172149E-01  0.29089061529E-01  0.85925240033E-01  0.12610128561E+00  0.21334769731E-01 0.  0.
         14    1    1    2    0    0 -0.25845966198E-01 -0.88459197915E-02  0.12685572811E-01  0.30119562135E-01  0.00000000000E+00 0. -1.
     999901    1    3    3    0    0 -0.59107205952E-01 -0.20243141737E-01 -0.98610812845E-01  0.88770915225E+00  0.88000000000E+00 0. -1.
        -11    1    4    4    0    0  0.20839797229E-01  0.14999550419E-01  0.32765732111E-01  0.41630973842E-01  0.51100000000E-03 0.  1.
         11    1    4    4    0    0  0.64113374920E-01  0.14089511110E-01  0.53159507923E-01  0.84470311770E-01  0.51100000000E-03 0. -1.
</event>
<event>
 8    1  0.1132255E+005  0.1043930E+01  0.7957747E-01            NaN
         13   -1    0    0    0    0  0.00000000000E+00  0.00000000000E+00  0.74505805969E-08  0.10566000000E+00  0.10566000000E+00 0.  1.
     999900   -1    0    0    0    0 -0.00000000000E+00 -0.00000000000E+00 -0.74505805969E-08  0.93827000000E+00  0.93827000000E+00 0.  1.
     999902    2    1    2    0    0 -0.10711786329E-01 -0.24310541906E-01 -0.14037706181E-01  0.10138833361E+01  0.10134380185E+01 0.  0.
     999903    2    3    3    0    0  0.85228913656E-01 -0.66751592332E-01 -0.62609827827E-01  0.12632200774E+00  0.17818986984E-01 0.  0.
         14    1    1    2    0    0  0.10711786329E-01  0.24310541906E-01  0.14037706181E-01  0.30046663857E-01  0.00000000000E+00 0. -1.
     999901    1    3    3    0    0 -0.95940699986E-01  0.42441050426E-01  0.48572121645E-01  0.88756132840E+00  0.88000000000E+00 0.  1.
        -11    1    4    4    0    0  0.33042512783E-01 -0.20535925675E-01 -0.14055198770E-01  0.41368365060E-01  0.51100000000E-03 0.  1.
         11    1    4    4    0    0  0.52186400874E-01 -0.46215666657E-01 -0.48554629057E-01  0.84953642680E-01  0.51100000000E-03 0. -1.
</event>
<event>
 8    1  0.1132255E+005  0.1043930E+01  0.7957747E-01            NaN
         13   -1    0    0    0    0  0.00000000000E+00  0.00000000000E+00  0.74505805969E-08  0.10566000000E+00  0.10566000000E+00 0. -1.
     999900   -1    0    0    0    0 -0.00000000000E+00 -0.00000000000E+00 -0.74505805969E-08  0.93827000000E+00  0.93827000000E+00 0. -1.
     999902    2    1    2    0    0 -0.15330335866E-01  0.12674561854E-01 -0.11076386190E-01  0.10211626979E+01  0.10209088625E+01 0.  0.
     999903    2    3    3    0    0 -0.26449711886E-01  0.11489453304E+00 -0.59939091254E-01  0.13382954341E+00  0.20428192457E-01 0.  0.
         14    1    1    2    0    0  0.15330335866E-01 -0.12674561854E-01  0.11076386190E-01  0.22767302146E-01  0.00000000000E+00 0. -1.
     999901    1    3    3    0    0  0.11119376020E-01 -0.10221997119E+00  0.48862705064E-01  0.88733315445E+00  0.88000000000E+00 0.  1.
        -11    1    4    4    0    0 -0.23700524868E-01  0.60644516478E-01 -0.28617764313E-01  0.71124607649E-01  0.51100000000E-03 0. -1.
         11    1    4    4    0    0 -0.27491870179E-02  0.54250016562E-01 -0.31321326942E-01  0.62704935760E-01  0.51100000000E-03 0.  1.
</event>
<event>
 8    1  0.1132255E+005  0.1043930E+01  0.7957747E-01            NaN
         13   -1    0    0    0    0  0.00000000000E+00  0.00000000000E+00  0.74505805969E-08  0.10566000000E+00  0.10566000000E+00 0.  1.
     999900   -1    0    0    0    0 -0.00000000000E+00 -0.00000000000E+00 -0.74505805969E-08  0.93827000000E+00  0.93827000000E+00 0.  1.
     999902    2    1    2    0    0  0.14534365510E-02 -0.16504045988E-01 -0.95591886700E-02  0.10248021643E+01  0.10246236391E+01 0.  0.
     999903    2    3    3    0    0  0.68984520728E-01 -0.84945973031E-01  0.77160142833E-01  0.13532760748E+00  0.19626290306E-01 0.  0.
         14    1    1    2    0    0 -0.14534365510E-02  0.16504045988E-01  0.95591886700E-02  0.19127835733E-01  0.00000000000E+00 0. -1.
     999901    1    3    3    0    0 -0.67531084177E-01  0.68441927043E-01 -0.86719331503E-01  0.88947455678E+00  0.88000000000E+00 0.  1.
        -11    1    4    4    0    0  0.35431222466E-01 -0.37197905988E-01  0.25353087465E-01  0.57289579335E-01  0.51100000000E-03 0. -1.
         11    1    4    4    0    0  0.33553298262E-01 -0.47748067043E-01  0.51807055368E-01  0.78038028150E-01  0.51100000000E-03 0.  1.
</event>
<event>
 8    1  0.1132255E+005  0.1043930E+01  0.7957747E-01            NaN
         13   -1    0    0    0    0  0.00000000000E+00  0.00000000000E+00  0.74505805969E-08  0.10566000000E+00  0.10566000000E+00 0.  1.
     999900   -1    0    0    0    0 -0.00000000000E+00 -0.00000000000E+00 -0.74505805969E-08  0.93827000000E+00  0.93827000000E+00 0. -1.
     999902    2    1    2    0    0  0.10402832778E-01  0.16219652069E-01 -0.14208355107E-01  0.10199889600E+01  0.10197079509E+01 0.  0.
     999903    2    3    3    0    0  0.12519522905E+00  0.35683661479E-02  0.33253252420E-01  0.13117516987E+00  0.20360937566E-01 0.  0.
         14    1    1    2    0    0 -0.10402832778E-01 -0.16219652069E-01  0.14208355107E-01  0.23941040034E-01  0.00000000000E+00 0.  1.
     999901    1    3    3    0    0 -0.11479239628E+00  0.12651285921E-01 -0.47461607527E-01  0.88881379010E+00  0.88000000000E+00 0. -1.
        -11    1    4    4    0    0  0.42457718066E-01 -0.81383738927E-02  0.89602083311E-02  0.44152433764E-01  0.51100000000E-03 0.  1.
         11    1    4    4    0    0  0.82737510989E-01  0.11706740041E-01  0.24293044089E-01  0.87022736104E-01  0.51100000000E-03 0. -1.
</event>
<event>
 8    1  0.1132255E+005  0.1043930E+01  0.7957747E-01            NaN
         13   -1    0    0    0    0  0.00000000000E+00  0.00000000000E+00  0.74505805969E-08  0.10566000000E+00  0.10566000000E+00 0. -1.
     999900   -1    0    0    0    0 -0.00000000000E+00 -0.00000000000E+00 -0.74505805969E-08  0.93827000000E+00  0.93827000000E+00 0. -1.
     999902    2    1    2    0    0  0.22150740085E-01 -0.48449992252E-02  0.62635816761E-02  0.10204063574E+01  0.10201351737E+01 0.  0.
     999903    2    3    3    0    0  0.33902693522E-01 -0.11175541338E+00 -0.57217874798E-01  0.13158813059E+00  0.20072017055E-01 0.  0.
         14    1    1    2    0    0 -0.22150740085E-01  0.48449992252E-02 -0.62635816761E-02  0.23523642559E-01  0.00000000000E+00 0. -1.
     999901    1    3    3    0    0 -0.11751953437E-01  0.10691041415E+00  0.63481456474E-01  0.88881822685E+00  0.88000000000E+00 0.  1.
        -11    1    4    4    0    0  0.23893308964E-01 -0.82510473845E-01 -0.31915601402E-01  0.91639157794E-01  0.51100000000E-03 0. -1.
         11    1    4    4    0    0  0.10009384558E-01 -0.29244939534E-01 -0.25302273396E-01  0.39948972797E-01  0.51100000000E-03 0.  1.
</event>
<event>
 8    1  0.1132255E+005  0.1043930E+01  0.7957747E-01            NaN
         13   -1    0    0    0    0  0.00000000000E+00  0.00000000000E+00  0.74505805969E-08  0.10566000000E+00  0.10566000000E+00 0. -1.
     999900   -1    0    0    0    0 -0.00000000000E+00 -0.00000000000E+00 -0.74505805969E-08  0.93827000000E+00  0.93827000000E+00 0.  1.
     999902    2    1    2    0    0 -0.15903913820E-01  0.17480778257E-01 -0.45250666773E-02  0.10198678240E+01  0.10195839299E+01 0.  0.
     999903    2    3    3    0    0 -0.11790446277E+00 -0.51946359450E-01 -0.14732249253E-01  0.13120116775E+00  0.19920357675E-01 0.  0.
         14    1    1    2    0    0  0.15903913820E-01 -0.17480778257E-01  0.45250666773E-02  0.24062175955E-01  0.00000000000E+00 0. -1.
     999901    1    3    3    0    0  0.10200054895E+00  0.69427137707E-01  0.10207182575E-01  0.88866665630E+00  0.88000000000E+00 0.  1.
        -11    1    4    4    0    0 -0.29143487038E-01 -0.22562085317E-01 -0.49596499183E-02  0.37192066074E-01  0.51100000000E-03 0. -1.
         11    1    4    4    0    0 -0.88760975730E-01 -0.29384274133E-01 -0.97725993345E-02  0.94009101675E-01  0.51100000000E-03 0.  1.
</event>
<event>
 8    1  0.1132255E+005  0.1043930E+01  0.7957747E-01            NaN
         13   -1    0    0    0    0  0.00000000000E+00  0.00000000000E+00  0.74505805969E-08  0.10566000000E+00  0.10566000000E+00 0. -1.
     999900   -1    0    0    0    0 -0.00000000000E+00 -0.00000000000E+00 -0.74505805969E-08  0.93827000000E+00  0.93827000000E+00 0. -1.
     999902    2    1    2    0    0 -0.28619019110E-01 -0.10747406204E-01 -0.52182786353E-02  0.10129173344E+01  0.10124424630E+01 0.  0.
     999903    2    3    3    0    0  0.73206356520E-01 -0.81656225616E-02 -0.95744283109E-01  0.12242868754E+00  0.19898938595E-01 0.  0.
         14    1    1    2    0    0  0.28619019110E-01  0.10747406204E-01  0.52182786353E-02  0.31012665587E-01  0.00000000000E+00 0. -1.
     999901    1    3    3    0    0 -0.10182537563E+00 -0.25817836420E-02  0.90526004474E-01  0.89048864688E+00  0.88000000000E+00 0.  1.
        -11    1    4    4    0    0  0.16817691825E-01 -0.54518683706E-02 -0.36685734035E-01  0.40726672216E-01  0.51100000000E-03 0.  1.
         11    1    4    4    0    0  0.56388664694E-01 -0.27137541910E-02 -0.59058549074E-01  0.81702015321E-01  0.51100000000E-03 0. -1.
</event>
<event>
 8    1  0.1132255E+005  0.1043930E+01  0.7957747E-01            NaN
         13   -1    0    0    0    0  0.00000000000E+00  0.00000000000E+00  0.74505805969E-08  0.10566000000E+00  0.10566000000E+00 0. -1.
     999900   -1    0    0    0    0 -0.00000000000E+00 -0.00000000000E+00 -0.74505805969E-08  0.93827000000E+00  0.93827000000E+00 0.  1.
     999902    2    1    2    0    0 -0.45048706562E-02 -0.87800061725E-02 -0.26795567395E-01  0.10153750565E+01  0.10149734580E+01 0.  0.
     999903    2    3    3    0    0  0.77902643805E-01  0.68026661124E-01  0.64478487209E-01  0.12351115675E+00  0.20027031566E-01 0.  0.
         14    1    1    2    0    0  0.45048706562E-02  0.87800061725E-02  0.26795567395E-01  0.28554943530E-01  0.00000000000E+00 0. -1.
     999901    1    3    3    0    0 -0.82407514461E-01 -0.76806667297E-01 -0.91274054603E-01  0.89186389972E+00  0.88000000000E+00 0.  1.
        -11    1    4    4    0    0  0.59104407302E-01  0.61357005211E-01  0.49209286968E-01  0.98386117394E-01  0.51100000000E-03 0.  1.
         11    1    4    4    0    0  0.18798236503E-01  0.66696559136E-02  0.15269200241E-01  0.25125039356E-01  0.51100000000E-03 0. -1.
</event>
<event>
 8    1  0.1132255E+005  0.1043930E+01  0.7957747E-01            NaN
         13   -1    0    0    0    0  0.00000000000E+00  0.00000000000E+00  0.74505805969E-08  0.10566000000E+00  0.10566000000E+00 0.  1.
     999900   -1    0    0    0    0 -0.00000000000E+00 -0.00000000000E+00 -0.74505805969E-08  0.93827000000E+00  0.93827000000E+00 0. -1.
     999902    2    1    2    0    0  0.18978770558E-01  0.97119957814E-02 -0.95856259184E-02  0.10205547820E+01  0.10202870489E+01 0.  0.
     999903    2    3    3    0    0  0.21365654518E-01  0.12612272115E+00  0.26151186926E-01  0.13216619920E+00  0.20508233718E-01 0.  0.
         14    1    1    2    0    0 -0.18978770558E-01 -0.97119957814E-02  0.95856259184E-02  0.23375218035E-01  0.00000000000E+00 0.  1.
     999901    1    3    3    0    0 -0.23868839603E-02 -0.11641072537E+00 -0.35736812845E-01  0.88838858277E+00  0.88000000000E+00 0. -1.
        -11    1    4    4    0    0  0.37650460392E-02  0.78480847798E-01  0.12392536933E-01  0.79544045254E-01  0.51100000000E-03 0.  1.
         11    1    4    4    0    0  0.17600608479E-01  0.47641873351E-01  0.13758649993E-01  0.52622153945E-01  0.51100000000E-03 0. -1.
</event>
<event>
 8    1  0.1132255E+005  0.1043930E+01  0.7957747E-01            NaN
         13   -1    0    0    0    0  0.00000000000E+00  0.00000000000E+00  0.74505805969E-08  0.10566000000E+00  0.10566000000E+00 0.  1.
     999900   -1    0    0    0    0 -0.00000000000E+00 -0.00000000000E+00 -0.74505805969E-08  0.93827000000E+00  0.93827000000E+00 0. -1.
     999902    2    1    2    0    0  0.96369876528E-02 -0.19085696169E-01  0.85938002139E-02  0.10208868073E+01  0.10206267116E+01 0.  0.
     999903    2    3    3    0    0  0.72452542599E-01 -0.39974704041E-01 -0.10045502963E+00  0.13168840877E+00  0.20081736324E-01 0.  0.
         14    1    1    2    0    0 -0.96369876528E-02  0.19085696169E-01 -0.85938002139E-02  0.23043192734E-01  0.00000000000E+00 0. -1.
     999901    1    3    3    0    0 -0.62815554946E-01  0.20889007872E-01  0.10904882985E+00  0.88919839849E+00  0.88000000000E+00 0.  1.
        -11    1    4    4    0    0  0.41894460192E-01 -0.27039762672E-01 -0.45577331937E-01  0.67556264458E-01  0.51100000000E-03 0. -1.
         11    1    4    4    0    0  0.30558082407E-01 -0.12934941369E-01 -0.54877697698E-01  0.64132144313E-01  0.51100000000E-03 0.  1.
</event>
<event>
 8    1  0.1132255E+005  0.1043930E+01  0.7957747E-01            NaN
         13   -1    0    0    0    0  0.00000000000E+00  0.00000000000E+00  0.74505805969E-08  0.10566000000E+00  0.10566000000E+00 0. -1.
     999900   -1    0    0    0    0 -0.00000000000E+00 -0.00000000000E+00 -0.74505805969E-08  0.93827000000E+00  0.93827000000E+00 0.  1.
     999902    2    1    2    0    0  0.12560553697E-01 -0.55460296878E-02  0.19214564134E-01  0.10203137888E+01  0.10200404415E+01 0.  0.
     999903    2    3    3    0    0  0.97323435171E-01 -0.87327961005E-01  0.12356547035E-01  0.13243988858E+00  0.17018108787E-01 0.  0.
         14    1    1    2    0    0 -0.12560553697E-01  0.55460296878E-02 -0.19214564134E-01  0.23616211155E-01  0.00000000000E+00 0.  1.
     999901    1    3    3    0    0 -0.84762881475E-01  0.81781931317E-01  0.68580170991E-02  0.88787390026E+00  0.88000000000E+00 0.  1.
        -11    1    4    4    0    0  0.27741770481E-01 -0.23997053315E-01  0.11158280098E-01  0.38343613979E-01  0.51100000000E-03 0. -1.
         11    1    4    4    0    0  0.69581664690E-01 -0.63330907690E-01  0.11982669376E-02  0.94096274605E-01  0.51100000000E-03 0.  1.
</event>
<event>
 7    1  0.1132255E+005  0.1043930E+01  0.7957747E-01            NaN
         13   -1    0    0    0    0  0.00000000000E+00  0.00000000000E+00  0.74505805969E-08  0.10566000000E+00  0.10566000000E+00 0. -1.
     999900   -1    0    0    0    0 -0.00000000000E+00 -0.00000000000E+00 -0.74505805969E-08  0.93827000000E+00  0.93827000000E+00 0.  1.
     999902    2    1    2    0    0 -0.30508020541E-02  0.32749202530E-02 -0.23265232036E-01  0.10202381550E+01  0.10199630334E+01 0.  0.
         14    1    1    2    0    0  0.30508020541E-02 -0.32749202530E-02  0.23265232036E-01  0.23691844958E-01  0.00000000000E+00 0. -1.
     999901    1    3    3    0    0  0.65963786279E-01  0.10593596619E+00 -0.41446299121E-01  0.88977044553E+00  0.88000000000E+00 0. -1.
        -11    1    3    3    0    0 -0.47357157865E-01 -0.91753763996E-01  0.22885442138E-01  0.10576132654E+00  0.51100000000E-03 0. -1.
         11    1    3    3    0    0 -0.21657430469E-01 -0.10907281941E-01 -0.47043750529E-02  0.24706382970E-01  0.51100000000E-03 0.  1.
</event>
<event>
 8    1  0.1478969E+005  0.1043930E+01  0.7957747E-01            NaN
         13   -1    0    0    0    0  0.00000000000E+00  0.00000000000E+00  0.74505805969E-08  0.10566000000E+00  0.10566000000E+00 0. -1.
     999900   -1    0    0    0    0 -0.00000000000E+00 -0.00000000000E+00 -0.74505805969E-08  0.93827000000E+00  0.93827000000E+00 0.  1.
     999902    2    1    2    0    0  0.11687580632E-01 -0.16944269543E-01  0.12320635943E-01  0.10199402963E+01  0.10196581301E+01 0.  0.
     999903    2    3    3    0    0  0.61772711354E-01  0.81097850562E-01  0.78964354974E-01  0.13057976039E+00  0.20566361672E-01 0.  0.
         14    1    1    2    0    0 -0.11687580632E-01  0.16944269543E-01 -0.12320635943E-01  0.23989703655E-01  0.00000000000E+00 0.  1.
     999901    1    3    3    0    0 -0.50085130721E-01 -0.98042120105E-01 -0.66643719031E-01  0.88936053596E+00  0.88000000000E+00 0.  1.
        -11    1    4    4    0    0  0.16857516648E-01  0.38524462379E-01  0.29850614840E-01  0.51571604556E-01  0.51100000000E-03 0. -1.
         11    1    4    4    0    0  0.44915194706E-01  0.42573388183E-01  0.49113740134E-01  0.79008155831E-01  0.51100000000E-03 0.  1.
</event>
<event>
 8    1  0.1132255E+005  0.1043930E+01  0.7957747E-01            NaN
         13   -1    0    0    0    0  0.00000000000E+00  0.00000000000E+00  0.74505805969E-08  0.10566000000E+00  0.10566000000E+00 0. -1.
     999900   -1    0    0    0    0 -0.00000000000E+00 -0.00000000000E+00 -0.74505805969E-08  0.93827000000E+00  0.93827000000E+00 0. -1.
     999902    2    1    2    0    0 -0.26362112893E-02  0.10821111215E-01 -0.18979241538E-01  0.10219241447E+01  0.10216871830E+01 0.  0.
     999903    2    3    3    0    0  0.29325660315E-01 -0.10337745171E+00  0.69496367655E-01  0.12957286498E+00  0.20309858372E-01 0.  0.
         14    1    1    2    0    0  0.26362112893E-02 -0.10821111215E-01  0.18979241538E-01  0.22005855295E-01  0.00000000000E+00 0. -1.
     999901    1    3    3    0    0 -0.31961871604E-01  0.11419856292E+00 -0.88475609193E-01  0.89235127973E+00  0.88000000000E+00 0. -1.
        -11    1    4    4    0    0 -0.11380640756E-02 -0.11148596228E-01  0.13136199382E-01  0.17274467948E-01  0.51100000000E-03 0.  1.
         11    1    4    4    0    0  0.30463724391E-01 -0.92228855478E-01  0.56360168273E-01  0.11229839703E+00  0.51100000000E-03 0. -1.
</event>
<event>
 8    1  0.1132255E+005  0.1043930E+01  0.7957747E-01            NaN
         13   -1    0    0    0    0  0.00000000000E+00  0.00000000000E+00  0.74505805969E-08  0.10566000000E+00  0.10566000000E+00 0.  1.
     999900   -1    0    0    0    0 -0.00000000000E+00 -0.00000000000E+00 -0.74505805969E-08  0.93827000000E+00  0.93827000000E+00 0.  1.
     999902    2    1    2    0    0 -0.22048534839E-01 -0.12844627842E-01 -0.74660061570E-03  0.10184019808E+01  0.10180819784E+01 0.  0.
     999903    2    3    3    0    0  0.10899481412E+00  0.42656407016E-01  0.41367610809E-01  0.12597476751E+00  0.21422517616E-01 0.  0.
         14    1    1    2    0    0  0.22048534839E-01  0.12844627842E-01  0.74660061570E-03  0.25528019223E-01  0.00000000000E+00 0.  1.
     999901    1    3    3    0    0 -0.13104334896E+00 -0.55501034858E-01 -0.42114211425E-01  0.89242721327E+00  0.88000000000E+00 0.  1.
        -11    1    4    4    0    0  0.10016647356E+00  0.35987420854E-01  0.42971349725E-01  0.11478333896E+00  0.51100000000E-03 0. -1.
         11    1    4    4    0    0  0.88283405619E-02  0.66689861623E-02 -0.16037389155E-02  0.11191428551E-01  0.51100000000E-03 0.  1.
</event>
<event>
 8    1  0.1132255E+005  0.1043930E+01  0.7957747E-01            NaN
         13   -1    0    0    0    0  0.00000000000E+00  0.00000000000E+00  0.74505805969E-08  0.10566000000E+00  0.10566000000E+00 0.  1.
     999900   -1    0    0    0    0 -0.00000000000E+00 -0.00000000000E+00 -0.74505805969E-08  0.93827000000E+00  0.93827000000E+00 0.  1.
     999902    2    1    2    0    0 -0.10192756848E-01  0.17834887834E-01  0.36283246886E-02  0.10230699843E+01  0.10228572982E+01 0.  0.
     999903    2    3    3    0    0  0.40667124763E-04 -0.43360062798E-01 -0.12286729572E+00  0.13186255223E+00  0.20279635680E-01 0.  0.
         14    1    1    2    0    0  0.10192756848E-01 -0.17834887834E-01 -0.36283246886E-02  0.20860015730E-01  0.00000000000E+00 0.  1.
     999901    1    3    3    0    0 -0.10233423973E-01  0.61194950632E-01  0.12649562040E+00  0.89120743204E+00  0.88000000000E+00 0. -1.
        -11    1    4    4    0    0 -0.63760500852E-02 -0.16048371549E-01 -0.68940848967E-01  0.71072540558E-01  0.51100000000E-03 0. -1.
         11    1    4    4    0    0  0.64167172100E-02 -0.27311691249E-01 -0.53926446749E-01  0.60790011668E-01  0.51100000000E-03 0.  1.
</event>
<event>
 8    1  0.1132255E+005  0.1043930E+01  0.7957747E-01            NaN
         13   -1    0    0    0    0  0.00000000000E+00  0.00000000000E+00  0.74505805969E-08  0.10566000000E+00  0.10566000000E+00 0.  1.
     999900   -1    0    0    0    0 -0.00000000000E+00 -0.00000000000E+00 -0.74505805969E-08  0.93827000000E+00  0.93827000000E+00 0. -1.
     999902    2    1    2    0    0  0.85789850979E-02 -0.20728735460E-01  0.74982816356E-03  0.10214835815E+01  0.10212369293E+01 0.  0.
     999903    2    3    3    0    0 -0.11346337479E+00  0.48545787520E-01  0.34181676028E-01  0.12973754954E+00  0.20804179425E-01 0.  0.
         14    1    1    2    0    0 -0.85789850979E-02  0.20728735460E-01 -0.74982816356E-03  0.22446418453E-01  0.00000000000E+00 0.  1.
     999901    1    3    3    0    0  0.12204235989E+00 -0.69274522979E-01 -0.33431847864E-01  0.89174603200E+00  0.88000000000E+00 0.  1.
        -11    1    4    4    0    0 -0.43828990135E-01  0.10734854180E-01  0.19449980623E-01  0.49140414505E-01  0.51100000000E-03 0.  1.
         11    1    4    4    0    0 -0.69634384654E-01  0.37810933339E-01  0.14731695404E-01  0.80597135039E-01  0.51100000000E-03 0. -1.
</event>
<event>
 8    1  0.1132255E+005  0.1043930E+01  0.7957747E-01            NaN
         13   -1    0    0    0    0  0.00000000000E+00  0.00000000000E+00  0.74505805969E-08  0.10566000000E+00  0.10566000000E+00 0. -1.
     999900   -1    0    0    0    0 -0.00000000000E+00 -0.00000000000E+00 -0.74505805969E-08  0.93827000000E+00  0.93827000000E+00 0.  1.
     999902    2    1    2    0    0  0.34784414403E-02 -0.22676091226E-01  0.90414724890E-02  0.10192712715E+01  0.10189729496E+01 0.  0.
     999903    2    3    3    0    0  0.84068869328E-01 -0.24791484094E-01  0.95785541620E-01  0.13133893988E+00  0.19820561814E-01 0.  0.
         14    1    1    2    0    0 -0.34784414403E-02  0.22676091226E-01 -0.90414724890E-02  0.24658728534E-01  0.00000000000E+00 0.  1.
     999901    1    3    3    0    0 -0.80590427887E-01  0.21153928677E-02 -0.86744069131E-01  0.88793233159E+00  0.88000000000E+00 0.  1.
        -11    1    4    4    0    0  0.17003963888E-01 -0.47306052191E-02  0.89357251428E-02  0.19789434516E-01  0.51100000000E-03 0. -1.
         11    1    4    4    0    0  0.67064905440E-01 -0.20060878875E-01  0.86849816477E-01  0.11154950536E+00  0.51100000000E-03 0.  1.
</event>
<event>
 8    1  0.1132255E+005  0.1043930E+01  0.7957747E-01            NaN
         13   -1    0    0    0    0  0.00000000000E+00  0.00000000000E+00  0.74505805969E-08  0.10566000000E+00  0.10566000000E+00 0. -1.
     999900   -1    0    0    0    0 -0.00000000000E+00 -0.00000000000E+00 -0.74505805969E-08  0.93827000000E+00  0.93827000000E+00 0.  1.
     999902    2    1    2    0    0 -0.23022809523E-01  0.29831303304E-02  0.35241321485E-02  0.10204487664E+01  0.10201785709E+01 0.  0.
     999903    2    3    3    0    0  0.38004386168E-01  0.30266497784E-01  0.11910440251E+00  0.13037714024E+00  0.21259015593E-01 0.  0.
         14    1    1    2    0    0  0.23022809523E-01 -0.29831303304E-02 -0.35241321485E-02  0.23481233620E-01  0.00000000000E+00 0. -1.
     999901    1    3    3    0    0 -0.61027195692E-01 -0.27283367454E-01 -0.11558027037E+00  0.89007162614E+00  0.88000000000E+00 0.  1.
        -11    1    4    4    0    0  0.30294717768E-01  0.14432187112E-01  0.93115954893E-01  0.98979291400E-01  0.51100000000E-03 0. -1.
         11    1    4    4    0    0  0.77096684000E-02  0.15834310672E-01  0.25988447621E-01  0.31397848844E-01  0.51100000000E-03 0.  1.
</event>
<event>
 8    1  0.1132255E+005  0.1043930E+01  0.7957747E-01            NaN
         13   -1    0    0    0    0  0.00000000000E+00  0.00000000000E+00  0.74505805969E-08  0.10566000000E+00  0.10566000000E+00 0. -1.
     999900   -1    0    0    0    0 -0.00000000000E+00 -0.00000000000E+00 -0.74505805969E-08  0.93827000000E+00  0.93827000000E+00 0. -1.
     999902    2    1    2    0    0 -0.10902366278E-01  0.22645948528E-03  0.21239082110E-01  0.10200550867E+01  0.10197756462E+01 0.  0.
     999903    2    3    3    0    0 -0.14885850148E-01 -0.46470795431E-02 -0.12544923686E+00  0.12789081798E+00  0.19374375110E-01 0.  0.
         14    1    1    2    0    0  0.10902366278E-01 -0.22645948528E-03 -0.21239082110E-01  0.23874913261E-01  0.00000000000E+00 0.  1.
     999901    1    3    3    0    0  0.39834838704E-02  0.48735390284E-02  0.14668831897E+00  0.89216426876E+00  0.88000000000E+00 0.  1.
        -11    1    4    4    0    0 -0.14680703097E-01 -0.58382322964E-02 -0.50195359307E-01  0.52625499681E-01  0.51100000000E-03 0. -1.
         11    1    4    4    0    0 -0.20514705109E-03  0.11911527533E-02 -0.75253877557E-01  0.75265318299E-01  0.51100000000E-03 0.  1.
</event>
<event>
 8    1  0.1132255E+005  0.1043930E+01  0.7957747E-01            NaN
         13   -1    0    0    0    0  0.00000000000E+00  0.00000000000E+00  0.74505805969E-08  0.10566000000E+00  0.10566000000E+00 0.  1.
     999900   -1    0    0    0    0 -0.00000000000E+00 -0.00000000000E+00 -0.74505805969E-08  0.93827000000E+00  0.93827000000E+00 0.  1.
     999902    2    1    2    0    0  0.18121878480E-02 -0.10320551469E-02 -0.24452690430E-01  0.10193885406E+01  0.10190930838E+01 0.  0.
     999903    2    3    3    0    0  0.64647679604E-03  0.10553902855E+00 -0.75828965079E-01  0.13147059594E+00  0.19889222558E-01 0.  0.
         14    1    1    2    0    0 -0.18121878480E-02  0.10320551469E-02  0.24452690430E-01  0.24541459449E-01  0.00000000000E+00 0.  1.
     999901    1    3    3    0    0  0.11657110520E-02 -0.10657108369E+00  0.51376274649E-01  0.88791794461E+00  0.88000000000E+00 0. -1.
        -11    1    4    4    0    0 -0.78526102088E-02  0.64725773668E-01 -0.39966150451E-01  0.76476424909E-01  0.51100000000E-03 0.  1.
         11    1    4    4    0    0  0.84990870048E-02  0.40813254877E-01 -0.35862814628E-01  0.54994171033E-01  0.51100000000E-03 0. -1.
</event>
<event>
 8    1  0.1132255E+005  0.1043930E+01  0.7957747E-01            NaN
         13   -1    0    0    0    0  0.00000000000E+00  0.00000000000E+00  0.74505805969E-08  0.10566000000E+00  0.10566000000E+00 0. -1.
     999900   -1    0    0    0    0 -0.00000000000E+00 -0.00000000000E+00 -0.74505805969E-08  0.93827000000E+00  0.93827000000E+00 0. -1.
     999902    2    1    2    0    0  0.38173755889E-03  0.31694563899E-02 -0.23953805494E-01  0.10197644051E+01  0.10194780361E+01 0.  0.
     999903    2    3    3    0    0 -0.17507058091E-01 -0.17649585729E-01 -0.12929125616E+00  0.13305733962E+00  0.19235949393E-01 0.  0.
         14    1    1    2    0    0 -0.38173755889E-03 -0.31694563899E-02  0.23953805494E-01  0.24165594861E-01  0.00000000000E+00 0. -1.
     999901    1    3    3    0    0  0.17888795649E-01  0.20819042119E-01  0.10533745066E+00  0.88670706552E+00  0.88000000000E+00 0.  1.
        -11    1    4    4    0    0 -0.19463581188E-01 -0.74000090361E-02 -0.92151903949E-01  0.94476587835E-01  0.51100000000E-03 0. -1.
         11    1    4    4    0    0  0.19565230976E-02 -0.10249576693E-01 -0.37139352208E-01  0.38580751787E-01  0.51100000000E-03 0.  1.
</event>
<event>
 8    1  0.1132255E+005  0.1043930E+01  0.7957747E-01            NaN
         13   -1    0    0    0    0  0.00000000000E+00  0.00000000000E+00  0.74505805969E-08  0.10566000000E+00  0.10566000000E+00 0. -1.
     999900   -1    0    0    0    0 -0.00000000000E+00 -0.00000000000E+00 -0.74505805969E-08  0.93827000000E+00  0.93827000000E+00 0.  1.
     999902    2    1    2    0    0 -0.48609470257E-02  0.13715830190E-01 -0.18257002130E-01  0.10205832458E+01  0.10203161719E+01 0.  0.
     999903    2    3    3    0    0 -0.11955831846E+00  0.37720423359E-01 -0.38059397195E-01  0.13259459592E+00  0.20390863160E-01 0.  0.
         14    1    1    2    0    0  0.48609470257E-02 -0.13715830190E-01  0.18257002130E-01  0.23346754177E-01  0.00000000000E+00 0. -1.
     999901    1    3    3    0    0  0.11469737144E+00 -0.24004593169E-01  0.19802395065E-01  0.88798864990E+00  0.88000000000E+00 0.  1.
        -11    1    4    4    0    0 -0.75501220619E-01  0.33779465491E-01 -0.26800038814E-01  0.86948201852E-01  0.51100000000E-03 0.  1.
         11    1    4    4    0    0 -0.44057097842E-01  0.39409578681E-02 -0.11259358382E-01  0.45646394068E-01  0.51100000000E-03 0. -1.
</event>
<event>
 8    1  0.1132255E+005  0.1043930E+01  0.7957747E-01            NaN
         13   -1    0    0    0    0  0.00000000000E+00  0.00000000000E+00  0.74505805969E-08  0.10566000000E+00  0.10566000000E+00 0.  1.
     999900   -1    0    0    0    0 -0.00000000000E+00 -0.00000000000E+00 -0.74505805969E-08  0.93827000000E+00  0.93827000000E+00 0. -1.
     999902    2    1    2    0    0  0.14731736954E-01  0.16278430230E-01  0.96633222036E-02  0.10199426875E+01  0.10196605782E+01 0.  0.
     999903    2    3    3    0    0 -0.11273228018E+00 -0.54956723584E-01  0.15080892596E-01  0.12789399328E+00  0.20015787170E-01 0.  0.
         14    1    1    2    0    0 -0.14731736954E-01 -0.16278430230E-01 -0.96633222036E-02  0.23987312489E-01  0.00000000000E+00 0. -1.
     999901    1    3    3    0    0  0.12746401713E+00  0.71235153814E-01 -0.54175703928E-02  0.89204869423E+00  0.88000000000E+00 0. -1.
        -11    1    4    4    0    0 -0.30488721932E-01 -0.14720788245E-01 -0.48049298375E-02  0.34199594198E-01  0.51100000000E-03 0.  1.
         11    1    4    4    0    0 -0.82243558244E-01 -0.40235935339E-01  0.19885822434E-01  0.93694399086E-01  0.51100000000E-03 0. -1.
</event>
<event>
 8    1  0.1132255E+005  0.1043930E+01  0.7957747E-01            NaN
         13   -1    0    0    0    0  0.00000000000E+00  0.00000000000E+00  0.74505805969E-08  0.10566000000E+00  0.10566000000E+00 0.  1.
     999900   -1    0    0    0    0 -0.00000000000E+00 -0.00000000000E+00 -0.74505805969E-08  0.93827000000E+00  0.93827000000E+00 0.  1.
     999902    2    1    2    0    0 -0.17443897979E-02  0.17402459995E-01  0.22218202733E-01  0.10156539139E+01  0.10152602306E+01 0.  0.
     999903    2    3    3    0    0 -0.12266040230E-01  0.11805785818E+00  0.47870599835E-01  0.12948222641E+00  0.19645330399E-01 0.  0.
         14    1    1    2    0    0  0.17443897979E-02 -0.17402459995E-01 -0.22218202733E-01  0.28276086050E-01  0.00000000000E+00 0. -1.
     999901    1    3    3    0    0  0.10521650432E-01 -0.10065539819E+00 -0.25652397102E-01  0.88617168754E+00  0.88000000000E+00 0.  1.
        -11    1    4    4    0    0 -0.15313607703E-03  0.80378008664E-01  0.27411978880E-01  0.84925411007E-01  0.51100000000E-03 0. -1.
         11    1    4    4    0    0 -0.12112904152E-01  0.37679849520E-01  0.20458620955E-01  0.44556815407E-01  0.51100000000E-03 0.  1.
</event>
<event>
 8    1  0.1132255E+005  0.1043930E+01  0.7957747E-01            NaN
         13   -1    0    0    0    0  0.00000000000E+00  0.00000000000E+00  0.74505805969E-08  0.10566000000E+00  0.10566000000E+00 0.  1.
     999900   -1    0    0    0    0 -0.00000000000E+00 -0.00000000000E+00 -0.74505805969E-08  0.93827000000E+00  0.93827000000E+00 0. -1.
     999902    2    1    2    0    0 -0.14528852011E-01  0.10156546038E-01 -0.15477782482E-01  0.10203969441E+01  0.10201255407E+01 0.  0.
     999903    2    3    3    0    0 -0.82783640178E-01  0.49692007260E-01  0.86345910551E-01  0.13102085199E+00  0.19708392138E-01 0.  0.
         14    1    1    2    0    0  0.14528852011E-01 -0.10156546038E-01  0.15477782482E-01  0.23533055873E-01  0.00000000000E+00 0.  1.
     999901    1    3    3    0    0  0.68254788167E-01 -0.39535461222E-01 -0.10182369303E+00  0.88937609214E+00  0.88000000000E+00 0. -1.
        -11    1    4    4    0    0 -0.11104851631E-01  0.71944602057E-02  0.22242650185E-01  0.25885799111E-01  0.51100000000E-03 0.  1.
         11    1    4    4    0    0 -0.71678788547E-01  0.42497547055E-01  0.64103260366E-01  0.10513505288E+00  0.51100000000E-03 0. -1.
</event>
<event>
 8    1  0.1132255E+005  0.1043930E+01  0.7957747E-01            NaN
         13   -1    0    0    0    0  0.00000000000E+00  0.00000000000E+00  0.74505805969E-08  0.10566000000E+00  0.10566000000E+00 0.  1.
     999900   -1    0    0    0    0 -0.00000000000E+00 -0.00000000000E+00 -0.74505805969E-08  0.93827000000E+00  0.93827000000E+00 0.  1.
     999902    2    1    2    0    0  0.99054843445E-02 -0.90283637037E-02 -0.22241880079E-01  0.10179621121E+01  0.10176308420E+01 0.  0.
     999903    2    3    3    0    0 -0.11722413162E+00 -0.39920830798E-01 -0.26812076568E-01  0.12827836468E+00  0.20032015062E-01 0.  0.
         14    1    1    2    0    0 -0.99054843445E-02  0.90283637037E-02  0.22241880079E-01  0.25967887875E-01  0.00000000000E+00 0.  1.
     999901    1    3    3    0    0  0.12712961597E+00  0.30892467094E-01  0.45701964898E-02  0.88968374745E+00  0.88000000000E+00 0. -1.
        -11    1    4    4    0    0 -0.65687570596E-01 -0.20413015065E-01 -0.48603660108E-02  0.68959643224E-01  0.51100000000E-03 0. -1.
         11    1    4    4    0    0 -0.51536561027E-01 -0.19507815733E-01 -0.21951710558E-01  0.59318721451E-01  0.51100000000E-03 0.  1.
</event>
<event>
 8    1  0.1132255E+005  0.1043930E+01  0.7957747E-01            NaN
         13   -1    0    0    0    0  0.00000000000E+00  0.00000000000E+00  0.74505805969E-08  0.10566000000E+00  0.10566000000E+00 0. -1.
     999900   -1    0    0    0    0 -0.00000000000E+00 -0.00000000000E+00 -0.74505805969E-08  0.93827000000E+00  0.93827000000E+00 0.  1.
     999902    2    1    2    0    0 -0.14247455502E-01 -0.12545017100E-01  0.12179827922E-01  0.10213752743E+01  0.10211262093E+01 0.  0.
     999903    2    3    3    0    0 -0.17058367366E-01  0.89644251705E-01 -0.89957852715E-01  0.12958905908E+00  0.19334663360E-01 0.  0.
         14    1    1    2    0    0  0.14247455502E-01  0.12545017100E-01 -0.12179827922E-01  0.22554725681E-01  0.00000000000E+00 0.  1.
     999901    1    3    3    0    0  0.28109118632E-02 -0.10218926881E+00  0.10213768064E+00  0.89178621524E+00  0.88000000000E+00 0. -1.
        -11    1    4    4    0    0  0.34342764097E-02  0.30142657450E-01 -0.29750861414E-01  0.42494104631E-01  0.51100000000E-03 0. -1.
         11    1    4    4    0    0 -0.20492643775E-01  0.59501594255E-01 -0.60206991302E-01  0.87094954449E-01  0.51100000000E-03 0.  1.
</event>
<event>
 8    1  0.1132255E+005  0.1043930E+01  0.7957747E-01            NaN
         13   -1    0    0    0    0  0.00000000000E+00  0.00000000000E+00  0.74505805969E-08  0.10566000000E+00  0.10566000000E+00 0. -1.
     999900   -1    0    0    0    0 -0.00000000000E+00 -0.00000000000E+00 -0.74505805969E-08  0.93827000000E+00  0.93827000000E+00 0. -1.
     999902    2    1    2    0    0  0.60739569802E-02 -0.20934343027E-01 -0.12687240259E-01  0.10187088633E+01  0.10183966037E+01 0.  0.
     999903    2    3    3    0    0  0.61366476172E-01  0.90160951486E-01  0.61672839847E-01  0.12689674818E+00  0.20109797473E-01 0.  0.
         14    1    1    2    0    0 -0.60739569802E-02  0.20934343027E-01  0.12687240259E-01  0.25221136706E-01  0.00000000000E+00 0. -1.
     999901    1    3    3    0    0 -0.55292519191E-01 -0.11109529451E+00 -0.74360080106E-01  0.89181211511E+00  0.88000000000E+00 0.  1.
        -11    1    4    4    0    0  0.15970250499E-01  0.10354252210E-01  0.11987182548E-01  0.22499180125E-01  0.51100000000E-03 0. -1.
         11    1    4    4    0    0  0.45396225672E-01  0.79806699276E-01  0.49685657300E-01  0.10439756806E+00  0.51100000000E-03 0.  1.
</event>
<event>
 8    1  0.1132255E+005  0.1043930E+01  0.7957747E-01            NaN
         13   -1    0    0    0    0  0.00000000000E+00  0.00000000000E+00  0.74505805969E-08  0.10566000000E+00  0.10566000000E+00 0. -1.
     999900   -1    0    0    0    0 -0.00000000000E+00 -0.00000000000E+00 -0.74505805969E-08  0.93827000000E+00  0.93827000000E+00 0.  1.
     999902    2    1    2    0    0 -0.17699286708E-01 -0.92933371573E-02 -0.13787574592E-01  0.10196456825E+01  0.10193564586E+01 0.  0.
     999903    2    3    3    0    0  0.27820423402E-01  0.11356404646E+00 -0.51191206208E-01  0.12915985305E+00  0.19772694264E-01 0.  0.
         14    1    1    2    0    0  0.17699286708E-01  0.92933371573E-02  0.13787574592E-01  0.24284317545E-01  0.00000000000E+00 0. -1.
     999901    1    3    3    0    0 -0.45519710110E-01 -0.12285738362E+00  0.37403631616E-01  0.89048582941E+00  0.88000000000E+00 0.  1.
        -11    1    4    4    0    0  0.94035906421E-02  0.77571500566E-01 -0.34406052046E-01  0.85380341738E-01  0.51100000000E-03 0.  1.
         11    1    4    4    0    0  0.18416832760E-01  0.35992545899E-01 -0.16785154162E-01  0.43779511309E-01  0.51100000000E-03 0. -1.
</event>
<event>
 8    1  0.1132255E+005  0.1043930E+01  0.7957747E-01            NaN
         13   -1    0    0    0    0  0.00000000000E+00  0.00000000000E+00  0.74505805969E-08  0.10566000000E+00  0.10566000000E+00 0. -1.
     999900   -1    0    0    0    0 -0.00000000000E+00 -0.00000000000E+00 -0.74505805969E-08  0.93827000000E+00  0.93827000000E+00 0.  1.
     999902    2    1    2    0    0 -0.11702381900E-01 -0.76062078373E-02  0.18732726229E-01  0.10205694527E+01  0.10203020595E+01 0.  0.
     999903    2    3    3    0    0  0.10012759877E+00 -0.74403566694E-01 -0.30073576856E-01  0.12964303205E+00  0.18478878829E-01 0.  0.
         14    1    1    2    0    0  0.11702381900E-01  0.76062078373E-02 -0.18732726229E-01  0.23360547335E-01  0.00000000000E+00 0.  1.
     999901    1    3    3    0    0 -0.11182998067E+00  0.66797358856E-01  0.48806303086E-01  0.89092642061E+00  0.88000000000E+00 0. -1.
        -11    1    4    4    0    0  0.61584023326E-01 -0.48424388494E-01 -0.27705306003E-01  0.83098486339E-01  0.51100000000E-03 0.  1.
         11    1    4    4    0    0  0.38543575442E-01 -0.25979178199E-01 -0.23682708530E-02  0.46544545713E-01  0.51100000000E-03 0. -1.
</event>
<event>
 8    1  0.1132255E+005  0.1043930E+01  0.7957747E-01            NaN
         13   -1    0    0    0    0  0.00000000000E+00  0.00000000000E+00  0.74505805969E-08  0.10566000000E+00  0.10566000000E+00 0. -1.
     999900   -1    0    0    0    0 -0.00000000000E+00 -0.00000000000E+00 -0.74505805969E-08  0.93827000000E+00  0.93827000000E+00 0.  1.
     999902    2    1    2    0    0  0.89917657290E-02 -0.22205190560E-01 -0.20593931633E-02  0.10198849706E+01  0.10196014858E+01 0.  0.
     999903    2    3    3    0    0 -0.10924078355E+00 -0.38964685998E-01  0.55024372841E-01  0.12998701424E+00  0.20424169960E-01 0.  0.
         14    1    1    2    0    0 -0.89917657290E-02  0.22205190560E-01  0.20593931633E-02  0.24045029401E-01  0.00000000000E+00 0.  1.
     999901    1    3    3    0    0  0.11823254928E+00  0.16759495438E-01 -0.57083766005E-01  0.88989795636E+00  0.88000000000E+00 0. -1.
        -11    1    4    4    0    0 -0.47492326709E-01 -0.19153543550E-01  0.35314218342E-01  0.62207189816E-01  0.51100000000E-03 0.  1.
         11    1    4    4    0    0 -0.61748456839E-01 -0.19811142448E-01  0.19710154500E-01  0.67779824420E-01  0.51100000000E-03 0. -1.
</event>
<event>
 8    1  0.1132255E+005  0.1043930E+01  0.7957747E-01            NaN
         13   -1    0    0    0    0  0.00000000000E+00  0.00000000000E+00  0.74505805969E-08  0.10566000000E+00  0.10566000000E+00 0. -1.
     999900   -1    0    0    0    0 -0.00000000000E+00 -0.00000000000E+00 -0.74505805969E-08  0.93827000000E+00  0.93827000000E+00 0. -1.
     999902    2    1    2    0    0 -0.14084205524E-01  0.24128722996E-02 -0.18255699211E-01  0.10207468736E+01  0.10204835729E+01 0.  0.
     999903    2    3    3    0    0 -0.85473112872E-01  0.76471423548E-01 -0.65237285932E-01  0.13351053830E+00  0.20386974241E-01 0.  0.
         14    1    1    2    0    0  0.14084205524E-01 -0.24128722996E-02  0.18255699211E-01  0.23183126443E-01  0.00000000000E+00 0. -1.
     999901    1    3    3    0    0  0.71388907348E-01 -0.74058551248E-01  0.46981586721E-01  0.88723633525E+00  0.88000000000E+00 0.  1.
        -11    1    4    4    0    0 -0.65063529214E-01  0.45574298218E-01 -0.45482975167E-01  0.91538197726E-01  0.51100000000E-03 0. -1.
         11    1    4    4    0    0 -0.20409583659E-01  0.30897125329E-01 -0.19754310765E-01  0.41972340577E-01  0.51100000000E-03 0.  1.
</event>
<event>
 8    1  0.1132255E+005  0.1043930E+01  0.7957747E-01            NaN
         13   -1    0    0    0    0  0.00000000000E+00  0.00000000000E+00  0.74505805969E-08  0.10566000000E+00  0.10566000000E+00 0. -1.
     999900   -1    0    0    0    0 -0.00000000000E+00 -0.00000000000E+00 -0.74505805969E-08  0.93827000000E+00  0.93827000000E+00 0.  1.
     999902    2    1    2    0    0 -0.10156413994E-01 -0.23322178939E-01 -0.68323809915E-02  0.10175907098E+01  0.10172497700E+01 0.  0.
     999903    2    3    3    0    0 -0.87057888317E-01 -0.82478325140E-01 -0.49401821954E-01  0.13123556450E+00  0.20012079859E-01 0.  0.
         14    1    1    2    0    0  0.10156413994E-01  0.23322178939E-01  0.68323809915E-02  0.26339290152E-01  0.00000000000E+00 0. -1.
     999901    1    3    3    0    0  0.76901474323E-01  0.59156146201E-01  0.42569440963E-01  0.88635514535E+00  0.88000000000E+00 0.  1.
        -11    1    4    4    0    0 -0.34247256689E-01 -0.33255515645E-01 -0.30346091545E-01  0.56568103244E-01  0.51100000000E-03 0. -1.
         11    1    4    4    0    0 -0.52810631628E-01 -0.49222809495E-01 -0.19055730409E-01  0.74667461253E-01  0.51100000000E-03 0.  1.
</event>
<event>
 8    1  0.1132255E+005  0.1043930E+01  0.7957747E-01            NaN
         13   -1    0    0    0    0  0.00000000000E+00  0.00000000000E+00  0.74505805969E-08  0.10566000000E+00  0.10566000000E+00 0.  1.
     999900   -1    0    0    0    0 -0.00000000000E+00 -0.00000000000E+00 -0.74505805969E-08  0.93827000000E+00  0.93827000000E+00 0. -1.
     999902    2    1    2    0    0 -0.22628812462E-01 -0.34594540598E-02 -0.49978957203E-02  0.10204990389E+01  0.10202300125E+01 0.  0.
     999903    2    3    3    0    0 -0.11147150723E+00 -0.70583784264E-01  0.34763565186E-02  0.13344181806E+00  0.19663830449E-01 0.  0.
         14    1    1    2    0    0  0.22628812462E-01  0.34594540598E-02  0.49978957203E-02  0.23430961087E-01  0.00000000000E+00 0. -1.
     999901    1    3    3    0    0  0.88842694764E-01  0.67124330205E-01 -0.84742522389E-02  0.88705722085E+00  0.88000000000E+00 0. -1.
        -11    1    4    4    0    0 -0.98050462495E-01 -0.53878322373E-01  0.46356378544E-02  0.11197551999E+00  0.51100000000E-03 0. -1.
         11    1    4    4    0    0 -0.13421044731E-01 -0.16705461891E-01 -0.11592813358E-02  0.21466298071E-01  0.51100000000E-03 0.  1.
</event>
<event>
 8    1  0.1132255E+005  0.1043930E+01  0.7957747E-01            NaN
         13   -1    0    0    0    0  0.00000000000E+00  0.00000000000E+00  0.74505805969E-08  0.10566000000E+00  0.10566000000E+00 0.  1.
     999900   -1    0    0    0    0 -0.00000000000E+00 -0.00000000000E+00 -0.74505805969E-08  0.93827000000E+00  0.93827000000E+00 0.  1.
     999902    2    1    2    0    0  0.39579669600E-02  0.18095490261E-01 -0.14065866629E-01  0.10206714344E+01  0.10204063975E+01 0.  0.
     999903    2    3    3    0    0 -0.80876220255E-01  0.66789638533E-01  0.75403878751E-01  0.13074290089E+00  0.20152974582E-01 0.  0.
         14    1    1    2    0    0 -0.39579669600E-02 -0.18095490261E-01  0.14065866629E-01  0.23258565611E-01  0.00000000000E+00 0.  1.
     999901    1    3    3    0    0  0.84834187216E-01 -0.48694148272E-01 -0.89469745380E-01  0.88992853350E+00  0.88000000000E+00 0.  1.
        -11    1    4    4    0    0 -0.33958146546E-01  0.17345379186E-01  0.33271587482E-01  0.50609065892E-01  0.51100000000E-03 0.  1.
         11    1    4    4    0    0 -0.46918073710E-01  0.49444259347E-01  0.42132291269E-01  0.80133834999E-01  0.51100000000E-03 0. -1.
</event>
<event>
 8    1  0.1132255E+005  0.1043930E+01  0.7957747E-01            NaN
         13   -1    0    0    0    0  0.00000000000E+00  0.00000000000E+00  0.74505805969E-08  0.10566000000E+00  0.10566000000E+00 0. -1.
     999900   -1    0    0    0    0 -0.00000000000E+00 -0.00000000000E+00 -0.74505805969E-08  0.93827000000E+00  0.93827000000E+00 0. -1.
     999902    2    1    2    0    0  0.57749299517E-02  0.16032928028E-01 -0.13591922425E-01  0.10221321801E+01  0.10218997253E+01 0.  0.
     999903    2    3    3    0    0  0.20908847631E-01  0.87546178371E-01 -0.98596225411E-01  0.13501949731E+00  0.20187514278E-01 0.  0.
         14    1    1    2    0    0 -0.57749299517E-02 -0.16032928028E-01  0.13591922425E-01  0.21797819898E-01  0.00000000000E+00 0. -1.
     999901    1    3    3    0    0 -0.15133917680E-01 -0.71513250343E-01  0.85004302986E-01  0.88711268279E+00  0.88000000000E+00 0.  1.
        -11    1    4    4    0    0  0.10188557001E-01  0.19547316080E-01 -0.34593061368E-01  0.41022497187E-01  0.51100000000E-03 0.  1.
         11    1    4    4    0    0  0.10720290630E-01  0.67998862291E-01 -0.64003164044E-01  0.93997000126E-01  0.51100000000E-03 0. -1.
</event>
<event>
 8    1  0.1132255E+005  0.1043930E+01  0.7957747E-01            NaN
         13   -1    0    0    0    0  0.00000000000E+00  0.00000000000E+00  0.74505805969E-08  0.10566000000E+00  0.10566000000E+00 0. -1.
     999900   -1    0    0    0    0 -0.00000000000E+00 -0.00000000000E+00 -0.74505805969E-08  0.93827000000E+00  0.93827000000E+00 0. -1.
     999902    2    1    2    0    0  0.56575339470E-03 -0.22690235459E-01 -0.62856918279E-03  0.10212240105E+01  0.10209715557E+01 0.  0.
     999903    2    3    3    0    0 -0.26290632875E-01  0.44222720166E-01  0.11817758530E+00  0.13031800449E+00  0.19235235181E-01 0.  0.
         14    1    1    2    0    0 -0.56575339470E-03  0.22690235459E-01  0.62856918279E-03  0.22705989547E-01  0.00000000000E+00 0. -1.
     999901    1    3    3    0    0  0.26856386269E-01 -0.66912955624E-01 -0.11880615448E+00  0.89090600596E+00  0.88000000000E+00 0. -1.
        -11    1    4    4    0    0 -0.15508551874E-01  0.38243499682E-01  0.77423338904E-01  0.87736622782E-01  0.51100000000E-03 0. -1.
         11    1    4    4    0    0 -0.10782081001E-01  0.59792204835E-02  0.40754246393E-01  0.42581381711E-01  0.51100000000E-03 0.  1.
</event>
<event>
 8    1  0.1132255E+005  0.1043930E+01  0.7957747E-01            NaN
         13   -1    0    0    0    0  0.00000000000E+00  0.00000000000E+00  0.74505805969E-08  0.10566000000E+00  0.10566000000E+00 0. -1.
     999900   -1    0    0    0    0 -0.00000000000E+00 -0.00000000000E+00 -0.74505805969E-08  0.93827000000E+00  0.93827000000E+00 0. -1.
     999902    2    1    2    0    0  0.69681720500E-02 -0.80731304029E-02  0.16930862503E-01  0.10239203783E+01  0.10237248439E+01 0.  0.
     999903    2    3    3    0    0 -0.93253620581E-01 -0.64592244754E-01 -0.65872800470E-01  0.13257573977E+00  0.19201695221E-01 0.  0.
         14    1    1    2    0    0 -0.69681720500E-02  0.80731304029E-02 -0.16930862503E-01  0.20009621718E-01  0.00000000000E+00 0.  1.
     999901    1    3    3    0    0  0.10022179263E+00  0.56519114352E-01  0.82803662973E-01  0.89134463851E+00  0.88000000000E+00 0.  1.
        -11    1    4    4    0    0 -0.42186897153E-01 -0.18987678015E-01 -0.31437584310E-01  0.55936115668E-01  0.51100000000E-03 0.  1.
         11    1    4    4    0    0 -0.51066723429E-01 -0.45604566739E-01 -0.34435216160E-01  0.76639624100E-01  0.51100000000E-03 0. -1.
</event>
<event>
 8    1  0.1132255E+005  0.1043930E+01  0.7957747E-01            NaN
         13   -1    0    0    0    0  0.00000000000E+00  0.00000000000E+00  0.74505805969E-08  0.10566000000E+00  0.10566000000E+00 0. -1.
     999900   -1    0    0    0    0 -0.00000000000E+00 -0.00000000000E+00 -0.74505805969E-08  0.93827000000E+00  0.93827000000E+00 0. -1.
     999902    2    1    2    0    0  0.10926211101E-01 -0.10482001558E-01  0.18646303277E-01  0.10199104440E+01  0.10196275666E+01 0.  0.
     999903    2    3    3    0    0 -0.67194488293E-01 -0.75042949492E-01 -0.77872933699E-01  0.12885100557E+00  0.19795057649E-01 0.  0.
         14    1    1    2    0    0 -0.10926211101E-01  0.10482001558E-01 -0.18646303277E-01  0.24019556024E-01  0.00000000000E+00 0.  1.
     999901    1    3    3    0    0  0.78120699394E-01  0.64560947934E-01  0.96519236976E-01  0.89105943841E+00  0.88000000000E+00 0.  1.
        -11    1    4    4    0    0 -0.40962013284E-01 -0.52457195142E-01 -0.61233070983E-01  0.90440001976E-01  0.51100000000E-03 0. -1.
         11    1    4    4    0    0 -0.26232475009E-01 -0.22585754350E-01 -0.16639862717E-01  0.38411003591E-01  0.51100000000E-03 0.  1.
</event>
<event>
 8    1  0.1132255E+005  0.1043930E+01  0.7957747E-01            NaN
         13   -1    0    0    0    0  0.00000000000E+00  0.00000000000E+00  0.74505805969E-08  0.10566000000E+00  0.10566000000E+00 0.  1.
     999900   -1    0    0    0    0 -0.00000000000E+00 -0.00000000000E+00 -0.74505805969E-08  0.93827000000E+00  0.93827000000E+00 0. -1.
     999902    2    1    2    0    0  0.17611111139E-01 -0.97432316140E-02  0.14329817027E-01  0.10192232104E+01  0.10189237101E+01 0.  0.
     999903    2    3    3    0    0 -0.70784449357E-01  0.47377122179E-01 -0.92174934802E-01  0.12657559115E+00  0.16435683518E-01 0.  0.
         14    1    1    2    0    0 -0.17611111139E-01  0.97432316140E-02 -0.14329817027E-01  0.24706789631E-01  0.00000000000E+00 0. -1.
     999901    1    3    3    0    0  0.88395560496E-01 -0.57120353793E-01  0.10650475183E+00  0.89264761922E+00  0.88000000000E+00 0.  1.
        -11    1    4    4    0    0 -0.34154800538E-01  0.20815263757E-01 -0.31661792417E-01  0.51015250907E-01  0.51100000000E-03 0. -1.
         11    1    4    4    0    0 -0.36629648819E-01  0.26561858422E-01 -0.60513142385E-01  0.75560340244E-01  0.51100000000E-03 0.  1.
</event>
<event>
 8    1  0.1132255E+005  0.1043930E+01  0.7957747E-01            NaN
         13   -1    0    0    0    0  0.00000000000E+00  0.00000000000E+00  0.74505805969E-08  0.10566000000E+00  0.10566000000E+00 0.  1.
     999900   -1    0    0    0    0 -0.00000000000E+00 -0.00000000000E+00 -0.74505805969E-08  0.93827000000E+00  0.93827000000E+00 0. -1.
     999902    2    1    2    0    0 -0.90218205647E-04  0.13726360985E-01  0.19677638563E-01  0.10199376974E+01  0.10196554692E+01 0.  0.
     999903    2    3    3    0    0  0.40078197860E-01  0.11897274008E+00  0.37820584992E-01  0.13257110546E+00  0.19594043186E-01 0.  0.
         14    1    1    2    0    0  0.90218205647E-04 -0.13726360985E-01 -0.19677638563E-01  0.23992302612E-01  0.00000000000E+00 0. -1.
     999901    1    3    3    0    0 -0.40168416066E-01 -0.10524637909E+00 -0.18142946428E-01  0.88736659193E+00  0.88000000000E+00 0.  1.
        -11    1    4    4    0    0  0.13433286928E-01  0.48466693849E-01  0.24807208065E-01  0.56081479147E-01  0.51100000000E-03 0.  1.
         11    1    4    4    0    0  0.26644910933E-01  0.70506046231E-01  0.13013376927E-01  0.76489626314E-01  0.51100000000E-03 0. -1.
</event>
<event>
 8    1  0.1132255E+005  0.1043930E+01  0.7957747E-01            NaN
         13   -1    0    0    0    0  0.00000000000E+00  0.00000000000E+00  0.74505805969E-08  0.10566000000E+00  0.10566000000E+00 0.  1.
     999900   -1    0    0    0    0 -0.00000000000E+00 -0.00000000000E+00 -0.74505805969E-08  0.93827000000E+00  0.93827000000E+00 0.  1.
     999902    2    1    2    0    0  0.14309901226E-01 -0.85781297663E-02 -0.15269316257E-01  0.10213134220E+01  0.10210629737E+01 0.  0.
     999903    2    3    3    0    0 -0.75799753112E-01 -0.10518434484E+00 -0.88369335384E-02  0.13142922379E+00  0.19651984640E-01 0.  0.
         14    1    1    2    0    0 -0.14309901226E-01  0.85781297663E-02  0.15269316257E-01  0.22616578042E-01  0.00000000000E+00 0.  1.
     999901    1    3    3    0    0  0.90109654339E-01  0.96606215077E-01 -0.64323827186E-02  0.88988419817E+00  0.88000000000E+00 0.  1.
        -11    1    4    4    0    0 -0.25892712232E-01 -0.52067838939E-01 -0.14612533482E-02  0.58171202333E-01  0.51100000000E-03 0.  1.
         11    1    4    4    0    0 -0.49907040880E-01 -0.53116505905E-01 -0.73756801902E-02  0.73258021460E-01  0.51100000000E-03 0. -1.
</event>
<event>
 8    1  0.1132255E+005  0.1043930E+01  0.7957747E-01            NaN
         13   -1    0    0    0    0  0.00000000000E+00  0.00000000000E+00  0.74505805969E-08  0.10566000000E+00  0.10566000000E+00 0. -1.
     999900   -1    0    0    0    0 -0.00000000000E+00 -0.00000000000E+00 -0.74505805969E-08  0.93827000000E+00  0.93827000000E+00 0.  1.
     999902    2    1    2    0    0 -0.15792541653E-01  0.10055151823E-01  0.16768544394E-01  0.10187964660E+01  0.10184863988E+01 0.  0.
     999903    2    3    3    0    0  0.96736356004E-01  0.70295499910E-01  0.45194857348E-01  0.12913377284E+00  0.18264070618E-01 0.  0.
         14    1    1    2    0    0  0.15792541653E-01 -0.10055151823E-01 -0.16768544394E-01  0.25133533996E-01  0.00000000000E+00 0.  1.
     999901    1    3    3    0    0 -0.11252889766E+00 -0.60240348087E-01 -0.28426312954E-01  0.88966269317E+00  0.88000000000E+00 0. -1.
        -11    1    4    4    0    0  0.43827271257E-01  0.29109297565E-01  0.10560157194E-01  0.53665249012E-01  0.51100000000E-03 0.  1.
         11    1    4    4    0    0  0.52909084747E-01  0.41186202345E-01  0.34634700154E-01  0.75468523824E-01  0.51100000000E-03 0. -1.
</event>
<event>
 8    1  0.1132255E+005  0.1043930E+01  0.7957747E-01            NaN
         13   -1    0    0    0    0  0.00000000000E+00  0.00000000000E+00  0.74505805969E-08  0.10566000000E+00  0.10566000000E+00 0.  1.
     999900   -1    0    0    0    0 -0.00000000000E+00 -0.00000000000E+00 -0.74505805969E-08  0.93827000000E+00  0.93827000000E+00 0. -1.
     999902    2    1    2    0    0 -0.14731612301E-01  0.16858145087E-01 -0.76893266440E-02  0.10202584305E+01  0.10199837851E+01 0.  0.
     999903    2    3    3    0    0  0.60296501729E-01 -0.13706447569E-01 -0.11292684990E+00  0.13029306687E+00  0.20006874322E-01 0.  0.
         14    1    1    2    0    0  0.14731612301E-01 -0.16858145087E-01  0.76893266440E-02  0.23671569466E-01  0.00000000000E+00 0. -1.
     999901    1    3    3    0    0 -0.75028114030E-01  0.30564592656E-01  0.10523752326E+00  0.88996536366E+00  0.88000000000E+00 0.  1.
        -11    1    4    4    0    0  0.24601196739E-01  0.29704004181E-02 -0.53872026387E-01  0.59300071734E-01  0.51100000000E-03 0. -1.
         11    1    4    4    0    0  0.35695304989E-01 -0.16676847987E-01 -0.59054823514E-01  0.70992995136E-01  0.51100000000E-03 0.  1.
</event>
<event>
 7    1  0.1699788E+005  0.1043930E+01  0.7957747E-01            NaN
         13   -1    0    0    0    0  0.00000000000E+00  0.00000000000E+00  0.74505805969E-08  0.10566000000E+00  0.10566000000E+00 0.  1.
     999900   -1    0    0    0    0 -0.00000000000E+00 -0.00000000000E+00 -0.74505805969E-08  0.93827000000E+00  0.93827000000E+00 0.  1.
     999903    2    1    2    0    0  0.11267998691E-02  0.64005909848E-01 -0.48666032378E-01  0.82842230620E-01  0.19910456881E-01 0.  0.
         14    1    1    2    0    0  0.53619539646E-01  0.33298776253E-01 -0.31269787189E-01  0.70439073834E-01  0.00000000000E+00 0.  1.
     999901    1    1    2    0    0 -0.54746339515E-01 -0.97304686102E-01  0.79935819567E-01  0.89064869555E+00  0.88000000000E+00 0. -1.
        -11    1    3    3    0    0  0.84775541916E-02  0.34825591930E-01 -0.18946819262E-01  0.40545454239E-01  0.51100000000E-03 0. -1.
         11    1    3    3    0    0 -0.73507543225E-02  0.29180317918E-01 -0.29719213116E-01  0.42296776380E-01  0.51100000000E-03 0.  1.
</event>
<event>
 8    1  0.1132255E+005  0.1043930E+01  0.7957747E-01            NaN
         13   -1    0    0    0    0  0.00000000000E+00  0.00000000000E+00  0.74505805969E-08  0.10566000000E+00  0.10566000000E+00 0.  1.
     999900   -1    0    0    0    0 -0.00000000000E+00 -0.00000000000E+00 -0.74505805969E-08  0.93827000000E+00  0.93827000000E+00 0. -1.
     999902    2    1    2    0    0  0.21081941231E-01  0.11013602791E-01  0.49058142312E-02  0.10196438989E+01  0.10193546321E+01 0.  0.
     999903    2    3    3    0    0  0.77989633050E-02  0.18200296152E-01 -0.12677081313E+00  0.12971872214E+00  0.19079654204E-01 0.  0.
         14    1    1    2    0    0 -0.21081941231E-01 -0.11013602791E-01 -0.49058142312E-02  0.24286101082E-01  0.00000000000E+00 0. -1.
     999901    1    3    3    0    0  0.13282977926E-01 -0.71866933606E-02  0.13167662736E+00  0.88992517677E+00  0.88000000000E+00 0.  1.
        -11    1    4    4    0    0  0.11093522774E-01  0.91647566002E-02 -0.41936894155E-01  0.44339860436E-01  0.51100000000E-03 0. -1.
         11    1    4    4    0    0 -0.32945594689E-02  0.90355395517E-02 -0.84833918973E-01  0.85378861708E-01  0.51100000000E-03 0.  1.
</event>
<event>
 8    1  0.1132255E+005  0.1043930E+01  0.7957747E-01            NaN
         13   -1    0    0    0    0  0.00000000000E+00  0.00000000000E+00  0.74505805969E-08  0.10566000000E+00  0.10566000000E+00 0.  1.
     999900   -1    0    0    0    0 -0.00000000000E+00 -0.00000000000E+00 -0.74505805969E-08  0.93827000000E+00  0.93827000000E+00 0. -1.
     999902    2    1    2    0    0 -0.73025480077E-02  0.77805693701E-02  0.20990180952E-01  0.10203831921E+01  0.10201114677E+01 0.  0.
     999903    2    3    3    0    0  0.95659637260E-01 -0.72236042868E-01 -0.41402018732E-01  0.12858912593E+00  0.21265560475E-01 0.  0.
         14    1    1    2    0    0  0.73025480077E-02 -0.77805693701E-02 -0.20990180952E-01  0.23546807926E-01  0.00000000000E+00 0. -1.
     999901    1    3    3    0    0 -0.10296218527E+00  0.80016612238E-01  0.62392199684E-01  0.89179406614E+00  0.88000000000E+00 0.  1.
        -11    1    4    4    0    0  0.15844590718E-01 -0.91800015185E-02  0.10902499227E-02  0.18351382749E-01  0.51100000000E-03 0.  1.
         11    1    4    4    0    0  0.79815046542E-01 -0.63056041349E-01 -0.42492268655E-01  0.11023774318E+00  0.51100000000E-03 0. -1.
</event>
<event>
 8    1  0.1132255E+005  0.1043930E+01  0.7957747E-01            NaN
         13   -1    0    0    0    0  0.00000000000E+00  0.00000000000E+00  0.74505805969E-08  0.10566000000E+00  0.10566000000E+00 0.  1.
     999900   -1    0    0    0    0 -0.00000000000E+00 -0.00000000000E+00 -0.74505805969E-08  0.93827000000E+00  0.93827000000E+00 0.  1.
     999902    2    1    2    0    0 -0.94152843921E-02  0.16844412968E-01 -0.13732752815E-01  0.10202451878E+01  0.10199702314E+01 0.  0.
     999903    2    3    3    0    0 -0.41710747893E-01 -0.93200602716E-01  0.75169905236E-01  0.12836145938E+00  0.20000269097E-01 0.  0.
         14    1    1    2    0    0  0.94152843921E-02 -0.16844412968E-01  0.13732752815E-01  0.23684812186E-01  0.00000000000E+00 0. -1.
     999901    1    3    3    0    0  0.32295463501E-01  0.11004501568E+00 -0.88902658051E-01  0.89188372844E+00  0.88000000000E+00 0.  1.
        -11    1    4    4    0    0 -0.18793641325E-01 -0.65012289108E-01  0.47198572678E-01  0.82509181751E-01  0.51100000000E-03 0. -1.
         11    1    4    4    0    0 -0.22917106568E-01 -0.28188313608E-01  0.27971332559E-01  0.45852277628E-01  0.51100000000E-03 0.  1.
</event>
<event>
 8    1  0.1132255E+005  0.1043930E+01  0.7957747E-01            NaN
         13   -1    0    0    0    0  0.00000000000E+00  0.00000000000E+00  0.74505805969E-08  0.10566000000E+00  0.10566000000E+00 0. -1.
     999900   -1    0    0    0    0 -0.00000000000E+00 -0.00000000000E+00 -0.74505805969E-08  0.93827000000E+00  0.93827000000E+00 0.  1.
     999902    2    1    2    0    0  0.90041785996E-02 -0.17084808290E-01 -0.14851638687E-01  0.10195673836E+01  0.10192762690E+01 0.  0.
     999903    2    3    3    0    0 -0.91630299432E-01  0.46572434684E-01 -0.76080807151E-01  0.12943899183E+00  0.20026481033E-01 0.  0.
         14    1    1    2    0    0 -0.90041785996E-02  0.17084808290E-01  0.14851638687E-01  0.24362616408E-01  0.00000000000E+00 0. -1.
     999901    1    3    3    0    0  0.10063447803E+00 -0.63657242974E-01  0.61229168463E-01  0.89012839176E+00  0.88000000000E+00 0.  1.
        -11    1    4    4    0    0 -0.44580698574E-01  0.32961623666E-01 -0.35554406116E-01  0.65865652926E-01  0.51100000000E-03 0.  1.
         11    1    4    4    0    0 -0.47049600858E-01  0.13610811017E-01 -0.40526401035E-01  0.63573338903E-01  0.51100000000E-03 0. -1.
</event>
<event>
 8    1  0.1132255E+005  0.1043930E+01  0.7957747E-01            NaN
         13   -1    0    0    0    0  0.00000000000E+00  0.00000000000E+00  0.74505805969E-08  0.10566000000E+00  0.10566000000E+00 0. -1.
     999900   -1    0    0    0    0 -0.00000000000E+00 -0.00000000000E+00 -0.74505805969E-08  0.93827000000E+00  0.93827000000E+00 0.  1.
     999902    2    1    2    0    0 -0.85083672236E-02 -0.17758033218E-01  0.12856370773E-01  0.10204134882E+01  0.10201424707E+01 0.  0.
     999903    2    3    3    0    0 -0.47361447429E-01  0.30558028907E-01 -0.11441844192E+00  0.12909823443E+00  0.19946790458E-01 0.  0.
         14    1    1    2    0    0  0.85083672236E-02  0.17758033218E-01 -0.12856370773E-01  0.23516511774E-01  0.00000000000E+00 0.  1.
     999901    1    3    3    0    0  0.38853080205E-01 -0.48316062124E-01  0.12727481269E+00  0.89131525379E+00  0.88000000000E+00 0. -1.
        -11    1    4    4    0    0 -0.14690317256E-01  0.18003945950E-01 -0.31959749483E-01  0.39517517620E-01  0.51100000000E-03 0.  1.
         11    1    4    4    0    0 -0.32671130172E-01  0.12554082957E-01 -0.82458692433E-01  0.89580716811E-01  0.51100000000E-03 0. -1.
</event>
<event>
 8    1  0.1132255E+005  0.1043930E+01  0.7957747E-01            NaN
         13   -1    0    0    0    0  0.00000000000E+00  0.00000000000E+00  0.74505805969E-08  0.10566000000E+00  0.10566000000E+00 0. -1.
     999900   -1    0    0    0    0 -0.00000000000E+00 -0.00000000000E+00 -0.74505805969E-08  0.93827000000E+00  0.93827000000E+00 0.  1.
     999902    2    1    2    0    0  0.12939344137E-01  0.13206863107E-01  0.16188633931E-01  0.10193552217E+01  0.10190589523E+01 0.  0.
     999903    2    3    3    0    0 -0.24492612484E-01  0.14614933286E-01 -0.12276265057E+00  0.12766548110E+00  0.20354909679E-01 0.  0.
         14    1    1    2    0    0 -0.12939344137E-01 -0.13206863107E-01 -0.16188633931E-01  0.24574778297E-01  0.00000000000E+00 0.  1.
     999901    1    3    3    0    0  0.37431956621E-01 -0.14080701790E-02  0.13895128450E+00  0.89168974061E+00  0.88000000000E+00 0. -1.
        -11    1    4    4    0    0 -0.10704068741E-01 -0.43570477715E-02 -0.42194847259E-01  0.43751882349E-01  0.51100000000E-03 0.  1.
         11    1    4    4    0    0 -0.13788543743E-01  0.18971981057E-01 -0.80567803309E-01  0.83913598748E-01  0.51100000000E-03 0. -1.
</event>
<event>
 8    1  0.1132255E+005  0.1043930E+01  0.7957747E-01            NaN
         13   -1    0    0    0    0  0.00000000000E+00  0.00000000000E+00  0.74505805969E-08  0.10566000000E+00  0.10566000000E+00 0. -1.
     999900   -1    0    0    0    0 -0.00000000000E+00 -0.00000000000E+00 -0.74505805969E-08  0.93827000000E+00  0.93827000000E+00 0.  1.
     999902    2    1    2    0    0 -0.14370225766E-01 -0.12569091626E-01 -0.12869027009E-01  0.10209061578E+01  0.10206465038E+01 0.  0.
     999903    2    3    3    0    0  0.51811916839E-01  0.55401482578E-01  0.10175277332E+00  0.12841625195E+00  0.19578250394E-01 0.  0.
         14    1    1    2    0    0  0.14370225766E-01  0.12569091626E-01  0.12869027009E-01  0.23023842187E-01  0.00000000000E+00 0.  1.
     999901    1    3    3    0    0 -0.66182142605E-01 -0.67970574204E-01 -0.11462180033E+00  0.89248990586E+00  0.88000000000E+00 0.  1.
        -11    1    4    4    0    0  0.24510631270E-01  0.26995850259E-01  0.65019397102E-01  0.74547502285E-01  0.51100000000E-03 0.  1.
         11    1    4    4    0    0  0.27301285569E-01  0.28405632319E-01  0.36733376216E-01  0.53868749665E-01  0.51100000000E-03 0. -1.
</event>
<event>
 8    1  0.1132255E+005  0.1043930E+01  0.7957747E-01            NaN
         13   -1    0    0    0    0  0.00000000000E+00  0.00000000000E+00  0.74505805969E-08  0.10566000000E+00  0.10566000000E+00 0.  1.
     999900   -1    0    0    0    0 -0.00000000000E+00 -0.00000000000E+00 -0.74505805969E-08  0.93827000000E+00  0.93827000000E+00 0.  1.
     999902    2    1    2    0    0  0.76345984075E-03 -0.12699167031E-01 -0.17489022947E-01  0.10223032194E+01  0.10220744370E+01 0.  0.
     999903    2    3    3    0    0 -0.83501883085E-01  0.52043880657E-01 -0.87434958587E-01  0.13315489426E+00  0.20105319918E-01 0.  0.
         14    1    1    2    0    0 -0.76345984075E-03  0.12699167031E-01  0.17489022947E-01  0.21626780571E-01  0.00000000000E+00 0.  1.
     999901    1    3    3    0    0  0.84265342926E-01 -0.64743047688E-01  0.69945935640E-01  0.88914832517E+00  0.88000000000E+00 0.  1.
        -11    1    4    4    0    0 -0.58489606717E-01  0.41037953049E-01 -0.51838039673E-01  0.88275654416E-01  0.51100000000E-03 0. -1.
         11    1    4    4    0    0 -0.25012276369E-01  0.11005927608E-01 -0.35596918914E-01  0.44879239842E-01  0.51100000000E-03 0.  1.
</event>
<event>
 8    1  0.1132255E+005  0.1043930E+01  0.7957747E-01            NaN
         13   -1    0    0    0    0  0.00000000000E+00  0.00000000000E+00  0.74505805969E-08  0.10566000000E+00  0.10566000000E+00 0. -1.
     999900   -1    0    0    0    0 -0.00000000000E+00 -0.00000000000E+00 -0.74505805969E-08  0.93827000000E+00  0.93827000000E+00 0.  1.
     999902    2    1    2    0    0 -0.16798046025E-01 -0.10564201426E-01 -0.13557059514E-01  0.10198973022E+01  0.10196141115E+01 0.  0.
     999903    2    3    3    0    0  0.10107159026E+00 -0.77794455936E-02 -0.78044757944E-01  0.12969526372E+00  0.21304719115E-01 0.  0.
         14    1    1    2    0    0  0.16798046025E-01  0.10564201426E-01  0.13557059514E-01  0.24032697824E-01  0.00000000000E+00 0.  1.
     999901    1    3    3    0    0 -0.11786963629E+00 -0.27847558320E-02  0.64487698430E-01  0.89020203846E+00  0.88000000000E+00 0. -1.
        -11    1    4    4    0    0  0.45872800398E-01 -0.11770727002E-01 -0.44441592309E-01  0.64947517877E-01  0.51100000000E-03 0.  1.
         11    1    4    4    0    0  0.55198789866E-01  0.39912814081E-02 -0.33603165635E-01  0.64747745842E-01  0.51100000000E-03 0. -1.
</event>
<event>
 8    1  0.1132255E+005  0.1043930E+01  0.7957747E-01            NaN
         13   -1    0    0    0    0  0.00000000000E+00  0.00000000000E+00  0.74505805969E-08  0.10566000000E+00  0.10566000000E+00 0.  1.
     999900   -1    0    0    0    0 -0.00000000000E+00 -0.00000000000E+00 -0.74505805969E-08  0.93827000000E+00  0.93827000000E+00 0.  1.
     999902    2    1    2    0    0 -0.99934823856E-02  0.19930295609E-01 -0.16704175779E-02  0.10215720782E+01  0.10213273884E+01 0.  0.
     999903    2    3    3    0    0  0.79985692908E-02 -0.77865827149E-01 -0.10167042716E+00  0.13034382601E+00  0.22925380498E-01 0.  0.
         14    1    1    2    0    0  0.99934823856E-02 -0.19930295609E-01  0.16704175779E-02  0.22357921821E-01  0.00000000000E+00 0.  1.
     999901    1    3    3    0    0 -0.17992051676E-01  0.97796122758E-01  0.10000000958E+00  0.89122825217E+00  0.88000000000E+00 0. -1.
        -11    1    4    4    0    0 -0.43316078996E-02 -0.36575539320E-01 -0.59952957844E-01  0.70364416993E-01  0.51100000000E-03 0. -1.
         11    1    4    4    0    0  0.12330177190E-01 -0.41290287829E-01 -0.41717469318E-01  0.59979409016E-01  0.51100000000E-03 0.  1.
</event>
<event>
 8    1  0.1132255E+005  0.1043930E+01  0.7957747E-01            NaN
         13   -1    0    0    0    0  0.00000000000E+00  0.00000000000E+00  0.74505805969E-08  0.10566000000E+00  0.10566000000E+00 0.  1.
     999900   -1    0    0    0    0 -0.00000000000E+00 -0.00000000000E+00 -0.74505805969E-08  0.93827000000E+00  0.93827000000E+00 0.  1.
     999902    2    1    2    0    0  0.98058720164E-02  0.12899369345E-01 -0.14672111384E-01  0.10220709125E+01  0.10218371350E+01 0.  0.
     999903    2    3    3    0    0 -0.11579458992E+00  0.59262118356E-01  0.55907429744E-02  0.13171392574E+00  0.19922753375E-01 0.  0.
         14    1    1    2    0    0 -0.98058720164E-02 -0.12899369345E-01  0.14672111384E-01  0.21859087537E-01  0.00000000000E+00 0.  1.
     999901    1    3    3    0    0  0.12560046193E+00 -0.46362749011E-01 -0.20262854358E-01  0.89035698672E+00  0.88000000000E+00 0. -1.
        -11    1    4    4    0    0 -0.83905801387E-01  0.52309575838E-01  0.22685918523E-02  0.98903401664E-01  0.51100000000E-03 0.  1.
         11    1    4    4    0    0 -0.31888788528E-01  0.69525425176E-02  0.33221511221E-02  0.32810524079E-01  0.51100000000E-03 0. -1.
</event>
<event>
 8    1  0.1132255E+005  0.1043930E+01  0.7957747E-01            NaN
         13   -1    0    0    0    0  0.00000000000E+00  0.00000000000E+00  0.74505805969E-08  0.10566000000E+00  0.10566000000E+00 0.  1.
     999900   -1    0    0    0    0 -0.00000000000E+00 -0.00000000000E+00 -0.74505805969E-08  0.93827000000E+00  0.93827000000E+00 0. -1.
     999902    2    1    2    0    0 -0.18496198975E-01  0.91767176272E-02  0.14822756304E-01  0.10185127691E+01  0.10181955731E+01 0.  0.
     999903    2    3    3    0    0 -0.11007696469E+00 -0.62530944912E-01 -0.21963344468E-01  0.13009718912E+00  0.20391981028E-01 0.  0.
         14    1    1    2    0    0  0.18496198975E-01 -0.91767176272E-02 -0.14822756304E-01  0.25417230915E-01  0.00000000000E+00 0. -1.
     999901    1    3    3    0    0  0.91580765713E-01  0.71707662539E-01  0.36786100772E-01  0.88841557997E+00  0.88000000000E+00 0. -1.
        -11    1    4    4    0    0 -0.63596564854E-01 -0.27891957630E-01 -0.46715411578E-02  0.69602936572E-01  0.51100000000E-03 0. -1.
         11    1    4    4    0    0 -0.46480399834E-01 -0.34638987282E-01 -0.17291803310E-01  0.60494252548E-01  0.51100000000E-03 0.  1.
</event>
<event>
 8    1  0.1132255E+005  0.1043930E+01  0.7957747E-01            NaN
         13   -1    0    0    0    0  0.00000000000E+00  0.00000000000E+00  0.74505805969E-08  0.10566000000E+00  0.10566000000E+00 0. -1.
     999900   -1    0    0    0    0 -0.00000000000E+00 -0.00000000000E+00 -0.74505805969E-08  0.93827000000E+00  0.93827000000E+00 0. -1.
     999902    2    1    2    0    0 -0.18784739994E-01 -0.25454671212E-02  0.11338231283E-01  0.10218415110E+01  0.10216027468E+01 0.  0.
     999903    2    3    3    0    0 -0.73963446343E-01 -0.10296278565E-02  0.11066911976E+00  0.13453456699E+00  0.19499849199E-01 0.  0.
         14    1    1    2    0    0  0.18784739994E-01  0.25454671212E-02 -0.11338231283E-01  0.22088489042E-01  0.00000000000E+00 0.  1.
     999901    1    3    3    0    0  0.55178706349E-01 -0.15158392647E-02 -0.99330888478E-01  0.88730694397E+00  0.88000000000E+00 0. -1.
        -11    1    4    4    0    0 -0.65785092415E-01 -0.41617474448E-02  0.86033732292E-01  0.10838386752E+00  0.51100000000E-03 0. -1.
         11    1    4    4    0    0 -0.81783539284E-02  0.31321195882E-02  0.24635387469E-01  0.26150699471E-01  0.51100000000E-03 0.  1.
</event>
<event>
 7    1  0.1132255E+005  0.1043930E+01  0.7957747E-01            NaN
         13   -1    0    0    0    0  0.00000000000E+00  0.00000000000E+00  0.74505805969E-08  0.10566000000E+00  0.10566000000E+00 0. -1.
     999900   -1    0    0    0    0 -0.00000000000E+00 -0.00000000000E+00 -0.74505805969E-08  0.93827000000E+00  0.93827000000E+00 0.  1.
     999902    2    1    2    0    0 -0.43054528984E-02 -0.17728899892E-01 -0.14253436650E-01  0.10207780827E+01  0.10205154986E+01 0.  0.
         14    1    1    2    0    0  0.43054528984E-02  0.17728899892E-01  0.14253436650E-01  0.23151917251E-01  0.00000000000E+00 0. -1.
     999901    1    3    3    0    0  0.85952828553E-01 -0.39466215203E-01  0.68814855421E-01  0.88773923829E+00  0.88000000000E+00 0. -1.
        -11    1    3    3    0    0 -0.40927069548E-01 -0.13234822847E-01 -0.40540348263E-01  0.59109783589E-01  0.51100000000E-03 0. -1.
         11    1    3    3    0    0 -0.49331211903E-01  0.34972138158E-01 -0.42527943808E-01  0.73929060867E-01  0.51100000000E-03 0.  1.
</event>
<event>
 8    1  0.1132255E+005  0.1043930E+01  0.7957747E-01            NaN
         13   -1    0    0    0    0  0.00000000000E+00  0.00000000000E+00  0.74505805969E-08  0.10566000000E+00  0.10566000000E+00 0. -1.
     999900   -1    0    0    0    0 -0.00000000000E+00 -0.00000000000E+00 -0.74505805969E-08  0.93827000000E+00  0.93827000000E+00 0.  1.
     999902    2    1    2    0    0  0.97960639769E-02  0.15070529091E-01  0.15783771687E-01  0.10200090643E+01  0.10197285325E+01 0.  0.
     999903    2    3    3    0    0  0.18690477150E-01  0.99439024097E-01  0.84460133026E-01  0.13326581163E+00  0.19718241017E-01 0.  0.
         14    1    1    2    0    0 -0.97960639769E-02 -0.15070529091E-01 -0.15783771687E-01  0.23920935709E-01  0.00000000000E+00 0.  1.
     999901    1    3    3    0    0 -0.88944131730E-02 -0.84368495007E-01 -0.68676361339E-01  0.88674325266E+00  0.88000000000E+00 0.  1.
        -11    1    4    4    0    0  0.10629348872E-01  0.79670799999E-01  0.57279018487E-01  0.98699374414E-01  0.51100000000E-03 0. -1.
         11    1    4    4    0    0  0.80611282781E-02  0.19768224098E-01  0.27181114539E-01  0.34566437214E-01  0.51100000000E-03 0.  1.
</event>
<event>
 8    1  0.1132255E+005  0.1043930E+01  0.7957747E-01            NaN
         13   -1    0    0    0    0  0.00000000000E+00  0.00000000000E+00  0.74505805969E-08  0.10566000000E+00  0.10566000000E+00 0.  1.
     999900   -1    0    0    0    0 -0.00000000000E+00 -0.00000000000E+00 -0.74505805969E-08  0.93827000000E+00  0.93827000000E+00 0. -1.
     999902    2    1    2    0    0  0.12632183512E-01  0.15247568073E-01 -0.11947119512E-01  0.10208043853E+01  0.10205424043E+01 0.  0.
     999903    2    3    3    0    0 -0.12279230798E+00  0.20280197491E-01  0.29143534035E-01  0.12948314011E+00  0.20671252635E-01 0.  0.
         14    1    1    2    0    0 -0.12632183512E-01 -0.15247568073E-01  0.11947119512E-01  0.23125614739E-01  0.00000000000E+00 0. -1.
     999901    1    3    3    0    0  0.13542449150E+00 -0.50326294184E-02 -0.41090653547E-01  0.89132124515E+00  0.88000000000E+00 0.  1.
        -11    1    4    4    0    0 -0.73349277590E-01  0.16177150083E-01  0.27007487223E-01  0.79821564723E-01  0.51100000000E-03 0.  1.
         11    1    4    4    0    0 -0.49443030393E-01  0.41030474089E-02  0.21360468118E-02  0.49661575383E-01  0.51100000000E-03 0. -1.
</event>
<event>
 8    1  0.1132255E+005  0.1043930E+01  0.7957747E-01            NaN
         13   -1    0    0    0    0  0.00000000000E+00  0.00000000000E+00  0.74505805969E-08  0.10566000000E+00  0.10566000000E+00 0. -1.
     999900   -1    0    0    0    0 -0.00000000000E+00 -0.00000000000E+00 -0.74505805969E-08  0.93827000000E+00  0.93827000000E+00 0.  1.
     999902    2    1    2    0    0  0.12601181618E-01 -0.14456649026E-01  0.75707234463E-02  0.10233120386E+01  0.10231043094E+01 0.  0.
     999903    2    3    3    0    0 -0.29805276673E-02 -0.34302374443E-01 -0.12667444957E+00  0.13277376936E+00  0.19922881825E-01 0.  0.
         14    1    1    2    0    0 -0.12601181618E-01  0.14456649026E-01 -0.75707234463E-02  0.20617961411E-01  0.00000000000E+00 0.  1.
     999901    1    3    3    0    0  0.15581709286E-01  0.19845725417E-01  0.13424517301E+00  0.89053826923E+00  0.88000000000E+00 0. -1.
        -11    1    4    4    0    0  0.87168809551E-03 -0.10333590107E-01 -0.13538940483E-01  0.17061856729E-01  0.51100000000E-03 0. -1.
         11    1    4    4    0    0 -0.38522157628E-02 -0.23968784337E-01 -0.11313550908E+00  0.11571191263E+00  0.51100000000E-03 0.  1.
</event>
<event>
 8    1  0.1132255E+005  0.1043930E+01  0.7957747E-01            NaN
         13   -1    0    0    0    0  0.00000000000E+00  0.00000000000E+00  0.74505805969E-08  0.10566000000E+00  0.10566000000E+00 0.  1.
     999900   -1    0    0    0    0 -0.00000000000E+00 -0.00000000000E+00 -0.74505805969E-08  0.93827000000E+00  0.93827000000E+00 0.  1.
     999902    2    1    2    0    0 -0.15922210764E-01 -0.10387882384E-01 -0.13913965668E-01  0.10203710667E+01  0.10200990592E+01 0.  0.
     999903    2    3    3    0    0  0.12554692964E-01  0.55211644418E-01  0.11342828510E+00  0.12833391460E+00  0.19941709530E-01 0.  0.
         14    1    1    2    0    0  0.15922210764E-01  0.10387882384E-01  0.13913965668E-01  0.23558933267E-01  0.00000000000E+00 0.  1.
     999901    1    3    3    0    0 -0.28476903728E-01 -0.65599526802E-01 -0.12734225077E+00  0.89203715214E+00  0.88000000000E+00 0.  1.
        -11    1    4    4    0    0  0.38020888527E-02  0.12509184051E-01  0.11290465958E-01  0.17282109472E-01  0.51100000000E-03 0.  1.
         11    1    4    4    0    0  0.87526041116E-02  0.42702460366E-01  0.10213781915E+00  0.11105180512E+00  0.51100000000E-03 0. -1.
</event>
<event>
 7    1  0.1240814E+005  0.1043930E+01  0.7957747E-01            NaN
         13   -1    0    0    0    0  0.00000000000E+00  0.00000000000E+00  0.74505805969E-08  0.10566000000E+00  0.10566000000E+00 0.  1.
     999900   -1    0    0    0    0 -0.00000000000E+00 -0.00000000000E+00 -0.74505805969E-08  0.93827000000E+00  0.93827000000E+00 0.  1.
     999903    2    1    2    0    0  0.10622552367E+00  0.11550454629E-01  0.38585640100E-03  0.10885664469E+00  0.20792915302E-01 0.  0.
         14    1    1    2    0    0 -0.36379592100E-02  0.13806265582E-01 -0.45416564398E-01  0.47607898906E-01  0.00000000000E+00 0. -1.
     999901    1    1    2    0    0 -0.10258756446E+00 -0.25356720211E-01  0.45030707997E-01  0.88746545640E+00  0.88000000000E+00 0. -1.
        -11    1    3    3    0    0  0.72591633197E-01  0.88019401858E-02  0.98979427144E-02  0.73791935550E-01  0.51100000000E-03 0. -1.
         11    1    3    3    0    0  0.33633890476E-01  0.27485144428E-02 -0.95120863134E-02  0.35064709143E-01  0.51100000000E-03 0.  1.
</event>
<event>
 8    1  0.1132255E+005  0.1043930E+01  0.7957747E-01            NaN
         13   -1    0    0    0    0  0.00000000000E+00  0.00000000000E+00  0.74505805969E-08  0.10566000000E+00  0.10566000000E+00 0.  1.
     999900   -1    0    0    0    0 -0.00000000000E+00 -0.00000000000E+00 -0.74505805969E-08  0.93827000000E+00  0.93827000000E+00 0. -1.
     999902    2    1    2    0    0  0.15426999443E-01 -0.85317889472E-02  0.15840478480E-01  0.10202296942E+01  0.10199543737E+01 0.  0.
     999903    2    3    3    0    0  0.12674195764E+00 -0.28088127209E-01 -0.15990709999E-01  0.13243090237E+00  0.20731000474E-01 0.  0.
         14    1    1    2    0    0 -0.15426999443E-01  0.85317889472E-02 -0.15840478480E-01  0.23700305756E-01  0.00000000000E+00 0. -1.
     999901    1    3    3    0    0 -0.11131495820E+00  0.19556338262E-01  0.31831188479E-01  0.88779879187E+00  0.88000000000E+00 0.  1.
        -11    1    4    4    0    0  0.76126384988E-01 -0.24689033128E-01 -0.16412305173E-01  0.81696999518E-01  0.51100000000E-03 0.  1.
         11    1    4    4    0    0  0.50615572653E-01 -0.33990940814E-02  0.42159517426E-03  0.50733902857E-01  0.51100000000E-03 0. -1.
</event>
<event>
 8    1  0.1132255E+005  0.1043930E+01  0.7957747E-01            NaN
         13   -1    0    0    0    0  0.00000000000E+00  0.00000000000E+00  0.74505805969E-08  0.10566000000E+00  0.10566000000E+00 0.  1.
     999900   -1    0    0    0    0 -0.00000000000E+00 -0.00000000000E+00 -0.74505805969E-08  0.93827000000E+00  0.93827000000E+00 0. -1.
     999902    2    1    2    0    0  0.30221339936E-02 -0.24062015878E-02  0.24364398976E-01  0.10192612538E+01  0.10189626865E+01 0.  0.
     999903    2    3    3    0    0 -0.62951235200E-01  0.76121326995E-01  0.84109317077E-01  0.13129249682E+00  0.20150138118E-01 0.  0.
         14    1    1    2    0    0 -0.30221339936E-02  0.24062015878E-02 -0.24364398976E-01  0.24668746166E-01  0.00000000000E+00 0. -1.
     999901    1    3    3    0    0  0.65973369194E-01 -0.78527528583E-01 -0.59744918101E-01  0.88796875701E+00  0.88000000000E+00 0. -1.
        -11    1    4    4    0    0 -0.21406692144E-01  0.35489864210E-01  0.45357922878E-01  0.61444114600E-01  0.51100000000E-03 0.  1.
         11    1    4    4    0    0 -0.41544543056E-01  0.40631462786E-01  0.38751394199E-01  0.69848382224E-01  0.51100000000E-03 0. -1.
</event>
<event>
 8    1  0.1132255E+005  0.1043930E+01  0.7957747E-01            NaN
         13   -1    0    0    0    0  0.00000000000E+00  0.00000000000E+00  0.74505805969E-08  0.10566000000E+00  0.10566000000E+00 0.  1.
     999900   -1    0    0    0    0 -0.00000000000E+00 -0.00000000000E+00 -0.74505805969E-08  0.93827000000E+00  0.93827000000E+00 0. -1.
     999902    2    1    2    0    0 -0.21977924299E-01 -0.28362885412E-02  0.84926348543E-02  0.10201981957E+01  0.10199221343E+01 0.  0.
     999903    2    3    3    0    0  0.75663166295E-02 -0.12211981109E-01 -0.12729429084E+00  0.12924429398E+00  0.17142619866E-01 0.  0.
         14    1    1    2    0    0  0.21977924299E-01  0.28362885412E-02 -0.84926348543E-02  0.23731804313E-01  0.00000000000E+00 0. -1.
     999901    1    3    3    0    0 -0.29544240928E-01  0.93756925680E-02  0.13578692569E+00  0.89095390171E+00  0.88000000000E+00 0.  1.
        -11    1    4    4    0    0  0.78093215173E-02 -0.16222163528E-01 -0.11114550774E+00  0.11259542222E+00  0.51100000000E-03 0.  1.
         11    1    4    4    0    0 -0.24300488785E-03  0.40101824185E-02 -0.16148783094E-01  0.16648871758E-01  0.51100000000E-03 0. -1.
</event>
<event>
 8    1  0.1132255E+005  0.1043930E+01  0.7957747E-01            NaN
         13   -1    0    0    0    0  0.00000000000E+00  0.00000000000E+00  0.74505805969E-08  0.10566000000E+00  0.10566000000E+00 0.  1.
     999900   -1    0    0    0    0 -0.00000000000E+00 -0.00000000000E+00 -0.74505805969E-08  0.93827000000E+00  0.93827000000E+00 0.  1.
     999902    2    1    2    0    0  0.14867706824E-01 -0.13867438747E-01  0.13595707103E-01  0.10194719172E+01  0.10191784888E+01 0.  0.
     999903    2    3    3    0    0  0.80977950520E-01  0.79056334910E-01 -0.58950217393E-01  0.12915270297E+00  0.19948934656E-01 0.  0.
         14    1    1    2    0    0 -0.14867706824E-01  0.13867438747E-01 -0.13595707103E-01  0.24458082820E-01  0.00000000000E+00 0. -1.
     999901    1    3    3    0    0 -0.66110243696E-01 -0.92923773656E-01  0.72545924496E-01  0.89031921421E+00  0.88000000000E+00 0.  1.
        -11    1    4    4    0    0  0.36019253481E-01  0.33322355801E-01 -0.36668582077E-01  0.61258567156E-01  0.51100000000E-03 0. -1.
         11    1    4    4    0    0  0.44958697039E-01  0.45733979108E-01 -0.22281635316E-01  0.67894135814E-01  0.51100000000E-03 0.  1.
</event>
<event>
 8    1  0.1132255E+005  0.1043930E+01  0.7957747E-01            NaN
         13   -1    0    0    0    0  0.00000000000E+00  0.00000000000E+00  0.74505805969E-08  0.10566000000E+00  0.10566000000E+00 0.  1.
     999900   -1    0    0    0    0 -0.00000000000E+00 -0.00000000000E+00 -0.74505805969E-08  0.93827000000E+00  0.93827000000E+00 0. -1.
     999902    2    1    2    0    0 -0.43860200931E-02 -0.25689443491E-01  0.33715802569E-02  0.10176516395E+01  0.10173122957E+01 0.  0.
     999903    2    3    3    0    0 -0.84931708896E-01 -0.94480248498E-01  0.24849741111E-01  0.13103949527E+00  0.20345199796E-01 0.  0.
         14    1    1    2    0    0  0.43860200931E-02  0.25689443491E-01 -0.33715802569E-02  0.26278360538E-01  0.00000000000E+00 0.  1.
     999901    1    3    3    0    0  0.80545688803E-01  0.68790805007E-01 -0.21478160854E-01  0.88661214419E+00  0.88000000000E+00 0. -1.
        -11    1    4    4    0    0 -0.39709563270E-01 -0.39107773335E-01  0.20592560850E-01  0.59418701043E-01  0.51100000000E-03 0. -1.
         11    1    4    4    0    0 -0.45222145626E-01 -0.55372475162E-01  0.42571802609E-02  0.71620794225E-01  0.51100000000E-03 0.  1.
</event>
<event>
 8    1  0.1132255E+005  0.1043930E+01  0.7957747E-01            NaN
         13   -1    0    0    0    0  0.00000000000E+00  0.00000000000E+00  0.74505805969E-08  0.10566000000E+00  0.10566000000E+00 0. -1.
     999900   -1    0    0    0    0 -0.00000000000E+00 -0.00000000000E+00 -0.74505805969E-08  0.93827000000E+00  0.93827000000E+00 0. -1.
     999902    2    1    2    0    0 -0.11281171939E-01 -0.19992986809E-01 -0.34850931900E-02  0.10207108218E+01  0.10204466921E+01 0.  0.
     999903    2    3    3    0    0 -0.12061275793E+00 -0.20609326577E-01  0.44431657590E-01  0.13265125703E+00  0.25495138315E-01 0.  0.
         14    1    1    2    0    0  0.11281171939E-01  0.19992986809E-01  0.34850931900E-02  0.23219178203E-01  0.00000000000E+00 0. -1.
     999901    1    3    3    0    0  0.10933158599E+00  0.61633976791E-03 -0.47916750780E-01  0.88805956477E+00  0.88000000000E+00 0. -1.
        -11    1    4    4    0    0 -0.76523105910E-01 -0.23058531101E-01  0.36159486276E-01  0.87722580693E-01  0.51100000000E-03 0.  1.
         11    1    4    4    0    0 -0.44089652021E-01  0.24492045246E-02  0.82721713139E-02  0.44928676337E-01  0.51100000000E-03 0. -1.
</event>
<event>
 8    1  0.1132255E+005  0.1043930E+01  0.7957747E-01            NaN
         13   -1    0    0    0    0  0.00000000000E+00  0.00000000000E+00  0.74505805969E-08  0.10566000000E+00  0.10566000000E+00 0. -1.
     999900   -1    0    0    0    0 -0.00000000000E+00 -0.00000000000E+00 -0.74505805969E-08  0.93827000000E+00  0.93827000000E+00 0.  1.
     999902    2    1    2    0    0  0.21460872834E-01  0.72469541601E-02 -0.56006747931E-02  0.10205964412E+01  0.10203296726E+01 0.  0.
     999903    2    3    3    0    0 -0.81279294941E-01  0.97868896800E-01 -0.18424752645E-01  0.12990438695E+00  0.18735887790E-01 0.  0.
         14    1    1    2    0    0 -0.21460872834E-01 -0.72469541601E-02  0.56006747931E-02  0.23333558785E-01  0.00000000000E+00 0. -1.
     999901    1    3    3    0    0  0.10274016778E+00 -0.90621942640E-01  0.12824077851E-01  0.89069205427E+00  0.88000000000E+00 0. -1.
        -11    1    4    4    0    0 -0.44285572107E-01  0.58721736242E-01 -0.19273206601E-01  0.76034017504E-01  0.51100000000E-03 0.  1.
         11    1    4    4    0    0 -0.36993722835E-01  0.39147160558E-01  0.84845395636E-03  0.53870369444E-01  0.51100000000E-03 0. -1.
</event>
<event>
 8    1  0.1132255E+005  0.1043930E+01  0.7957747E-01            NaN
         13   -1    0    0    0    0  0.00000000000E+00  0.00000000000E+00  0.74505805969E-08  0.10566000000E+00  0.10566000000E+00 0. -1.
     999900   -1    0    0    0    0 -0.00000000000E+00 -0.00000000000E+00 -0.74505805969E-08  0.93827000000E+00  0.93827000000E+00 0. -1.
     999902    2    1    2    0    0  0.89441008623E-02 -0.14199605177E-01  0.16766335430E-01  0.10202079484E+01  0.10199321165E+01 0.  0.
     999903    2    3    3    0    0 -0.80274936864E-02  0.99959486514E-01 -0.77000455498E-01  0.12773243373E+00  0.18170439761E-01 0.  0.
         14    1    1    2    0    0 -0.89441008623E-02  0.14199605177E-01 -0.16766335430E-01  0.23722051580E-01  0.00000000000E+00 0.  1.
     999901    1    3    3    0    0  0.16971594549E-01 -0.11415909169E+00  0.93766790928E-01  0.89247551469E+00  0.88000000000E+00 0.  1.
        -11    1    4    4    0    0 -0.76489655244E-02  0.53022647023E-01 -0.51495380066E-01  0.74309777688E-01  0.51100000000E-03 0.  1.
         11    1    4    4    0    0 -0.37852816198E-03  0.46936839491E-01 -0.25505075432E-01  0.53422656044E-01  0.51100000000E-03 0. -1.
</event>
<event>
 7    1  0.1132255E+005  0.1043930E+01  0.7957747E-01            NaN
         13   -1    0    0    0    0  0.00000000000E+00  0.00000000000E+00  0.74505805969E-08  0.10566000000E+00  0.10566000000E+00 0. -1.
     999900   -1    0    0    0    0 -0.00000000000E+00 -0.00000000000E+00 -0.74505805969E-08  0.93827000000E+00  0.93827000000E+00 0.  1.
     999903    2    1    2    0    0  0.42109881305E-01  0.41750805082E-01 -0.47116259001E-01  0.77854620220E-01  0.18028538455E-01 0.  0.
         14    1    1    2    0    0 -0.68575549347E-02 -0.51677375710E-01 -0.59244932516E-01  0.78914759385E-01  0.00000000000E+00 0.  1.
     999901    1    1    2    0    0 -0.35252326370E-01  0.99265706278E-02  0.10636119152E+00  0.88716062040E+00  0.88000000000E+00 0. -1.
        -11    1    3    3    0    0  0.10282210153E-01  0.56692077225E-02 -0.20510272606E-02  0.11930280619E-01  0.51100000000E-03 0.  1.
         11    1    3    3    0    0  0.31827671152E-01  0.36081597360E-01 -0.45065231740E-01  0.65924339601E-01  0.51100000000E-03 0. -1.
</event>
<event>
 8    1  0.1132255E+005  0.1043930E+01  0.7957747E-01            NaN
         13   -1    0    0    0    0  0.00000000000E+00  0.00000000000E+00  0.74505805969E-08  0.10566000000E+00  0.10566000000E+00 0.  1.
     999900   -1    0    0    0    0 -0.00000000000E+00 -0.00000000000E+00 -0.74505805969E-08  0.93827000000E+00  0.93827000000E+00 0.  1.
     999902    2    1    2    0    0 -0.65488379625E-02 -0.21530639019E-01 -0.45792368913E-03  0.10214207710E+01  0.10211727210E+01 0.  0.
     999903    2    3    3    0    0  0.81785973511E-01  0.81181939794E-01 -0.55768610546E-01  0.12933771163E+00  0.18402524720E-01 0.  0.
         14    1    1    2    0    0  0.65488379625E-02  0.21530639019E-01  0.45792368913E-03  0.22509228981E-01  0.00000000000E+00 0. -1.
     999901    1    3    3    0    0 -0.88334811473E-01 -0.10271257881E+00  0.55310686857E-01  0.89208305939E+00  0.88000000000E+00 0. -1.
        -11    1    4    4    0    0  0.65867297277E-01  0.62928728845E-01 -0.51784156134E-01  0.10478733565E+00  0.51100000000E-03 0. -1.
         11    1    4    4    0    0  0.15918676234E-01  0.18253210949E-01 -0.39844544113E-02  0.24550375984E-01  0.51100000000E-03 0.  1.
</event>
<event>
 8    1  0.1132255E+005  0.1043930E+01  0.7957747E-01            NaN
         13   -1    0    0    0    0  0.00000000000E+00  0.00000000000E+00  0.74505805969E-08  0.10566000000E+00  0.10566000000E+00 0. -1.
     999900   -1    0    0    0    0 -0.00000000000E+00 -0.00000000000E+00 -0.74505805969E-08  0.93827000000E+00  0.93827000000E+00 0. -1.
     999902    2    1    2    0    0 -0.68368880161E-04  0.21851748996E-01 -0.85375146389E-02  0.10204695489E+01  0.10201998370E+01 0.  0.
     999903    2    3    3    0    0  0.10354045623E+00  0.68821316980E-01 -0.41324656031E-01  0.13254166582E+00  0.20064053309E-01 0.  0.
         14    1    1    2    0    0  0.68368880161E-04 -0.21851748996E-01  0.85375146389E-02  0.23460451076E-01  0.00000000000E+00 0. -1.
     999901    1    3    3    0    0 -0.10360882511E+00 -0.46969567984E-01  0.32787141392E-01  0.88792788311E+00  0.88000000000E+00 0.  1.
        -11    1    4    4    0    0  0.60530433561E-01  0.29377998456E-01 -0.17641551972E-01  0.69559224100E-01  0.51100000000E-03 0.  1.
         11    1    4    4    0    0  0.43010022665E-01  0.39443318525E-01 -0.23683104059E-01  0.62982441718E-01  0.51100000000E-03 0. -1.
</event>
<event>
 8    1  0.1132255E+005  0.1043930E+01  0.7957747E-01            NaN
         13   -1    0    0    0    0  0.00000000000E+00  0.00000000000E+00  0.74505805969E-08  0.10566000000E+00  0.10566000000E+00 0.  1.
     999900   -1    0    0    0    0 -0.00000000000E+00 -0.00000000000E+00 -0.74505805969E-08  0.93827000000E+00  0.93827000000E+00 0. -1.
     999902    2    1    2    0    0 -0.22794135828E-01 -0.68925518373E-02  0.23169946402E-02  0.10200041068E+01  0.10197234574E+01 0.  0.
     999903    2    3    3    0    0  0.31042187568E-01 -0.66778532411E-01  0.10554335520E+00  0.13031856583E+00  0.20507046887E-01 0.  0.
         14    1    1    2    0    0  0.22794135828E-01  0.68925518373E-02 -0.23169946402E-02  0.23925893153E-01  0.00000000000E+00 0. -1.
     999901    1    3    3    0    0 -0.53836323396E-01  0.59885980573E-01 -0.10322636056E+00  0.88968554102E+00  0.88000000000E+00 0. -1.
        -11    1    4    4    0    0  0.25187040838E-01 -0.60212706888E-01  0.10137583406E+00  0.12057063469E+00  0.51100000000E-03 0.  1.
         11    1    4    4    0    0  0.58551467293E-02 -0.65658255227E-02  0.41675211436E-02  0.97479311394E-02  0.51100000000E-03 0. -1.
</event>
<event>
 8    1  0.1132255E+005  0.1043930E+01  0.7957747E-01            NaN
         13   -1    0    0    0    0  0.00000000000E+00  0.00000000000E+00  0.74505805969E-08  0.10566000000E+00  0.10566000000E+00 0. -1.
     999900   -1    0    0    0    0 -0.00000000000E+00 -0.00000000000E+00 -0.74505805969E-08  0.93827000000E+00  0.93827000000E+00 0.  1.
     999902    2    1    2    0    0  0.10416231899E-01 -0.22582345309E-01  0.58044330818E-02  0.10183927400E+01  0.10180725029E+01 0.  0.
     999903    2    3    3    0    0  0.75459789850E-01  0.99913835903E-01 -0.12590126788E-01  0.12734036290E+00  0.19496210964E-01 0.  0.
         14    1    1    2    0    0 -0.10416231899E-01  0.22582345309E-01 -0.58044330818E-02  0.25537260034E-01  0.00000000000E+00 0.  1.
     999901    1    3    3    0    0 -0.65043557951E-01 -0.12249618121E+00  0.18394559870E-01  0.89105237707E+00  0.88000000000E+00 0. -1.
        -11    1    4    4    0    0  0.17585515021E-01  0.14388053987E-01 -0.75522645550E-02  0.23949201594E-01  0.51100000000E-03 0. -1.
         11    1    4    4    0    0  0.57874274829E-01  0.85525781916E-01 -0.50378622329E-02  0.10339116131E+00  0.51100000000E-03 0.  1.
</event>
<event>
 8    1  0.1132255E+005  0.1043930E+01  0.7957747E-01            NaN
         13   -1    0    0    0    0  0.00000000000E+00  0.00000000000E+00  0.74505805969E-08  0.10566000000E+00  0.10566000000E+00 0.  1.
     999900   -1    0    0    0    0 -0.00000000000E+00 -0.00000000000E+00 -0.74505805969E-08  0.93827000000E+00  0.93827000000E+00 0.  1.
     999902    2    1    2    0    0 -0.12715447940E-01  0.43830815622E-02 -0.19640082133E-01  0.10201260750E+01  0.10198483132E+01 0.  0.
     999903    2    3    3    0    0  0.50049701240E-02 -0.11568510724E+00  0.52326188803E-01  0.12888563193E+00  0.21572721659E-01 0.  0.
         14    1    1    2    0    0  0.12715447940E-01 -0.43830815622E-02  0.19640082133E-01  0.23803925022E-01  0.00000000000E+00 0.  1.
     999901    1    3    3    0    0 -0.17720418064E-01  0.12006818880E+00 -0.71966270935E-01  0.89124044305E+00  0.88000000000E+00 0. -1.
        -11    1    4    4    0    0  0.85911573034E-02 -0.33047347309E-01  0.81397091347E-02  0.35106283395E-01  0.51100000000E-03 0.  1.
         11    1    4    4    0    0 -0.35861871794E-02 -0.82637759929E-01  0.44186479668E-01  0.93779348531E-01  0.51100000000E-03 0. -1.
</event>
<event>
 8    1  0.1132255E+005  0.1043930E+01  0.7957747E-01            NaN
         13   -1    0    0    0    0  0.00000000000E+00  0.00000000000E+00  0.74505805969E-08  0.10566000000E+00  0.10566000000E+00 0.  1.
     999900   -1    0    0    0    0 -0.00000000000E+00 -0.00000000000E+00 -0.74505805969E-08  0.93827000000E+00  0.93827000000E+00 0.  1.
     999902    2    1    2    0    0 -0.21898184135E-01  0.89052143591E-03  0.63367948763E-02  0.10211160028E+01  0.10208611134E+01 0.  0.
     999903    2    3    3    0    0  0.41126817455E-01  0.10892206603E+00 -0.54484313950E-01  0.13019391157E+00  0.20651454173E-01 0.  0.
         14    1    1    2    0    0  0.21898184135E-01 -0.89052143591E-03 -0.63367948763E-02  0.22813997154E-01  0.00000000000E+00 0. -1.
     999901    1    3    3    0    0 -0.63025001590E-01 -0.10803154460E+00  0.60821108826E-01  0.89092209128E+00  0.88000000000E+00 0. -1.
        -11    1    4    4    0    0  0.22205004822E-01  0.60856133125E-01 -0.41476349316E-01  0.76922557495E-01  0.51100000000E-03 0.  1.
         11    1    4    4    0    0  0.18921812632E-01  0.48065932907E-01 -0.13007964634E-01  0.53271354070E-01  0.51100000000E-03 0. -1.
</event>
<event>
 8    1  0.1132255E+005  0.1043930E+01  0.7957747E-01            NaN
         13   -1    0    0    0    0  0.00000000000E+00  0.00000000000E+00  0.74505805969E-08  0.10566000000E+00  0.10566000000E+00 0. -1.
     999900   -1    0    0    0    0 -0.00000000000E+00 -0.00000000000E+00 -0.74505805969E-08  0.93827000000E+00  0.93827000000E+00 0. -1.
     999902    2    1    2    0    0  0.11392607204E-01 -0.16513976287E-01  0.12772378120E-01  0.10201468851E+01  0.10198696145E+01 0.  0.
     999903    2    3    3    0    0  0.76419017138E-01 -0.10670138998E+00 -0.66370473335E-02  0.13293838121E+00  0.20087558250E-01 0.  0.
         14    1    1    2    0    0 -0.11392607204E-01  0.16513976287E-01 -0.12772378120E-01  0.23783114905E-01  0.00000000000E+00 0.  1.
     999901    1    3    3    0    0 -0.65026409934E-01  0.90187413692E-01  0.19409425454E-01  0.88720850389E+00  0.88000000000E+00 0.  1.
        -11    1    4    4    0    0  0.72126567499E-01 -0.10250500802E+00 -0.20316234834E-02  0.12535512364E+00  0.51100000000E-03 0. -1.
         11    1    4    4    0    0  0.42924496390E-02 -0.41963819632E-02 -0.46054238501E-02  0.75832575668E-02  0.51100000000E-03 0.  1.
</event>
<event>
 8    1  0.1132255E+005  0.1043930E+01  0.7957747E-01            NaN
         13   -1    0    0    0    0  0.00000000000E+00  0.00000000000E+00  0.74505805969E-08  0.10566000000E+00  0.10566000000E+00 0. -1.
     999900   -1    0    0    0    0 -0.00000000000E+00 -0.00000000000E+00 -0.74505805969E-08  0.93827000000E+00  0.93827000000E+00 0. -1.
     999902    2    1    2    0    0  0.14933228960E-01  0.14793846350E-01  0.19222196512E-01  0.10154457578E+01  0.10150461738E+01 0.  0.
     999903    2    3    3    0    0  0.94990379027E-01 -0.43976443917E-01  0.71540909846E-01  0.12831536033E+00  0.19739052326E-01 0.  0.
         14    1    1    2    0    0 -0.14933228960E-01 -0.14793846350E-01 -0.19222196512E-01  0.28484242236E-01  0.00000000000E+00 0.  1.
     999901    1    3    3    0    0 -0.80057150067E-01  0.58770290267E-01 -0.52318713335E-01  0.88713039744E+00  0.88000000000E+00 0. -1.
        -11    1    4    4    0    0  0.47363059954E-01 -0.27285263728E-01  0.47476876645E-01  0.72402071807E-01  0.51100000000E-03 0.  1.
         11    1    4    4    0    0  0.47627319073E-01 -0.16691180188E-01  0.24064033201E-01  0.55913288519E-01  0.51100000000E-03 0. -1.
</event>
<event>
 8    1  0.1132255E+005  0.1043930E+01  0.7957747E-01            NaN
         13   -1    0    0    0    0  0.00000000000E+00  0.00000000000E+00  0.74505805969E-08  0.10566000000E+00  0.10566000000E+00 0. -1.
     999900   -1    0    0    0    0 -0.00000000000E+00 -0.00000000000E+00 -0.74505805969E-08  0.93827000000E+00  0.93827000000E+00 0. -1.
     999902    2    1    2    0    0  0.18285427245E-02  0.22703306958E-01 -0.12645429276E-03  0.10211528249E+01  0.10208987668E+01 0.  0.
     999903    2    3    3    0    0 -0.27693764682E-01  0.80424079265E-01  0.99838074411E-01  0.13312345534E+00  0.22786753404E-01 0.  0.
         14    1    1    2    0    0 -0.18285427245E-02 -0.22703306958E-01  0.12645429276E-03  0.22777175111E-01  0.00000000000E+00 0. -1.
     999901    1    3    3    0    0  0.29522307406E-01 -0.57720772307E-01 -0.99964528704E-01  0.88802936955E+00  0.88000000000E+00 0. -1.
        -11    1    4    4    0    0 -0.11594554101E-01  0.46942637178E-01  0.40319846687E-01  0.62960273410E-01  0.51100000000E-03 0. -1.
         11    1    4    4    0    0 -0.16099210581E-01  0.33481442086E-01  0.59518227724E-01  0.70163181926E-01  0.51100000000E-03 0.  1.
</event>
<event>
 8    1  0.1132255E+005  0.1043930E+01  0.7957747E-01            NaN
         13   -1    0    0    0    0  0.00000000000E+00  0.00000000000E+00  0.74505805969E-08  0.10566000000E+00  0.10566000000E+00 0.  1.
     999900   -1    0    0    0    0 -0.00000000000E+00 -0.00000000000E+00 -0.74505805969E-08  0.93827000000E+00  0.93827000000E+00 0. -1.
     999902    2    1    2    0    0 -0.10147286729E-01  0.11724289387E-01  0.18263549547E-01  0.10199720445E+01  0.10196906334E+01 0.  0.
     999903    2    3    3    0    0  0.19322645630E-01 -0.63752171266E-01 -0.10687387383E+00  0.12743378327E+00  0.19484358752E-01 0.  0.
         14    1    1    2    0    0  0.10147286729E-01 -0.11724289387E-01 -0.18263549547E-01  0.23957955498E-01  0.00000000000E+00 0. -1.
     999901    1    3    3    0    0 -0.29469932359E-01  0.75476460653E-01  0.12513742338E+00  0.89253826123E+00  0.88000000000E+00 0.  1.
        -11    1    4    4    0    0  0.12653851611E-02  0.89436919503E-03 -0.63748192906E-02  0.65803144188E-02  0.51100000000E-03 0. -1.
         11    1    4    4    0    0  0.18057260469E-01 -0.64646540461E-01 -0.10049905454E+00  0.12085346886E+00  0.51100000000E-03 0.  1.
</event>
<event>
 8    1  0.1132255E+005  0.1043930E+01  0.7957747E-01            NaN
         13   -1    0    0    0    0  0.00000000000E+00  0.00000000000E+00  0.74505805969E-08  0.10566000000E+00  0.10566000000E+00 0. -1.
     999900   -1    0    0    0    0 -0.00000000000E+00 -0.00000000000E+00 -0.74505805969E-08  0.93827000000E+00  0.93827000000E+00 0.  1.
     999902    2    1    2    0    0  0.21104566492E-01 -0.17289918801E-04 -0.12067284567E-01  0.10196190481E+01  0.10193291818E+01 0.  0.
     999903    2    3    3    0    0 -0.22562772184E-01 -0.11840826871E+00  0.41361191640E-01  0.12901371328E+00  0.20104558008E-01 0.  0.
         14    1    1    2    0    0 -0.21104566492E-01  0.17289918801E-04  0.12067284567E-01  0.24310951906E-01  0.00000000000E+00 0. -1.
     999901    1    3    3    0    0  0.43667338677E-01  0.11839097879E+00 -0.53428476207E-01  0.89060533481E+00  0.88000000000E+00 0.  1.
        -11    1    4    4    0    0 -0.56832639613E-02 -0.33180946219E-01  0.22817330483E-02  0.33745253117E-01  0.51100000000E-03 0.  1.
         11    1    4    4    0    0 -0.16879508223E-01 -0.85227322493E-01  0.39079458592E-01  0.95268460164E-01  0.51100000000E-03 0. -1.
</event>
<event>
 8    1  0.1132255E+005  0.1043930E+01  0.7957747E-01            NaN
         13   -1    0    0    0    0  0.00000000000E+00  0.00000000000E+00  0.74505805969E-08  0.10566000000E+00  0.10566000000E+00 0. -1.
     999900   -1    0    0    0    0 -0.00000000000E+00 -0.00000000000E+00 -0.74505805969E-08  0.93827000000E+00  0.93827000000E+00 0. -1.
     999902    2    1    2    0    0 -0.10499458284E-01  0.95631435675E-02 -0.18852677238E-01  0.10203266998E+01  0.10200536548E+01 0.  0.
     999903    2    3    3    0    0  0.92940907153E-01  0.56490654627E-01 -0.71014539484E-01  0.13149434199E+00  0.20457049518E-01 0.  0.
         14    1    1    2    0    0  0.10499458284E-01 -0.95631435675E-02  0.18852677238E-01  0.23603300154E-01  0.00000000000E+00 0.  1.
     999901    1    3    3    0    0 -0.10344036544E+00 -0.46927511060E-01  0.52161862246E-01  0.88883235785E+00  0.88000000000E+00 0.  1.
        -11    1    4    4    0    0  0.47685849917E-01  0.39098467579E-01 -0.46019552618E-01  0.76946025196E-01  0.51100000000E-03 0.  1.
         11    1    4    4    0    0  0.45255057236E-01  0.17392187048E-01 -0.24994986866E-01  0.54548316796E-01  0.51100000000E-03 0. -1.
</event>
<event>
 8    1  0.1132255E+005  0.1043930E+01  0.7957747E-01            NaN
         13   -1    0    0    0    0  0.00000000000E+00  0.00000000000E+00  0.74505805969E-08  0.10566000000E+00  0.10566000000E+00 0.  1.
     999900   -1    0    0    0    0 -0.00000000000E+00 -0.00000000000E+00 -0.74505805969E-08  0.93827000000E+00  0.93827000000E+00 0.  1.
     999902    2    1    2    0    0 -0.21190117021E-01  0.81525856484E-02  0.58511682844E-02  0.10204838514E+01  0.10202144721E+01 0.  0.
     999903    2    3    3    0    0 -0.49102651549E-01 -0.11946788375E+00 -0.16871051260E-02  0.13080811312E+00  0.20597827463E-01 0.  0.
         14    1    1    2    0    0  0.21190117021E-01 -0.81525856484E-02 -0.58511682844E-02  0.23446148562E-01  0.00000000000E+00 0. -1.
     999901    1    3    3    0    0  0.27912534528E-01  0.12762046940E+00  0.75382734104E-02  0.88967573832E+00  0.88000000000E+00 0. -1.
        -11    1    4    4    0    0 -0.23535029040E-01 -0.78626094244E-01 -0.67713109221E-02  0.82353336669E-01  0.51100000000E-03 0. -1.
         11    1    4    4    0    0 -0.25567622510E-01 -0.40841789506E-01  0.50842057962E-02  0.48454776446E-01  0.51100000000E-03 0.  1.
</event>
<event>
 8    1  0.1132255E+005  0.1043930E+01  0.7957747E-01            NaN
         13   -1    0    0    0    0  0.00000000000E+00  0.00000000000E+00  0.74505805969E-08  0.10566000000E+00  0.10566000000E+00 0.  1.
     999900   -1    0    0    0    0 -0.00000000000E+00 -0.00000000000E+00 -0.74505805969E-08  0.93827000000E+00  0.93827000000E+00 0. -1.
     999902    2    1    2    0    0  0.26181349342E-02  0.23230987136E-01 -0.86124154167E-03  0.10205360877E+01  0.10202679213E+01 0.  0.
     999903    2    3    3    0    0 -0.75083534431E-01  0.10693517389E+00  0.14217596937E-01  0.13302760233E+00  0.20531301995E-01 0.  0.
         14    1    1    2    0    0 -0.26181349342E-02 -0.23230987136E-01  0.86124154167E-03  0.23393912260E-01  0.00000000000E+00 0. -1.
     999901    1    3    3    0    0  0.77701669365E-01 -0.83704186755E-01 -0.15078838479E-01  0.88750848541E+00  0.88000000000E+00 0.  1.
        -11    1    4    4    0    0 -0.23395062994E-01  0.40218724038E-01 -0.39427294937E-02  0.46697761966E-01  0.51100000000E-03 0. -1.
         11    1    4    4    0    0 -0.51688471437E-01  0.66716449853E-01  0.18160326431E-01  0.86329840365E-01  0.51100000000E-03 0.  1.
</event>
<event>
 8    1  0.1132255E+005  0.1043930E+01  0.7957747E-01            NaN
         13   -1    0    0    0    0  0.00000000000E+00  0.00000000000E+00  0.74505805969E-08  0.10566000000E+00  0.10566000000E+00 0.  1.
     999900   -1    0    0    0    0 -0.00000000000E+00 -0.00000000000E+00 -0.74505805969E-08  0.93827000000E+00  0.93827000000E+00 0.  1.
     999902    2    1    2    0    0 -0.18222099267E-01  0.16350406124E-03  0.14418107032E-01  0.10206931016E+01  0.10204285640E+01 0.  0.
     999903    2    3    3    0    0 -0.85443944280E-01 -0.82862306701E-02  0.10076692410E+00  0.13387502972E+00  0.19980524477E-01 0.  0.
         14    1    1    2    0    0  0.18222099267E-01 -0.16350406124E-03 -0.14418107032E-01  0.23236898366E-01  0.00000000000E+00 0.  1.
     999901    1    3    3    0    0  0.67221845013E-01  0.84497347313E-02 -0.86348817063E-01  0.88681807191E+00  0.88000000000E+00 0.  1.
        -11    1    4    4    0    0 -0.46832573222E-01 -0.12341081887E-01  0.65190466517E-01  0.81213608850E-01  0.51100000000E-03 0. -1.
         11    1    4    4    0    0 -0.38611371057E-01  0.40548512169E-02  0.35576457578E-01  0.52661420871E-01  0.51100000000E-03 0.  1.
</event>
<event>
 8    1  0.1132255E+005  0.1043930E+01  0.7957747E-01            NaN
         13   -1    0    0    0    0  0.00000000000E+00  0.00000000000E+00  0.74505805969E-08  0.10566000000E+00  0.10566000000E+00 0.  1.
     999900   -1    0    0    0    0 -0.00000000000E+00 -0.00000000000E+00 -0.74505805969E-08  0.93827000000E+00  0.93827000000E+00 0.  1.
     999902    2    1    2    0    0 -0.21982439727E-01 -0.71357746669E-02  0.55152424125E-02  0.10201694269E+01  0.10198926878E+01 0.  0.
     999903    2    3    3    0    0  0.10040619568E+00 -0.73951947743E-01 -0.24194340953E-01  0.12869534514E+00  0.20659889184E-01 0.  0.
         14    1    1    2    0    0  0.21982439727E-01  0.71357746669E-02 -0.55152424125E-02  0.23760573127E-01  0.00000000000E+00 0.  1.
     999901    1    3    3    0    0 -0.12238863540E+00  0.66816173076E-01  0.29709583366E-01  0.89147408173E+00  0.88000000000E+00 0.  1.
        -11    1    4    4    0    0  0.58309793695E-01 -0.36746786884E-01 -0.41727616436E-02  0.69050933721E-01  0.51100000000E-03 0. -1.
         11    1    4    4    0    0  0.42096401982E-01 -0.37205160858E-01 -0.20021579309E-01  0.59644411418E-01  0.51100000000E-03 0.  1.
</event>
<event>
 8    1  0.1132255E+005  0.1043930E+01  0.7957747E-01            NaN
         13   -1    0    0    0    0  0.00000000000E+00  0.00000000000E+00  0.74505805969E-08  0.10566000000E+00  0.10566000000E+00 0.  1.
     999900   -1    0    0    0    0 -0.00000000000E+00 -0.00000000000E+00 -0.74505805969E-08  0.93827000000E+00  0.93827000000E+00 0. -1.
     999902    2    1    2    0    0  0.19186622371E-01 -0.97755609610E-02  0.10125601259E-01  0.10201347091E+01  0.10198571512E+01 0.  0.
     999903    2    3    3    0    0  0.37474014025E-01 -0.11287621006E+00  0.55629586388E-01  0.13275948673E+00  0.19623707855E-01 0.  0.
         14    1    1    2    0    0 -0.19186622371E-01  0.97755609610E-02 -0.10125601259E-01  0.23795290941E-01  0.00000000000E+00 0. -1.
     999901    1    3    3    0    0 -0.18287391654E-01  0.10310064910E+00 -0.45503985129E-01  0.88737522233E+00  0.88000000000E+00 0. -1.
        -11    1    4    4    0    0  0.23818249898E-01 -0.47936420475E-01  0.18024108492E-01  0.56483086354E-01  0.51100000000E-03 0.  1.
         11    1    4    4    0    0  0.13655764127E-01 -0.64939789588E-01  0.37605477896E-01  0.76276400377E-01  0.51100000000E-03 0. -1.
</event>
<event>
 8    1  0.1132255E+005  0.1043930E+01  0.7957747E-01            NaN
         13   -1    0    0    0    0  0.00000000000E+00  0.00000000000E+00  0.74505805969E-08  0.10566000000E+00  0.10566000000E+00 0.  1.
     999900   -1    0    0    0    0 -0.00000000000E+00 -0.00000000000E+00 -0.74505805969E-08  0.93827000000E+00  0.93827000000E+00 0. -1.
     999902    2    1    2    0    0 -0.21930979053E-03 -0.25710727276E-01 -0.22295910831E-01  0.10098977031E+01  0.10093241171E+01 0.  0.
     999903    2    3    3    0    0  0.22934161832E-01  0.11410335309E+00  0.42097317444E-02  0.11816533886E+00  0.19994361729E-01 0.  0.
         14    1    1    2    0    0  0.21930979053E-03  0.25710727276E-01  0.22295910831E-01  0.34032296920E-01  0.00000000000E+00 0.  1.
     999901    1    3    3    0    0 -0.23153471623E-01 -0.13981408036E+00 -0.26505642576E-01  0.89173236422E+00  0.88000000000E+00 0.  1.
        -11    1    4    4    0    0  0.43157072492E-03  0.20339584182E-01  0.74816998519E-02  0.21682294428E-01  0.51100000000E-03 0. -1.
         11    1    4    4    0    0  0.22502591107E-01  0.93763768905E-01 -0.32719681075E-02  0.96483044428E-01  0.51100000000E-03 0.  1.
</event>
<event>
 8    1  0.1132255E+005  0.1043930E+01  0.7957747E-01            NaN
         13   -1    0    0    0    0  0.00000000000E+00  0.00000000000E+00  0.74505805969E-08  0.10566000000E+00  0.10566000000E+00 0.  1.
     999900   -1    0    0    0    0 -0.00000000000E+00 -0.00000000000E+00 -0.74505805969E-08  0.93827000000E+00  0.93827000000E+00 0. -1.
     999902    2    1    2    0    0  0.12566193781E-01  0.63367236952E-02  0.10234699143E-01  0.10265284955E+01  0.10263809915E+01 0.  0.
     999903    2    3    3    0    0 -0.12801874214E+00 -0.15172059788E-01  0.33701519159E-01  0.13480127058E+00  0.20410791720E-01 0.  0.
         14    1    1    2    0    0 -0.12566193781E-01 -0.63367236952E-02 -0.10234699143E-01  0.17401504530E-01  0.00000000000E+00 0.  1.
     999901    1    3    3    0    0  0.14058493592E+00  0.21508783483E-01 -0.23466820015E-01  0.89172722489E+00  0.88000000000E+00 0. -1.
        -11    1    4    4    0    0 -0.66013157602E-01 -0.18035048035E-01  0.16745646305E-01  0.70453372705E-01  0.51100000000E-03 0. -1.
         11    1    4    4    0    0 -0.62005584536E-01  0.28629882476E-02  0.16955872854E-01  0.64347897872E-01  0.51100000000E-03 0.  1.
</event>
<event>
 8    1  0.1132255E+005  0.1043930E+01  0.7957747E-01            NaN
         13   -1    0    0    0    0  0.00000000000E+00  0.00000000000E+00  0.74505805969E-08  0.10566000000E+00  0.10566000000E+00 0. -1.
     999900   -1    0    0    0    0 -0.00000000000E+00 -0.00000000000E+00 -0.74505805969E-08  0.93827000000E+00  0.93827000000E+00 0.  1.
     999902    2    1    2    0    0 -0.23811720777E-01  0.12495595931E-01  0.57616855341E-02  0.10164284549E+01  0.10160563316E+01 0.  0.
     999903    2    3    3    0    0  0.10680843543E+00  0.59562940707E-01  0.20043859772E-01  0.12542848818E+00  0.19358810625E-01 0.  0.
         14    1    1    2    0    0  0.23811720777E-01 -0.12495595931E-01 -0.57616855341E-02  0.27501545124E-01  0.00000000000E+00 0.  1.
     999901    1    3    3    0    0 -0.13062015620E+00 -0.47067344776E-01 -0.14282174238E-01  0.89099996670E+00  0.88000000000E+00 0. -1.
        -11    1    4    4    0    0  0.86910465251E-01  0.55913591656E-01  0.19605527878E-01  0.10518743531E+00  0.51100000000E-03 0.  1.
         11    1    4    4    0    0  0.19897970175E-01  0.36493490506E-02  0.43833189490E-03  0.20241052873E-01  0.51100000000E-03 0. -1.
</event>
<event>
 8    1  0.1132255E+005  0.1043930E+01  0.7957747E-01            NaN
         13   -1    0    0    0    0  0.00000000000E+00  0.00000000000E+00  0.74505805969E-08  0.10566000000E+00  0.10566000000E+00 0. -1.
     999900   -1    0    0    0    0 -0.00000000000E+00 -0.00000000000E+00 -0.74505805969E-08  0.93827000000E+00  0.93827000000E+00 0.  1.
     999902    2    1    2    0    0  0.19799380117E-01  0.28542917260E-02 -0.10971562655E-01  0.10211147064E+01  0.10208597876E+01 0.  0.
     999903    2    3    3    0    0  0.19846152523E-01 -0.12283459146E+00 -0.38079562090E-01  0.13177082401E+00  0.20767531900E-01 0.  0.
         14    1    1    2    0    0 -0.19799380117E-01 -0.28542917260E-02  0.10971562655E-01  0.22815293585E-01  0.00000000000E+00 0. -1.
     999901    1    3    3    0    0 -0.46772405477E-04  0.12568888319E+00  0.27107999435E-01  0.88934388241E+00  0.88000000000E+00 0.  1.
        -11    1    4    4    0    0  0.49535300582E-02 -0.74292363162E-01 -0.30354416491E-01  0.80408609028E-01  0.51100000000E-03 0. -1.
         11    1    4    4    0    0  0.14892622464E-01 -0.48542228298E-01 -0.77251455993E-02  0.51362214979E-01  0.51100000000E-03 0.  1.
</event>
<event>
 8    1  0.1132255E+005  0.1043930E+01  0.7957747E-01            NaN
         13   -1    0    0    0    0  0.00000000000E+00  0.00000000000E+00  0.74505805969E-08  0.10566000000E+00  0.10566000000E+00 0.  1.
     999900   -1    0    0    0    0 -0.00000000000E+00 -0.00000000000E+00 -0.74505805969E-08  0.93827000000E+00  0.93827000000E+00 0.  1.
     999902    2    1    2    0    0 -0.89538730990E-02 -0.12730530615E-01 -0.21553809241E-01  0.10173441965E+01  0.10169967597E+01 0.  0.
     999903    2    3    3    0    0 -0.80282847914E-02 -0.33913177277E-01 -0.12472192940E+00  0.13106364149E+00  0.20188152416E-01 0.  0.
         14    1    1    2    0    0  0.89538730990E-02  0.12730530615E-01  0.21553809241E-01  0.26585803467E-01  0.00000000000E+00 0.  1.
     999901    1    3    3    0    0 -0.92558830761E-03  0.21182646662E-01  0.10316812016E+00  0.88628055504E+00  0.88000000000E+00 0. -1.
        -11    1    4    4    0    0  0.49906332871E-02 -0.20975815714E-01 -0.58725353365E-01  0.62560526807E-01  0.51100000000E-03 0.  1.
         11    1    4    4    0    0 -0.13018918079E-01 -0.12937361562E-01 -0.65996576032E-01  0.68503114681E-01  0.51100000000E-03 0. -1.
</event>
<event>
 8    1  0.1132255E+005  0.1043930E+01  0.7957747E-01            NaN
         13   -1    0    0    0    0  0.00000000000E+00  0.00000000000E+00  0.74505805969E-08  0.10566000000E+00  0.10566000000E+00 0. -1.
     999900   -1    0    0    0    0 -0.00000000000E+00 -0.00000000000E+00 -0.74505805969E-08  0.93827000000E+00  0.93827000000E+00 0. -1.
     999902    2    1    2    0    0  0.57053267416E-02  0.11123438335E-01 -0.18058049685E-01  0.10219669676E+01  0.10217309372E+01 0.  0.
     999903    2    3    3    0    0 -0.65802966283E-02 -0.12855756968E+00 -0.61435392159E-02  0.13078591075E+00  0.22290409372E-01 0.  0.
         14    1    1    2    0    0 -0.57053267416E-02 -0.11123438335E-01  0.18058049685E-01  0.21963032397E-01  0.00000000000E+00 0. -1.
     999901    1    3    3    0    0  0.12285623370E-01  0.13968100801E+00 -0.11914510469E-01  0.89118105686E+00  0.88000000000E+00 0. -1.
        -11    1    4    4    0    0 -0.12760296717E-01 -0.10416209241E+00 -0.28747847966E-03  0.10494241484E+00  0.51100000000E-03 0.  1.
         11    1    4    4    0    0  0.61800000885E-02 -0.24395477265E-01 -0.58560607363E-02  0.25843495902E-01  0.51100000000E-03 0. -1.
</event>
<event>
 8    1  0.1132255E+005  0.1043930E+01  0.7957747E-01            NaN
         13   -1    0    0    0    0  0.00000000000E+00  0.00000000000E+00  0.74505805969E-08  0.10566000000E+00  0.10566000000E+00 0.  1.
     999900   -1    0    0    0    0 -0.00000000000E+00 -0.00000000000E+00 -0.74505805969E-08  0.93827000000E+00  0.93827000000E+00 0. -1.
     999902    2    1    2    0    0 -0.85164060207E-03 -0.19551909048E-01 -0.14300411574E-01  0.10196915139E+01  0.10194033938E+01 0.  0.
     999903    2    3    3    0    0  0.49102375534E-01 -0.80557689315E-02 -0.12067246439E+00  0.13180493406E+00  0.18296400879E-01 0.  0.
         14    1    1    2    0    0  0.85164060207E-03  0.19551909048E-01  0.14300411574E-01  0.24238486139E-01  0.00000000000E+00 0. -1.
     999901    1    3    3    0    0 -0.49954016136E-01 -0.11496140117E-01  0.10637205282E+00  0.88788657980E+00  0.88000000000E+00 0.  1.
        -11    1    4    4    0    0  0.34562721045E-01  0.17341459089E-02 -0.90706870120E-01  0.97085459035E-01  0.51100000000E-03 0. -1.
         11    1    4    4    0    0  0.14539654488E-01 -0.97899148405E-02 -0.29965594270E-01  0.34719475028E-01  0.51100000000E-03 0.  1.
</event>
<event>
 8    1  0.1132255E+005  0.1043930E+01  0.7957747E-01            NaN
         13   -1    0    0    0    0  0.00000000000E+00  0.00000000000E+00  0.74505805969E-08  0.10566000000E+00  0.10566000000E+00 0. -1.
     999900   -1    0    0    0    0 -0.00000000000E+00 -0.00000000000E+00 -0.74505805969E-08  0.93827000000E+00  0.93827000000E+00 0.  1.
     999902    2    1    2    0    0  0.12877983540E-01 -0.93072885095E-02 -0.18123539243E-01  0.10198274949E+01  0.10195426369E+01 0.  0.
     999903    2    3    3    0    0  0.72508552774E-01 -0.73470468191E-01 -0.81806731041E-01  0.13318874805E+00  0.19786395407E-01 0.  0.
         14    1    1    2    0    0 -0.12877983540E-01  0.93072885095E-02  0.18123539243E-01  0.24102505143E-01  0.00000000000E+00 0.  1.
     999901    1    3    3    0    0 -0.59630569234E-01  0.64163179682E-01  0.63683191798E-01  0.88663874680E+00  0.88000000000E+00 0. -1.
        -11    1    4    4    0    0  0.47289695753E-01 -0.34922532008E-01 -0.50379599683E-01  0.77422630745E-01  0.51100000000E-03 0.  1.
         11    1    4    4    0    0  0.25218857021E-01 -0.38547936183E-01 -0.31427131358E-01  0.55766117310E-01  0.51100000000E-03 0. -1.
</event>
<event>
 8    1  0.1132255E+005  0.1043930E+01  0.7957747E-01            NaN
         13   -1    0    0    0    0  0.00000000000E+00  0.00000000000E+00  0.74505805969E-08  0.10566000000E+00  0.10566000000E+00 0. -1.
     999900   -1    0    0    0    0 -0.00000000000E+00 -0.00000000000E+00 -0.74505805969E-08  0.93827000000E+00  0.93827000000E+00 0.  1.
     999902    2    1    2    0    0 -0.18158651427E-01  0.59925284674E-03  0.15466718232E-01  0.10200696752E+01  0.10197905801E+01 0.  0.
     999903    2    3    3    0    0  0.10338793018E+00  0.16534287393E-02 -0.71676741354E-01  0.12745068297E+00  0.20354935637E-01 0.  0.
         14    1    1    2    0    0  0.18158651427E-01 -0.59925284674E-03 -0.15466718232E-01  0.23860324777E-01  0.00000000000E+00 0.  1.
     999901    1    3    3    0    0 -0.12154658160E+00 -0.10541758925E-02  0.87143459586E-01  0.89261899226E+00  0.88000000000E+00 0. -1.
        -11    1    4    4    0    0  0.77080681432E-01  0.89342810565E-02 -0.58236953873E-01  0.97020908806E-01  0.51100000000E-03 0.  1.
         11    1    4    4    0    0  0.26307248745E-01 -0.72808523172E-02 -0.13439787480E-01  0.30429774161E-01  0.51100000000E-03 0. -1.
</event>
<event>
 8    1  0.1132255E+005  0.1043930E+01  0.7957747E-01            NaN
         13   -1    0    0    0    0  0.00000000000E+00  0.00000000000E+00  0.74505805969E-08  0.10566000000E+00  0.10566000000E+00 0. -1.
     999900   -1    0    0    0    0 -0.00000000000E+00 -0.00000000000E+00 -0.74505805969E-08  0.93827000000E+00  0.93827000000E+00 0. -1.
     999902    2    1    2    0    0 -0.23255804631E-02  0.32664181018E-02  0.24050221323E-01  0.10195478148E+01  0.10192562267E+01 0.  0.
     999903    2    3    3    0    0  0.69359659483E-01 -0.58495283566E-01 -0.87212721435E-01  0.12750929325E+00  0.20496353862E-01 0.  0.
         14    1    1    2    0    0  0.23255804631E-02 -0.32664181018E-02 -0.24050221323E-01  0.24382185246E-01  0.00000000000E+00 0.  1.
     999901    1    3    3    0    0 -0.71685239946E-01  0.61761701667E-01  0.11126294276E+00  0.89203852151E+00  0.88000000000E+00 0.  1.
        -11    1    4    4    0    0  0.50978065598E-01 -0.42708865211E-01 -0.75427515329E-01  0.10056033776E+00  0.51100000000E-03 0.  1.
         11    1    4    4    0    0  0.18381593885E-01 -0.15786418354E-01 -0.11785206106E-01  0.26948955493E-01  0.51100000000E-03 0. -1.
</event>
<event>
 8    1  0.1132255E+005  0.1043930E+01  0.7957747E-01            NaN
         13   -1    0    0    0    0  0.00000000000E+00  0.00000000000E+00  0.74505805969E-08  0.10566000000E+00  0.10566000000E+00 0. -1.
     999900   -1    0    0    0    0 -0.00000000000E+00 -0.00000000000E+00 -0.74505805969E-08  0.93827000000E+00  0.93827000000E+00 0. -1.
     999902    2    1    2    0    0 -0.19026547721E-01  0.13010768335E-01 -0.53069535280E-02  0.10202772334E+01  0.10200030293E+01 0.  0.
     999903    2    3    3    0    0 -0.40690335017E-01 -0.10402612933E+00  0.62866677531E-01  0.12965127430E+00  0.19496021025E-01 0.  0.
         14    1    1    2    0    0  0.19026547721E-01 -0.13010768335E-01  0.53069535280E-02  0.23652766574E-01  0.00000000000E+00 0. -1.
     999901    1    3    3    0    0  0.21663787297E-01  0.11703689767E+00 -0.68173631059E-01  0.89062595913E+00  0.88000000000E+00 0. -1.
        -11    1    4    4    0    0 -0.29219634186E-02 -0.30770680936E-01  0.18982019019E-01  0.36276036753E-01  0.51100000000E-03 0. -1.
         11    1    4    4    0    0 -0.37768371599E-01 -0.73255448399E-01  0.43884658513E-01  0.93375237548E-01  0.51100000000E-03 0.  1.
</event>
<event>
 8    1  0.1132255E+005  0.1043930E+01  0.7957747E-01            NaN
         13   -1    0    0    0    0  0.00000000000E+00  0.00000000000E+00  0.74505805969E-08  0.10566000000E+00  0.10566000000E+00 0.  1.
     999900   -1    0    0    0    0 -0.00000000000E+00 -0.00000000000E+00 -0.74505805969E-08  0.93827000000E+00  0.93827000000E+00 0.  1.
     999902    2    1    2    0    0  0.21703928617E-01 -0.58932459111E-02  0.76662015097E-02  0.10201694968E+01  0.10198927594E+01 0.  0.
     999903    2    3    3    0    0 -0.14978919483E-01 -0.96018261483E-01  0.86039813745E-01  0.13134410742E+00  0.20113439259E-01 0.  0.
         14    1    1    2    0    0 -0.21703928617E-01  0.58932459111E-02 -0.76662015097E-02  0.23760503159E-01  0.00000000000E+00 0. -1.
     999901    1    3    3    0    0  0.36682848100E-01  0.90125015572E-01 -0.78373612235E-01  0.88882538942E+00  0.88000000000E+00 0.  1.
        -11    1    4    4    0    0 -0.70803350275E-02 -0.31546413970E-01  0.41385435574E-01  0.52519737024E-01  0.51100000000E-03 0. -1.
         11    1    4    4    0    0 -0.78985844558E-02 -0.64471847514E-01  0.44654378171E-01  0.78824370400E-01  0.51100000000E-03 0.  1.
</event>
<event>
 7    1  0.1132255E+005  0.1043930E+01  0.7957747E-01            NaN
         13   -1    0    0    0    0  0.00000000000E+00  0.00000000000E+00  0.74505805969E-08  0.10566000000E+00  0.10566000000E+00 0.  1.
     999900   -1    0    0    0    0 -0.00000000000E+00 -0.00000000000E+00 -0.74505805969E-08  0.93827000000E+00  0.93827000000E+00 0. -1.
     999903    2    1    2    0    0  0.10049459601E+00 -0.14680521010E-01  0.23873350721E-01  0.10626681906E+00  0.20199466187E-01 0.  0.
         14    1    1    2    0    0  0.42161959843E-01  0.14680050963E-01 -0.11446383361E-01  0.46088550055E-01  0.00000000000E+00 0.  1.
     999901    1    1    2    0    0 -0.14265655585E+00  0.47004694585E-06 -0.12426967360E-01  0.89157463089E+00  0.88000000000E+00 0. -1.
        -11    1    3    3    0    0  0.88923259201E-01 -0.64915859036E-02  0.18262813801E-01  0.91012516740E-01  0.51100000000E-03 0.  1.
         11    1    3    3    0    0  0.11571336805E-01 -0.81889351064E-02  0.56105369197E-02  0.15254302316E-01  0.51100000000E-03 0. -1.
</event>
<event>
 8    1  0.1132255E+005  0.1043930E+01  0.7957747E-01            NaN
         13   -1    0    0    0    0  0.00000000000E+00  0.00000000000E+00  0.74505805969E-08  0.10566000000E+00  0.10566000000E+00 0. -1.
     999900   -1    0    0    0    0 -0.00000000000E+00 -0.00000000000E+00 -0.74505805969E-08  0.93827000000E+00  0.93827000000E+00 0. -1.
     999902    2    1    2    0    0  0.92627581761E-02  0.17498133862E-01  0.12765959000E-01  0.10203725577E+01  0.10201005850E+01 0.  0.
     999903    2    3    3    0    0 -0.82739814948E-01 -0.48172845409E-01  0.85681252892E-01  0.13015135427E+00  0.20774934643E-01 0.  0.
         14    1    1    2    0    0 -0.92627581761E-02 -0.17498133862E-01 -0.12765959000E-01  0.23557442282E-01  0.00000000000E+00 0.  1.
     999901    1    3    3    0    0  0.92002573124E-01  0.65670979270E-01 -0.72915293892E-01  0.89022120345E+00  0.88000000000E+00 0. -1.
        -11    1    4    4    0    0 -0.49749771180E-01 -0.35793161516E-01  0.43348288269E-01  0.75070136278E-01  0.51100000000E-03 0. -1.
         11    1    4    4    0    0 -0.32990043768E-01 -0.12379683892E-01  0.42332964623E-01  0.55081217995E-01  0.51100000000E-03 0.  1.
</event>
<event>
 8    1  0.1132255E+005  0.1043930E+01  0.7957747E-01            NaN
         13   -1    0    0    0    0  0.00000000000E+00  0.00000000000E+00  0.74505805969E-08  0.10566000000E+00  0.10566000000E+00 0. -1.
     999900   -1    0    0    0    0 -0.00000000000E+00 -0.00000000000E+00 -0.74505805969E-08  0.93827000000E+00  0.93827000000E+00 0.  1.
     999902    2    1    2    0    0  0.22434472972E-01  0.28377103413E-02 -0.56945557008E-02  0.10206107774E+01  0.10203443403E+01 0.  0.
     999903    2    3    3    0    0 -0.13382726055E-01  0.93103047775E-01  0.88036138639E-01  0.13032085500E+00  0.19644049466E-01 0.  0.
         14    1    1    2    0    0 -0.22434472972E-01 -0.28377103413E-02  0.56945557008E-02  0.23319222589E-01  0.00000000000E+00 0. -1.
     999901    1    3    3    0    0  0.35817199027E-01 -0.90265337434E-01 -0.93730694340E-01  0.89028992241E+00  0.88000000000E+00 0.  1.
        -11    1    4    4    0    0 -0.82709913698E-02  0.87197227407E-01  0.84590468332E-01  0.12176852721E+00  0.51100000000E-03 0.  1.
         11    1    4    4    0    0 -0.51117346849E-02  0.59058203680E-02  0.34456703076E-02  0.85523277870E-02  0.51100000000E-03 0. -1.
</event>
<event>
 8    1  0.1132255E+005  0.1043930E+01  0.7957747E-01            NaN
         13   -1    0    0    0    0  0.00000000000E+00  0.00000000000E+00  0.74505805969E-08  0.10566000000E+00  0.10566000000E+00 0.  1.
     999900   -1    0    0    0    0 -0.00000000000E+00 -0.00000000000E+00 -0.74505805969E-08  0.93827000000E+00  0.93827000000E+00 0.  1.
     999902    2    1    2    0    0 -0.18647347459E-01  0.11445173233E-01  0.88534235634E-02  0.10203270623E+01  0.10200540258E+01 0.  0.
     999903    2    3    3    0    0  0.89466556332E-01 -0.66857472174E-01 -0.58720120057E-01  0.12769830173E+00  0.19611666850E-01 0.  0.
         14    1    1    2    0    0  0.18647347459E-01 -0.11445173233E-01 -0.88534235634E-02  0.23602937664E-01  0.00000000000E+00 0.  1.
     999901    1    3    3    0    0 -0.10811390379E+00  0.78302645408E-01  0.67573543620E-01  0.89262876061E+00  0.88000000000E+00 0.  1.
        -11    1    4    4    0    0  0.10523286373E-01 -0.17030696079E-01 -0.11203843656E-01  0.22947143585E-01  0.51100000000E-03 0. -1.
         11    1    4    4    0    0  0.78943269959E-01 -0.49826776095E-01 -0.47516276401E-01  0.10475115814E+00  0.51100000000E-03 0.  1.
</event>
<event>
 8    1  0.1132255E+005  0.1043930E+01  0.7957747E-01            NaN
         13   -1    0    0    0    0  0.00000000000E+00  0.00000000000E+00  0.74505805969E-08  0.10566000000E+00  0.10566000000E+00 0.  1.
     999900   -1    0    0    0    0 -0.00000000000E+00 -0.00000000000E+00 -0.74505805969E-08  0.93827000000E+00  0.93827000000E+00 0.  1.
     999902    2    1    2    0    0  0.19707033810E-01  0.39658704590E-02  0.13493135142E-01  0.10197192585E+01  0.10194318055E+01 0.  0.
     999903    2    3    3    0    0 -0.12255146144E+00 -0.34341250736E-02 -0.28882691198E-01  0.12725752255E+00  0.18155254824E-01 0.  0.
         14    1    1    2    0    0 -0.19707033810E-01 -0.39658704590E-02 -0.13493135142E-01  0.24210741542E-01  0.00000000000E+00 0. -1.
     999901    1    3    3    0    0  0.14225849525E+00  0.73999955325E-02  0.42375826340E-01  0.89246173591E+00  0.88000000000E+00 0. -1.
        -11    1    4    4    0    0 -0.50182571030E-01 -0.49183641760E-02 -0.34872051998E-02  0.50546042995E-01  0.51100000000E-03 0. -1.
         11    1    4    4    0    0 -0.72368890411E-01  0.14842391024E-02 -0.25395485999E-01  0.76711479553E-01  0.51100000000E-03 0.  1.
</event>
<event>
 8    1  0.1132255E+005  0.1043930E+01  0.7957747E-01            NaN
         13   -1    0    0    0    0  0.00000000000E+00  0.00000000000E+00  0.74505805969E-08  0.10566000000E+00  0.10566000000E+00 0. -1.
     999900   -1    0    0    0    0 -0.00000000000E+00 -0.00000000000E+00 -0.74505805969E-08  0.93827000000E+00  0.93827000000E+00 0. -1.
     999902    2    1    2    0    0 -0.55879399285E-02 -0.21223499680E-01  0.10835235814E-01  0.10194542090E+01  0.10191603504E+01 0.  0.
     999903    2    3    3    0    0  0.96357934453E-01  0.74395978265E-01 -0.33763610078E-01  0.12730786284E+00  0.15738407184E-01 0.  0.
         14    1    1    2    0    0  0.55879399285E-02  0.21223499680E-01 -0.10835235814E-01  0.24475791028E-01  0.00000000000E+00 0.  1.
     999901    1    3    3    0    0 -0.10194587438E+00 -0.95619477945E-01  0.44598845892E-01  0.89214634613E+00  0.88000000000E+00 0.  1.
        -11    1    4    4    0    0  0.50874099135E-01  0.44209689585E-01 -0.25648000592E-01  0.72116237224E-01  0.51100000000E-03 0.  1.
         11    1    4    4    0    0  0.45483835318E-01  0.30186288680E-01 -0.81156094860E-02  0.55191625613E-01  0.51100000000E-03 0. -1.
</event>
<event>
 8    1  0.1132255E+005  0.1043930E+01  0.7957747E-01            NaN
         13   -1    0    0    0    0  0.00000000000E+00  0.00000000000E+00  0.74505805969E-08  0.10566000000E+00  0.10566000000E+00 0.  1.
     999900   -1    0    0    0    0 -0.00000000000E+00 -0.00000000000E+00 -0.74505805969E-08  0.93827000000E+00  0.93827000000E+00 0.  1.
     999902    2    1    2    0    0  0.18178857001E-01  0.26902832320E-02  0.12695240864E-01  0.10215944318E+01  0.10213502365E+01 0.  0.
     999903    2    3    3    0    0 -0.74686414101E-01 -0.39329948360E-01  0.98696224895E-01  0.13154621531E+00  0.20941744550E-01 0.  0.
         14    1    1    2    0    0 -0.18178857001E-01 -0.26902832320E-02 -0.12695240864E-01  0.22335568189E-01  0.00000000000E+00 0. -1.
     999901    1    3    3    0    0  0.92865271102E-01  0.42020231592E-01 -0.86000984031E-01  0.89004821650E+00  0.88000000000E+00 0.  1.
        -11    1    4    4    0    0 -0.58326440441E-01 -0.38835533988E-01  0.85276695262E-01  0.11037458145E+00  0.51100000000E-03 0.  1.
         11    1    4    4    0    0 -0.16359973660E-01 -0.49441437187E-03  0.13419529633E-01  0.21171633860E-01  0.51100000000E-03 0. -1.
</event>
<event>
 8    1  0.1132255E+005  0.1043930E+01  0.7957747E-01            NaN
         13   -1    0    0    0    0  0.00000000000E+00  0.00000000000E+00  0.74505805969E-08  0.10566000000E+00  0.10566000000E+00 0. -1.
     999900   -1    0    0    0    0 -0.00000000000E+00 -0.00000000000E+00 -0.74505805969E-08  0.93827000000E+00  0.93827000000E+00 0.  1.
     999902    2    1    2    0    0  0.10588082304E-01  0.16176900710E-01 -0.12412414260E-01  0.10209546299E+01  0.10206960805E+01 0.  0.
     999903    2    3    3    0    0  0.54522573565E-02 -0.12693143063E+00 -0.12678578559E-01  0.12937937114E+00  0.20903591289E-01 0.  0.
         14    1    1    2    0    0 -0.10588082304E-01 -0.16176900710E-01  0.12412414260E-01  0.22975370099E-01  0.00000000000E+00 0. -1.
     999901    1    3    3    0    0  0.51358249474E-02  0.14310833134E+00  0.26616429951E-03  0.89157525876E+00  0.88000000000E+00 0. -1.
        -11    1    4    4    0    0 -0.27505496247E-02 -0.80746387776E-01 -0.35366956734E-04  0.80794845343E-01  0.51100000000E-03 0. -1.
         11    1    4    4    0    0  0.82028069812E-02 -0.46185042856E-01 -0.12643211603E-01  0.48584525793E-01  0.51100000000E-03 0.  1.
</event>
<event>
 8    1  0.1132255E+005  0.1043930E+01  0.7957747E-01            NaN
         13   -1    0    0    0    0  0.00000000000E+00  0.00000000000E+00  0.74505805969E-08  0.10566000000E+00  0.10566000000E+00 0.  1.
     999900   -1    0    0    0    0 -0.00000000000E+00 -0.00000000000E+00 -0.74505805969E-08  0.93827000000E+00  0.93827000000E+00 0.  1.
     999902    2    1    2    0    0  0.24546737676E-02  0.22353022648E-01 -0.50439306940E-02  0.10208838662E+01  0.10206237035E+01 0.  0.
     999903    2    3    3    0    0  0.50213201952E-01  0.97050727519E-01  0.73085660272E-01  0.13298474071E+00  0.20080292846E-01 0.  0.
         14    1    1    2    0    0 -0.24546737676E-02 -0.22353022648E-01  0.50439306940E-02  0.23046133768E-01  0.00000000000E+00 0.  1.
     999901    1    3    3    0    0 -0.47758528184E-01 -0.74697704871E-01 -0.78129590966E-01  0.88789912553E+00  0.88000000000E+00 0.  1.
        -11    1    4    4    0    0  0.26444629094E-01  0.57600536205E-01  0.30851130899E-01  0.70492507245E-01  0.51100000000E-03 0.  1.
         11    1    4    4    0    0  0.23768572858E-01  0.39450191314E-01  0.42234529373E-01  0.62492233460E-01  0.51100000000E-03 0. -1.
</event>
<event>
 8    1  0.1132255E+005  0.1043930E+01  0.7957747E-01            NaN
         13   -1    0    0    0    0  0.00000000000E+00  0.00000000000E+00  0.74505805969E-08  0.10566000000E+00  0.10566000000E+00 0. -1.
     999900   -1    0    0    0    0 -0.00000000000E+00 -0.00000000000E+00 -0.74505805969E-08  0.93827000000E+00  0.93827000000E+00 0.  1.
     999902    2    1    2    0    0 -0.82847535074E-03 -0.16769930467E-01  0.13642595877E-01  0.10222958288E+01  0.10220668884E+01 0.  0.
     999903    2    3    3    0    0  0.41575295849E-02 -0.10729282661E+00  0.79674889801E-01  0.13517716778E+00  0.19893288568E-01 0.  0.
         14    1    1    2    0    0  0.82847535074E-03  0.16769930467E-01 -0.13642595877E-01  0.21634171155E-01  0.00000000000E+00 0.  1.
     999901    1    3    3    0    0 -0.49860049356E-02  0.90522896141E-01 -0.66032293924E-01  0.88711866107E+00  0.88000000000E+00 0.  1.
        -11    1    4    4    0    0  0.73788297997E-02 -0.81498590640E-01  0.50787488528E-01  0.96312499280E-01  0.51100000000E-03 0.  1.
         11    1    4    4    0    0 -0.32213002148E-02 -0.25794235969E-01  0.28887401272E-01  0.38864668499E-01  0.51100000000E-03 0. -1.
</event>
<event>
 8    1  0.1132255E+005  0.1043930E+01  0.7957747E-01            NaN
         13   -1    0    0    0    0  0.00000000000E+00  0.00000000000E+00  0.74505805969E-08  0.10566000000E+00  0.10566000000E+00 0. -1.
     999900   -1    0    0    0    0 -0.00000000000E+00 -0.00000000000E+00 -0.74505805969E-08  0.93827000000E+00  0.93827000000E+00 0. -1.
     999902    2    1    2    0    0  0.54885403158E-02  0.11711741200E-02 -0.22863776771E-01  0.10203875275E+01  0.10201159043E+01 0.  0.
     999903    2    3    3    0    0 -0.46816834304E-01 -0.10047102108E+00 -0.68411111000E-01  0.13182602275E+00  0.20292316631E-01 0.  0.
         14    1    1    2    0    0 -0.54885403158E-02 -0.11711741200E-02  0.22863776771E-01  0.23542472510E-01  0.00000000000E+00 0. -1.
     999901    1    3    3    0    0  0.52305374620E-01  0.10164219520E+00  0.45547334228E-01  0.88856150474E+00  0.88000000000E+00 0.  1.
        -11    1    4    4    0    0 -0.35511988811E-01 -0.73695762360E-01 -0.60354730601E-01  0.10166179895E+00  0.51100000000E-03 0. -1.
         11    1    4    4    0    0 -0.11304845492E-01 -0.26775258717E-01 -0.80563803989E-02  0.30164223795E-01  0.51100000000E-03 0.  1.
</event>
<event>
 8    1  0.1132255E+005  0.1043930E+01  0.7957747E-01            NaN
         13   -1    0    0    0    0  0.00000000000E+00  0.00000000000E+00  0.74505805969E-08  0.10566000000E+00  0.10566000000E+00 0.  1.
     999900   -1    0    0    0    0 -0.00000000000E+00 -0.00000000000E+00 -0.74505805969E-08  0.93827000000E+00  0.93827000000E+00 0. -1.
     999902    2    1    2    0    0 -0.12229686509E-01  0.13887061618E-01  0.16123358077E-01  0.10193866019E+01  0.10190910979E+01 0.  0.
     999903    2    3    3    0    0 -0.63525916096E-01  0.92001314563E-01  0.69080048226E-01  0.13285541202E+00  0.19460820683E-01 0.  0.
         14    1    1    2    0    0  0.12229686509E-01 -0.13887061618E-01 -0.16123358077E-01  0.24543398057E-01  0.00000000000E+00 0. -1.
     999901    1    3    3    0    0  0.51296229587E-01 -0.78114252944E-01 -0.52956690149E-01  0.88653118993E+00  0.88000000000E+00 0. -1.
        -11    1    4    4    0    0 -0.76399228997E-02  0.14153534639E-01  0.27949729329E-02  0.16332910316E-01  0.51100000000E-03 0.  1.
         11    1    4    4    0    0 -0.55885993196E-01  0.77847779924E-01  0.66285075293E-01  0.11652250170E+00  0.51100000000E-03 0. -1.
</event>
<event>
 8    1  0.1132255E+005  0.1043930E+01  0.7957747E-01            NaN
         13   -1    0    0    0    0  0.00000000000E+00  0.00000000000E+00  0.74505805969E-08  0.10566000000E+00  0.10566000000E+00 0.  1.
     999900   -1    0    0    0    0 -0.00000000000E+00 -0.00000000000E+00 -0.74505805969E-08  0.93827000000E+00  0.93827000000E+00 0. -1.
     999902    2    1    2    0    0  0.67480627908E-02 -0.11634948529E-01 -0.19647087521E-01  0.10201199931E+01  0.10198420878E+01 0.  0.
     999903    2    3    3    0    0 -0.41365501611E-01  0.10843602965E+00 -0.52458588575E-01  0.13005901237E+00  0.26343233173E-01 0.  0.
         14    1    1    2    0    0 -0.67480627908E-02  0.11634948529E-01  0.19647087521E-01  0.23810006862E-01  0.00000000000E+00 0.  1.
     999901    1    3    3    0    0  0.48113564402E-01 -0.12007097818E+00  0.32811501053E-01  0.89006098077E+00  0.88000000000E+00 0.  1.
        -11    1    4    4    0    0 -0.13083318287E-01  0.69786978194E-01 -0.34072980869E-01  0.78756743769E-01  0.51100000000E-03 0. -1.
         11    1    4    4    0    0 -0.28282183324E-01  0.38649051457E-01 -0.18385607705E-01  0.51302268603E-01  0.51100000000E-03 0.  1.
</event>
<event>
 8    1  0.1132255E+005  0.1043930E+01  0.7957747E-01            NaN
         13   -1    0    0    0    0  0.00000000000E+00  0.00000000000E+00  0.74505805969E-08  0.10566000000E+00  0.10566000000E+00 0.  1.
     999900   -1    0    0    0    0 -0.00000000000E+00 -0.00000000000E+00 -0.74505805969E-08  0.93827000000E+00  0.93827000000E+00 0. -1.
     999902    2    1    2    0    0  0.13610862036E-01 -0.57120989289E-02 -0.18948632819E-01  0.10199105428E+01  0.10196276678E+01 0.  0.
     999903    2    3    3    0    0  0.18318926691E-01 -0.12835446893E+00 -0.28085321502E-02  0.13124647822E+00  0.20181610984E-01 0.  0.
         14    1    1    2    0    0 -0.13610862036E-01  0.57120989289E-02  0.18948632819E-01  0.24019457222E-01  0.00000000000E+00 0.  1.
     999901    1    3    3    0    0 -0.47080646550E-02  0.12264237000E+00 -0.16140100668E-01  0.88866406456E+00  0.88000000000E+00 0.  1.
        -11    1    4    4    0    0 -0.28005007748E-02 -0.49335856946E-01 -0.52152739903E-03  0.49420670747E-01  0.51100000000E-03 0.  1.
         11    1    4    4    0    0  0.21119427466E-01 -0.79018611985E-01 -0.22870047512E-02  0.81825807471E-01  0.51100000000E-03 0. -1.
</event>
<event>
 7    1  0.1132255E+005  0.1043930E+01  0.7957747E-01            NaN
         13   -1    0    0    0    0  0.00000000000E+00  0.00000000000E+00  0.74505805969E-08  0.10566000000E+00  0.10566000000E+00 0.  1.
     999900   -1    0    0    0    0 -0.00000000000E+00 -0.00000000000E+00 -0.74505805969E-08  0.93827000000E+00  0.93827000000E+00 0. -1.
     999903    2    1    2    0    0 -0.67242195480E-01 -0.15739469861E-01 -0.29357224666E-01  0.77632903341E-01  0.19894151818E-01 0.  0.
         14    1    1    2    0    0 -0.31472365647E-01 -0.26913708302E-01  0.67210065305E-01  0.78943336465E-01  0.00000000000E+00 0. -1.
     999901    1    1    2    0    0  0.98714561127E-01  0.42653178163E-01 -0.37852840639E-01  0.88735376019E+00  0.88000000000E+00 0. -1.
        -11    1    3    3    0    0 -0.39513969040E-01 -0.19171969619E-01 -0.18152291401E-01  0.47525624378E-01  0.51100000000E-03 0. -1.
         11    1    3    3    0    0 -0.27728226440E-01  0.34324997578E-02 -0.11204933265E-01  0.30107278963E-01  0.51100000000E-03 0.  1.
</event>
<event>
 8    1  0.1132255E+005  0.1043930E+01  0.7957747E-01            NaN
         13   -1    0    0    0    0  0.00000000000E+00  0.00000000000E+00  0.74505805969E-08  0.10566000000E+00  0.10566000000E+00 0.  1.
     999900   -1    0    0    0    0 -0.00000000000E+00 -0.00000000000E+00 -0.74505805969E-08  0.93827000000E+00  0.93827000000E+00 0.  1.
     999902    2    1    2    0    0 -0.10978601090E-01 -0.19308879572E-01 -0.86816315190E-02  0.10200818714E+01  0.10198030649E+01 0.  0.
     999903    2    3    3    0    0  0.82365357276E-01 -0.99209942396E-01  0.62670008788E-02  0.13141954181E+00  0.24599917092E-01 0.  0.
         14    1    1    2    0    0  0.10978601090E-01  0.19308879572E-01  0.86816315190E-02  0.23848128607E-01  0.00000000000E+00 0. -1.
     999901    1    3    3    0    0 -0.93343958365E-01  0.79901062824E-01 -0.14948632398E-01  0.88866232958E+00  0.88000000000E+00 0.  1.
        -11    1    4    4    0    0  0.43961015634E-01 -0.36507732956E-01  0.89381971345E-02  0.57840625431E-01  0.51100000000E-03 0.  1.
         11    1    4    4    0    0  0.38404341641E-01 -0.62702209440E-01 -0.26711962557E-02  0.73578916382E-01  0.51100000000E-03 0. -1.
</event>
<event>
 8    1  0.1132255E+005  0.1043930E+01  0.7957747E-01            NaN
         13   -1    0    0    0    0  0.00000000000E+00  0.00000000000E+00  0.74505805969E-08  0.10566000000E+00  0.10566000000E+00 0.  1.
     999900   -1    0    0    0    0 -0.00000000000E+00 -0.00000000000E+00 -0.74505805969E-08  0.93827000000E+00  0.93827000000E+00 0. -1.
     999902    2    1    2    0    0  0.18129349477E-01 -0.12868711938E-01 -0.71822306394E-02  0.10205663210E+01  0.10202988553E+01 0.  0.
     999903    2    3    3    0    0  0.10563291244E+00 -0.45444948004E-01  0.63298768988E-01  0.13282443509E+00  0.20298790932E-01 0.  0.
         14    1    1    2    0    0 -0.18129349477E-01  0.12868711938E-01  0.71822306394E-02  0.23363678999E-01  0.00000000000E+00 0.  1.
     999901    1    3    3    0    0 -0.87503562961E-01  0.32576236066E-01 -0.70480999628E-01  0.88774188591E+00  0.88000000000E+00 0. -1.
        -11    1    4    4    0    0  0.85109819788E-01 -0.27481238932E-01  0.50204066536E-01  0.10256514679E+00  0.51100000000E-03 0.  1.
         11    1    4    4    0    0  0.20523092650E-01 -0.17963709072E-01  0.13094702452E-01  0.30259288307E-01  0.51100000000E-03 0. -1.
</event>
<event>
 8    1  0.1132255E+005  0.1043930E+01  0.7957747E-01            NaN
         13   -1    0    0    0    0  0.00000000000E+00  0.00000000000E+00  0.74505805969E-08  0.10566000000E+00  0.10566000000E+00 0. -1.
     999900   -1    0    0    0    0 -0.00000000000E+00 -0.00000000000E+00 -0.74505805969E-08  0.93827000000E+00  0.93827000000E+00 0. -1.
     999902    2    1    2    0    0 -0.21499519720E-01 -0.76832303853E-02  0.84298177302E-02  0.10195923090E+01  0.10193017970E+01 0.  0.
     999903    2    3    3    0    0 -0.43373796073E-01 -0.88498854332E-01 -0.83539358147E-01  0.13084713833E+00  0.20707869166E-01 0.  0.
         14    1    1    2    0    0  0.21499519720E-01  0.76832303853E-02 -0.84298177302E-02  0.24337691022E-01  0.00000000000E+00 0. -1.
     999901    1    3    3    0    0  0.21874276353E-01  0.80815623947E-01  0.91969175877E-01  0.88874517065E+00  0.88000000000E+00 0.  1.
        -11    1    4    4    0    0 -0.58264991379E-02 -0.32488002473E-01 -0.31982533414E-01  0.45962614824E-01  0.51100000000E-03 0. -1.
         11    1    4    4    0    0 -0.37547296935E-01 -0.56010851859E-01 -0.51556824733E-01  0.84884523505E-01  0.51100000000E-03 0.  1.
</event>
<event>
 8    1  0.1132255E+005  0.1043930E+01  0.7957747E-01            NaN
         13   -1    0    0    0    0  0.00000000000E+00  0.00000000000E+00  0.74505805969E-08  0.10566000000E+00  0.10566000000E+00 0. -1.
     999900   -1    0    0    0    0 -0.00000000000E+00 -0.00000000000E+00 -0.74505805969E-08  0.93827000000E+00  0.93827000000E+00 0. -1.
     999902    2    1    2    0    0  0.20053213893E-01  0.71635843934E-02 -0.89595846728E-02  0.10208275654E+01  0.10205661153E+01 0.  0.
     999903    2    3    3    0    0  0.65708819818E-01  0.11389229061E+00  0.35347174183E-02  0.13311614904E+00  0.20452678177E-01 0.  0.
         14    1    1    2    0    0 -0.20053213893E-01 -0.71635843934E-02  0.89595846728E-02  0.23102434640E-01  0.00000000000E+00 0. -1.
     999901    1    3    3    0    0 -0.45655605926E-01 -0.10672870622E+00 -0.12494302091E-01  0.88771141632E+00  0.88000000000E+00 0.  1.
        -11    1    4    4    0    0  0.53422951914E-01  0.10423460029E+00  0.20013542465E-03  0.11712883874E+00  0.51100000000E-03 0. -1.
         11    1    4    4    0    0  0.12285867905E-01  0.96576903178E-02  0.33345819936E-02  0.15987310296E-01  0.51100000000E-03 0.  1.
</event>
<event>
 8    1  0.1132255E+005  0.1043930E+01  0.7957747E-01            NaN
         13   -1    0    0    0    0  0.00000000000E+00  0.00000000000E+00  0.74505805969E-08  0.10566000000E+00  0.10566000000E+00 0.  1.
     999900   -1    0    0    0    0 -0.00000000000E+00 -0.00000000000E+00 -0.74505805969E-08  0.93827000000E+00  0.93827000000E+00 0.  1.
     999902    2    1    2    0    0  0.34211107895E-03  0.23559358248E-01 -0.44062633344E-02  0.10199596943E+01  0.10196779895E+01 0.  0.
     999903    2    3    3    0    0  0.23871697843E-01 -0.10037985748E+00 -0.73617547663E-01  0.12827321767E+00  0.19710436349E-01 0.  0.
         14    1    1    2    0    0 -0.34211107895E-03 -0.23559358248E-01  0.44062633344E-02  0.23970305747E-01  0.00000000000E+00 0. -1.
     999901    1    3    3    0    0 -0.23529586764E-01  0.12393921573E+00  0.69211284329E-01  0.89168647659E+00  0.88000000000E+00 0. -1.
        -11    1    4    4    0    0  0.68841552498E-02 -0.41176458562E-01 -0.41251479398E-01  0.58692742369E-01  0.51100000000E-03 0.  1.
         11    1    4    4    0    0  0.16987542593E-01 -0.59203398918E-01 -0.32366068265E-01  0.69580475298E-01  0.51100000000E-03 0. -1.
</event>
<event>
 8    1  0.1132255E+005  0.1043930E+01  0.7957747E-01            NaN
         13   -1    0    0    0    0  0.00000000000E+00  0.00000000000E+00  0.74505805969E-08  0.10566000000E+00  0.10566000000E+00 0. -1.
     999900   -1    0    0    0    0 -0.00000000000E+00 -0.00000000000E+00 -0.74505805969E-08  0.93827000000E+00  0.93827000000E+00 0. -1.
     999902    2    1    2    0    0 -0.38463591321E-02  0.21362667289E-01 -0.10116922865E-01  0.10199819278E+01  0.10197007517E+01 0.  0.
     999903    2    3    3    0    0  0.35808313591E-01  0.89791320842E-01  0.86415226318E-01  0.13117743329E+00  0.19879915590E-01 0.  0.
         14    1    1    2    0    0  0.38463591321E-02 -0.21362667289E-01  0.10116922865E-01  0.23948072167E-01  0.00000000000E+00 0. -1.
     999901    1    3    3    0    0 -0.39654672723E-01 -0.68428653553E-01 -0.96532149183E-01  0.88880449454E+00  0.88000000000E+00 0. -1.
        -11    1    4    4    0    0  0.35389586890E-01  0.73577317062E-01  0.77914660841E-01  0.11285831800E+00  0.51100000000E-03 0. -1.
         11    1    4    4    0    0  0.41872670149E-03  0.16214003780E-01  0.85005654768E-02  0.18319115291E-01  0.51100000000E-03 0.  1.
</event>
<event>
 8    1  0.1132255E+005  0.1043930E+01  0.7957747E-01            NaN
         13   -1    0    0    0    0  0.00000000000E+00  0.00000000000E+00  0.74505805969E-08  0.10566000000E+00  0.10566000000E+00 0. -1.
     999900   -1    0    0    0    0 -0.00000000000E+00 -0.00000000000E+00 -0.74505805969E-08  0.93827000000E+00  0.93827000000E+00 0. -1.
     999902    2    1    2    0    0 -0.95649550583E-02  0.19755129479E-01 -0.91140554076E-02  0.10201640682E+01  0.10198872029E+01 0.  0.
     999903    2    3    3    0    0 -0.63160022536E-01 -0.65826745234E-01 -0.91894038734E-01  0.13052975339E+00  0.16466734046E-01 0.  0.
         14    1    1    2    0    0  0.95649550583E-02 -0.19755129479E-01  0.91140554076E-02  0.23765931750E-01  0.00000000000E+00 0.  1.
     999901    1    3    3    0    0  0.53595067478E-01  0.85581874713E-01  0.82779983327E-01  0.88963431486E+00  0.88000000000E+00 0. -1.
        -11    1    4    4    0    0 -0.28316585021E-01 -0.29454771291E-01 -0.52817742426E-01  0.66778646101E-01  0.51100000000E-03 0.  1.
         11    1    4    4    0    0 -0.34843437515E-01 -0.36371973943E-01 -0.39076296309E-01  0.63751107289E-01  0.51100000000E-03 0. -1.
</event>
<event>
 8    1  0.1132255E+005  0.1043930E+01  0.7957747E-01            NaN
         13   -1    0    0    0    0  0.00000000000E+00  0.00000000000E+00  0.74505805969E-08  0.10566000000E+00  0.10566000000E+00 0.  1.
     999900   -1    0    0    0    0 -0.00000000000E+00 -0.00000000000E+00 -0.74505805969E-08  0.93827000000E+00  0.93827000000E+00 0. -1.
     999902    2    1    2    0    0 -0.17263958584E-01  0.11301527475E-01  0.13382476435E-01  0.10193361092E+01  0.10190393732E+01 0.  0.
     999903    2    3    3    0    0  0.12582443277E+00  0.92518766843E-02  0.17314705235E-02  0.12770040178E+00  0.19672557523E-01 0.  0.
         14    1    1    2    0    0  0.17263958584E-01 -0.11301527475E-01 -0.13382476435E-01  0.24593890802E-01  0.00000000000E+00 0. -1.
     999901    1    3    3    0    0 -0.14308839135E+00  0.20496507905E-02  0.11651005912E-01  0.89163570742E+00  0.88000000000E+00 0.  1.
        -11    1    4    4    0    0  0.19619089217E-01  0.59519979983E-02 -0.53877963095E-02  0.21204348892E-01  0.51100000000E-03 0.  1.
         11    1    4    4    0    0  0.10620534355E+00  0.32998786860E-02  0.71192668330E-02  0.10649605288E+00  0.51100000000E-03 0. -1.
</event>
<event>
 8    1  0.1132255E+005  0.1043930E+01  0.7957747E-01            NaN
         13   -1    0    0    0    0  0.00000000000E+00  0.00000000000E+00  0.74505805969E-08  0.10566000000E+00  0.10566000000E+00 0. -1.
     999900   -1    0    0    0    0 -0.00000000000E+00 -0.00000000000E+00 -0.74505805969E-08  0.93827000000E+00  0.93827000000E+00 0.  1.
     999902    2    1    2    0    0  0.54668713258E-02  0.19585093794E-01  0.13298828714E-01  0.10196334688E+01  0.10193439505E+01 0.  0.
     999903    2    3    3    0    0  0.96313084371E-01 -0.79154035627E-01 -0.24554786251E-01  0.12865908859E+00  0.20215142148E-01 0.  0.
         14    1    1    2    0    0 -0.54668713258E-02 -0.19585093794E-01 -0.13298828714E-01  0.24296531155E-01  0.00000000000E+00 0.  1.
     999901    1    3    3    0    0 -0.90846213045E-01  0.98739129421E-01  0.37853614964E-01  0.89097438025E+00  0.88000000000E+00 0.  1.
        -11    1    4    4    0    0  0.34318901711E-02 -0.11308714922E-02  0.24364306375E-02  0.43879443626E-02  0.51100000000E-03 0. -1.
         11    1    4    4    0    0  0.92881194200E-01 -0.78023164135E-01 -0.26991216888E-01  0.12427114423E+00  0.51100000000E-03 0.  1.
</event>
<event>
 8    1  0.1132255E+005  0.1043930E+01  0.7957747E-01            NaN
         13   -1    0    0    0    0  0.00000000000E+00  0.00000000000E+00  0.74505805969E-08  0.10566000000E+00  0.10566000000E+00 0. -1.
     999900   -1    0    0    0    0 -0.00000000000E+00 -0.00000000000E+00 -0.74505805969E-08  0.93827000000E+00  0.93827000000E+00 0.  1.
     999902    2    1    2    0    0  0.18567541355E-01 -0.73532736889E-03  0.14658918324E-01  0.10202619163E+01  0.10199873527E+01 0.  0.
     999903    2    3    3    0    0 -0.10045338601E+00 -0.71698495399E-01 -0.28719493306E-01  0.12836313341E+00  0.20511648432E-01 0.  0.
         14    1    1    2    0    0 -0.18567541355E-01  0.73532736889E-03 -0.14658918324E-01  0.23668083673E-01  0.00000000000E+00 0.  1.
     999901    1    3    3    0    0  0.11902092736E+00  0.70963168030E-01  0.43378411629E-01  0.89189878291E+00  0.88000000000E+00 0. -1.
        -11    1    4    4    0    0 -0.66591302277E-01 -0.55733624392E-01 -0.26774569878E-01  0.90872312285E-01  0.51100000000E-03 0. -1.
         11    1    4    4    0    0 -0.33862083730E-01 -0.15964871006E-01 -0.19449234276E-02  0.37490821129E-01  0.51100000000E-03 0.  1.
</event>
<event>
 8    1  0.1132255E+005  0.1043930E+01  0.7957747E-01            NaN
         13   -1    0    0    0    0  0.00000000000E+00  0.00000000000E+00  0.74505805969E-08  0.10566000000E+00  0.10566000000E+00 0. -1.
     999900   -1    0    0    0    0 -0.00000000000E+00 -0.00000000000E+00 -0.74505805969E-08  0.93827000000E+00  0.93827000000E+00 0. -1.
     999902    2    1    2    0    0 -0.90809653623E-02  0.21321288835E-01  0.53127307805E-02  0.10201542477E+01  0.10198771508E+01 0.  0.
     999903    2    3    3    0    0 -0.82160013855E-01  0.10136031849E+00 -0.17589466272E-01  0.13320932030E+00  0.20276874757E-01 0.  0.
         14    1    1    2    0    0  0.90809653623E-02 -0.21321288835E-01 -0.53127307805E-02  0.23775752309E-01  0.00000000000E+00 0.  1.
     999901    1    3    3    0    0  0.73079048492E-01 -0.80039029655E-01  0.22902197053E-01  0.88694492739E+00  0.88000000000E+00 0.  1.
        -11    1    4    4    0    0 -0.54170307396E-01  0.52793639379E-01 -0.53525098788E-02  0.75832058163E-01  0.51100000000E-03 0.  1.
         11    1    4    4    0    0 -0.27989706459E-01  0.48566679110E-01 -0.12236956393E-01  0.57377262136E-01  0.51100000000E-03 0. -1.
</event>
<event>
 8    1  0.1132255E+005  0.1043930E+01  0.7957747E-01            NaN
         13   -1    0    0    0    0  0.00000000000E+00  0.00000000000E+00  0.74505805969E-08  0.10566000000E+00  0.10566000000E+00 0.  1.
     999900   -1    0    0    0    0 -0.00000000000E+00 -0.00000000000E+00 -0.74505805969E-08  0.93827000000E+00  0.93827000000E+00 0.  1.
     999902    2    1    2    0    0 -0.22813867636E-01 -0.79661499727E-02 -0.21045514207E-02  0.10196738412E+01  0.10193852958E+01 0.  0.
     999903    2    3    3    0    0 -0.88547972970E-01 -0.28633954361E-01  0.91497088673E-01  0.13203123422E+00  0.19997067644E-01 0.  0.
         14    1    1    2    0    0  0.22813867636E-01  0.79661499727E-02  0.21045514207E-02  0.24256158776E-01  0.00000000000E+00 0.  1.
     999901    1    3    3    0    0  0.65734105334E-01  0.20667804389E-01 -0.93601640093E-01  0.88764260700E+00  0.88000000000E+00 0.  1.
        -11    1    4    4    0    0 -0.29415603773E-01 -0.18850952979E-01  0.38886159589E-01  0.52278396132E-01  0.51100000000E-03 0. -1.
         11    1    4    4    0    0 -0.59132369197E-01 -0.97830013819E-02  0.52610929084E-01  0.79752838087E-01  0.51100000000E-03 0.  1.
</event>
<event>
 8    1  0.1132255E+005  0.1043930E+01  0.7957747E-01            NaN
         13   -1    0    0    0    0  0.00000000000E+00  0.00000000000E+00  0.74505805969E-08  0.10566000000E+00  0.10566000000E+00 0. -1.
     999900   -1    0    0    0    0 -0.00000000000E+00 -0.00000000000E+00 -0.74505805969E-08  0.93827000000E+00  0.93827000000E+00 0. -1.
     999902    2    1    2    0    0  0.60168998342E-02 -0.35323138576E-02 -0.23043646169E-01  0.10198532487E+01  0.10195690064E+01 0.  0.
     999903    2    3    3    0    0 -0.11653696858E+00 -0.28826589917E-01  0.41728642230E-01  0.12864356494E+00  0.19901002163E-01 0.  0.
         14    1    1    2    0    0 -0.60168998342E-02  0.35323138576E-02  0.23043646169E-01  0.24076751309E-01  0.00000000000E+00 0. -1.
     999901    1    3    3    0    0  0.12255386841E+00  0.25294276060E-01 -0.64772288399E-01  0.89120968375E+00  0.88000000000E+00 0.  1.
        -11    1    4    4    0    0 -0.33284738607E-01 -0.12248552524E-01  0.21146402478E-01  0.41295669529E-01  0.51100000000E-03 0.  1.
         11    1    4    4    0    0 -0.83252229971E-01 -0.16578037393E-01  0.20582239752E-01  0.87347895413E-01  0.51100000000E-03 0. -1.
</event>
<event>
 8    1  0.1132255E+005  0.1043930E+01  0.7957747E-01            NaN
         13   -1    0    0    0    0  0.00000000000E+00  0.00000000000E+00  0.74505805969E-08  0.10566000000E+00  0.10566000000E+00 0.  1.
     999900   -1    0    0    0    0 -0.00000000000E+00 -0.00000000000E+00 -0.74505805969E-08  0.93827000000E+00  0.93827000000E+00 0.  1.
     999902    2    1    2    0    0  0.37943005591E-02  0.97946802114E-02  0.20747814615E-01  0.10206748008E+01  0.10204098416E+01 0.  0.
     999903    2    3    3    0    0  0.55007761252E-01  0.11282101273E+00  0.39170770684E-01  0.13299431267E+00  0.19967554053E-01 0.  0.
         14    1    1    2    0    0 -0.37943005591E-02 -0.97946802114E-02 -0.20747814615E-01  0.23255199171E-01  0.00000000000E+00 0. -1.
     999901    1    3    3    0    0 -0.51213460693E-01 -0.10302633252E+00 -0.18422956069E-01  0.88768048816E+00  0.88000000000E+00 0.  1.
        -11    1    4    4    0    0  0.26424594254E-01  0.36411501800E-01  0.82137262120E-02  0.45736014956E-01  0.51100000000E-03 0.  1.
         11    1    4    4    0    0  0.28583166999E-01  0.76409510931E-01  0.30957044472E-01  0.87258297714E-01  0.51100000000E-03 0. -1.
</event>
<event>
 8    1  0.1132255E+005  0.1043930E+01  0.7957747E-01            NaN
         13   -1    0    0    0    0  0.00000000000E+00  0.00000000000E+00  0.74505805969E-08  0.10566000000E+00  0.10566000000E+00 0. -1.
     999900   -1    0    0    0    0 -0.00000000000E+00 -0.00000000000E+00 -0.74505805969E-08  0.93827000000E+00  0.93827000000E+00 0.  1.
     999902    2    1    2    0    0 -0.19660704995E-01 -0.58823336668E-05 -0.12087084013E-01  0.10208509845E+01  0.10205900703E+01 0.  0.
     999903    2    3    3    0    0  0.37649311665E-01 -0.11895953277E+00 -0.33492250659E-01  0.13074279440E+00  0.20077508001E-01 0.  0.
         14    1    1    2    0    0  0.19660704995E-01  0.58823336668E-05  0.12087084013E-01  0.23079015478E-01  0.00000000000E+00 0.  1.
     999901    1    3    3    0    0 -0.57310016659E-01  0.11895365044E+00  0.21405166646E-01  0.89010819012E+00  0.88000000000E+00 0. -1.
        -11    1    4    4    0    0  0.22565075420E-01 -0.74743052984E-01 -0.10860021638E-01  0.78828343818E-01  0.51100000000E-03 0.  1.
         11    1    4    4    0    0  0.15084236245E-01 -0.44216479787E-01 -0.22632229021E-01  0.51914450583E-01  0.51100000000E-03 0. -1.
</event>
<event>
 8    1  0.1132255E+005  0.1043930E+01  0.7957747E-01            NaN
         13   -1    0    0    0    0  0.00000000000E+00  0.00000000000E+00  0.74505805969E-08  0.10566000000E+00  0.10566000000E+00 0.  1.
     999900   -1    0    0    0    0 -0.00000000000E+00 -0.00000000000E+00 -0.74505805969E-08  0.93827000000E+00  0.93827000000E+00 0.  1.
     999902    2    1    2    0    0 -0.20333501599E-01  0.18282694105E-02  0.14161422252E-01  0.10190836776E+01  0.10187807430E+01 0.  0.
     999903    2    3    3    0    0 -0.94245815442E-01 -0.88670557141E-01 -0.75338508152E-02  0.13109507823E+00  0.19606611039E-01 0.  0.
         14    1    1    2    0    0  0.20333501599E-01 -0.18282694105E-02 -0.14161422252E-01  0.24846322394E-01  0.00000000000E+00 0. -1.
     999901    1    3    3    0    0  0.73912313843E-01  0.90498826551E-01  0.21695273067E-01  0.88798859937E+00  0.88000000000E+00 0. -1.
        -11    1    4    4    0    0 -0.72582254651E-01 -0.59735332126E-01 -0.11600645165E-01  0.94717103438E-01  0.51100000000E-03 0.  1.
         11    1    4    4    0    0 -0.21663560791E-01 -0.28935225014E-01  0.40667943498E-02  0.36377974793E-01  0.51100000000E-03 0. -1.
</event>
<event>
 8    1  0.1132255E+005  0.1043930E+01  0.7957747E-01            NaN
         13   -1    0    0    0    0  0.00000000000E+00  0.00000000000E+00  0.74505805969E-08  0.10566000000E+00  0.10566000000E+00 0.  1.
     999900   -1    0    0    0    0 -0.00000000000E+00 -0.00000000000E+00 -0.74505805969E-08  0.93827000000E+00  0.93827000000E+00 0.  1.
     999902    2    1    2    0    0 -0.12478636528E-01 -0.83119258478E-02 -0.18535999720E-01  0.10200891157E+01  0.10198104805E+01 0.  0.
     999903    2    3    3    0    0  0.33393912966E-01  0.11669032658E+00 -0.41313597171E-01  0.12978092583E+00  0.20111928284E-01 0.  0.
         14    1    1    2    0    0  0.12478636528E-01  0.83119258478E-02  0.18535999720E-01  0.23840884349E-01  0.00000000000E+00 0.  1.
     999901    1    3    3    0    0 -0.45872549495E-01 -0.12500225243E+00  0.22777597451E-01  0.89030818982E+00  0.88000000000E+00 0. -1.
        -11    1    4    4    0    0  0.26473529677E-01  0.60723255400E-01 -0.27443441470E-01  0.71704707800E-01  0.51100000000E-03 0.  1.
         11    1    4    4    0    0  0.69203832893E-02  0.55967071178E-01 -0.13870155701E-01  0.58076218035E-01  0.51100000000E-03 0. -1.
</event>
<event>
 8    1  0.1132255E+005  0.1043930E+01  0.7957747E-01            NaN
         13   -1    0    0    0    0  0.00000000000E+00  0.00000000000E+00  0.74505805969E-08  0.10566000000E+00  0.10566000000E+00 0. -1.
     999900   -1    0    0    0    0 -0.00000000000E+00 -0.00000000000E+00 -0.74505805969E-08  0.93827000000E+00  0.93827000000E+00 0. -1.
     999902    2    1    2    0    0 -0.22561040163E-01  0.51222711464E-02  0.50888989688E-02  0.10202417099E+01  0.10199666718E+01 0.  0.
     999903    2    3    3    0    0 -0.99141922920E-01  0.77328163929E-01  0.39789126976E-01  0.13329051148E+00  0.19349935641E-01 0.  0.
         14    1    1    2    0    0  0.22561040163E-01 -0.51222711464E-02 -0.50888989688E-02  0.23688290095E-01  0.00000000000E+00 0.  1.
     999901    1    3    3    0    0  0.76580882758E-01 -0.72205892782E-01 -0.34700228007E-01  0.88695119842E+00  0.88000000000E+00 0. -1.
        -11    1    4    4    0    0 -0.75748868038E-01  0.68689940600E-01  0.32771763034E-01  0.10737992607E+00  0.51100000000E-03 0. -1.
         11    1    4    4    0    0 -0.23393054882E-01  0.86382233286E-02  0.70173639423E-02  0.25910585418E-01  0.51100000000E-03 0.  1.
</event>
<event>
 8    1  0.1203665E+005  0.1043930E+01  0.7957747E-01            NaN
         13   -1    0    0    0    0  0.00000000000E+00  0.00000000000E+00  0.74505805969E-08  0.10566000000E+00  0.10566000000E+00 0.  1.
     999900   -1    0    0    0    0 -0.00000000000E+00 -0.00000000000E+00 -0.74505805969E-08  0.93827000000E+00  0.93827000000E+00 0. -1.
     999902    2    1    2    0    0 -0.11052176637E-02  0.25813316031E-01  0.68270184007E-02  0.10172062845E+01  0.10168551855E+01 0.  0.
     999903    2    3    3    0    0 -0.10158248017E+00  0.67010710069E-01 -0.38690002555E-01  0.12936355925E+00  0.20702140552E-01 0.  0.
         14    1    1    2    0    0  0.11052176637E-02 -0.25813316031E-01 -0.68270184007E-02  0.26723715514E-01  0.00000000000E+00 0. -1.
     999901    1    3    3    0    0  0.10047726250E+00 -0.41197394038E-01  0.45517020956E-01  0.88784272523E+00  0.88000000000E+00 0. -1.
        -11    1    4    4    0    0 -0.30189965356E-01  0.31750622522E-01 -0.13667349850E-01  0.45897642768E-01  0.51100000000E-03 0.  1.
         11    1    4    4    0    0 -0.71392514812E-01  0.35260087546E-01 -0.25022652705E-01  0.83465916483E-01  0.51100000000E-03 0. -1.
</event>
<event>
 8    1  0.1132255E+005  0.1043930E+01  0.7957747E-01            NaN
         13   -1    0    0    0    0  0.00000000000E+00  0.00000000000E+00  0.74505805969E-08  0.10566000000E+00  0.10566000000E+00 0. -1.
     999900   -1    0    0    0    0 -0.00000000000E+00 -0.00000000000E+00 -0.74505805969E-08  0.93827000000E+00  0.93827000000E+00 0.  1.
     999902    2    1    2    0    0  0.72720320384E-02  0.16123312527E-01  0.16255743577E-01  0.10199072430E+01  0.10196242893E+01 0.  0.
     999903    2    3    3    0    0  0.57707406926E-02 -0.10803152597E+00 -0.64871909005E-01  0.12749569338E+00  0.18511488395E-01 0.  0.
         14    1    1    2    0    0 -0.72720320384E-02 -0.16123312527E-01 -0.16255743577E-01  0.24022757045E-01  0.00000000000E+00 0.  1.
     999901    1    3    3    0    0  0.15012913457E-02  0.12415483849E+00  0.81127652582E-01  0.89241154957E+00  0.88000000000E+00 0. -1.
        -11    1    4    4    0    0  0.78283803652E-02 -0.91635359053E-01 -0.47493565497E-01  0.10350952832E+00  0.51100000000E-03 0.  1.
         11    1    4    4    0    0 -0.20576396725E-02 -0.16396166912E-01 -0.17378343508E-01  0.23986165065E-01  0.51100000000E-03 0. -1.
</event>
<event>
 8    1  0.1132255E+005  0.1043930E+01  0.7957747E-01            NaN
         13   -1    0    0    0    0  0.00000000000E+00  0.00000000000E+00  0.74505805969E-08  0.10566000000E+00  0.10566000000E+00 0. -1.
     999900   -1    0    0    0    0 -0.00000000000E+00 -0.00000000000E+00 -0.74505805969E-08  0.93827000000E+00  0.93827000000E+00 0.  1.
     999902    2    1    2    0    0  0.21594014122E-01  0.66565135964E-03  0.92242408448E-02  0.10204389132E+01  0.10201684883E+01 0.  0.
     999903    2    3    3    0    0  0.25028465861E-01 -0.12679276913E+00  0.13280133971E-01  0.13124045695E+00  0.18570545894E-01 0.  0.
         14    1    1    2    0    0 -0.21594014122E-01 -0.66565135964E-03 -0.92242408448E-02  0.23491086752E-01  0.00000000000E+00 0.  1.
     999901    1    3    3    0    0 -0.34344517398E-02  0.12745842049E+00 -0.40558931261E-02  0.88919845630E+00  0.88000000000E+00 0. -1.
        -11    1    4    4    0    0  0.22831624687E-01 -0.68033883223E-01  0.73782202621E-02  0.72142855554E-01  0.51100000000E-03 0. -1.
         11    1    4    4    0    0  0.21968411740E-02 -0.58758885909E-01  0.59019137089E-02  0.59097601396E-01  0.51100000000E-03 0.  1.
</event>
<event>
 8    1  0.1132255E+005  0.1043930E+01  0.7957747E-01            NaN
         13   -1    0    0    0    0  0.00000000000E+00  0.00000000000E+00  0.74505805969E-08  0.10566000000E+00  0.10566000000E+00 0. -1.
     999900   -1    0    0    0    0 -0.00000000000E+00 -0.00000000000E+00 -0.74505805969E-08  0.93827000000E+00  0.93827000000E+00 0. -1.
     999902    2    1    2    0    0  0.13963224607E-01 -0.12014796715E-01 -0.77095444627E-02  0.10239609225E+01  0.10237661875E+01 0.  0.
     999903    2    3    3    0    0  0.91178718795E-01  0.40802120259E-01  0.87644097605E-01  0.13387992823E+00  0.16247324644E-01 0.  0.
         14    1    1    2    0    0 -0.13963224607E-01  0.12014796715E-01  0.77095444627E-02  0.19969077529E-01  0.00000000000E+00 0.  1.
     999901    1    3    3    0    0 -0.77215494188E-01 -0.52816916973E-01 -0.95353642067E-01  0.89008099425E+00  0.88000000000E+00 0. -1.
        -11    1    4    4    0    0  0.50985903683E-01  0.18756710861E-01  0.56955245178E-01  0.78711737695E-01  0.51100000000E-03 0. -1.
         11    1    4    4    0    0  0.40192815113E-01  0.22045409398E-01  0.30688852426E-01  0.55168190531E-01  0.51100000000E-03 0.  1.
</event>
<event>
 8    1  0.1132255E+005  0.1043930E+01  0.7957747E-01            NaN
         13   -1    0    0    0    0  0.00000000000E+00  0.00000000000E+00  0.74505805969E-08  0.10566000000E+00  0.10566000000E+00 0. -1.
     999900   -1    0    0    0    0 -0.00000000000E+00 -0.00000000000E+00 -0.74505805969E-08  0.93827000000E+00  0.93827000000E+00 0.  1.
     999902    2    1    2    0    0  0.92471065813E-02  0.31432329695E-01 -0.37047474928E-02  0.10109568976E+01  0.10104190335E+01 0.  0.
     999903    2    3    3    0    0 -0.11247207044E+00 -0.17532568372E-01 -0.34923921603E-01  0.12068291944E+00  0.19680679881E-01 0.  0.
         14    1    1    2    0    0 -0.92471065813E-02 -0.31432329695E-01  0.37047474928E-02  0.32973102435E-01  0.00000000000E+00 0.  1.
     999901    1    3    3    0    0  0.12171917702E+00  0.48964898068E-01  0.31219174111E-01  0.89027397813E+00  0.88000000000E+00 0. -1.
        -11    1    4    4    0    0 -0.33114240927E-01 -0.62516253474E-02 -0.19869920617E-01  0.39124297284E-01  0.51100000000E-03 0.  1.
         11    1    4    4    0    0 -0.79357829516E-01 -0.11280943025E-01 -0.15054000986E-01  0.81558622154E-01  0.51100000000E-03 0. -1.
</event>
<event>
 8    1  0.1132255E+005  0.1043930E+01  0.7957747E-01            NaN
         13   -1    0    0    0    0  0.00000000000E+00  0.00000000000E+00  0.74505805969E-08  0.10566000000E+00  0.10566000000E+00 0. -1.
     999900   -1    0    0    0    0 -0.00000000000E+00 -0.00000000000E+00 -0.74505805969E-08  0.93827000000E+00  0.93827000000E+00 0.  1.
     999902    2    1    2    0    0 -0.12502080698E-01 -0.22421724418E-02  0.20156283796E-01  0.10201055349E+01  0.10198272880E+01 0.  0.
     999903    2    3    3    0    0  0.10380480773E+00 -0.21656869972E-01  0.73588397848E-01  0.13063422366E+00  0.20139264365E-01 0.  0.
         14    1    1    2    0    0  0.12502080698E-01  0.22421724418E-02 -0.20156283796E-01  0.23824465062E-01  0.00000000000E+00 0.  1.
     999901    1    3    3    0    0 -0.11630688842E+00  0.19414697530E-01 -0.53432114052E-01  0.88947131128E+00  0.88000000000E+00 0. -1.
        -11    1    4    4    0    0  0.65238366223E-01 -0.10160057768E-01  0.56534067723E-01  0.86923144994E-01  0.51100000000E-03 0. -1.
         11    1    4    4    0    0  0.38566441504E-01 -0.11496812204E-01  0.17054330125E-01  0.43711078666E-01  0.51100000000E-03 0.  1.
</event>
<event>
 8    1  0.1132255E+005  0.1043930E+01  0.7957747E-01            NaN
         13   -1    0    0    0    0  0.00000000000E+00  0.00000000000E+00  0.74505805969E-08  0.10566000000E+00  0.10566000000E+00 0. -1.
     999900   -1    0    0    0    0 -0.00000000000E+00 -0.00000000000E+00 -0.74505805969E-08  0.93827000000E+00  0.93827000000E+00 0.  1.
     999902    2    1    2    0    0 -0.18885255366E-01  0.74074883036E-02  0.12301372110E-01  0.10202055925E+01  0.10199297052E+01 0.  0.
     999903    2    3    3    0    0  0.83224852463E-01  0.53838511866E-01 -0.79260568751E-01  0.12837270288E+00  0.19296415722E-01 0.  0.
         14    1    1    2    0    0  0.18885255366E-01 -0.74074883036E-02 -0.12301372110E-01  0.23724407453E-01  0.00000000000E+00 0.  1.
     999901    1    3    3    0    0 -0.10211010783E+00 -0.46431023562E-01  0.91561940861E-01  0.89183288966E+00  0.88000000000E+00 0. -1.
        -11    1    4    4    0    0  0.21989790955E-01  0.23462796483E-01 -0.31227945420E-01  0.44827440494E-01  0.51100000000E-03 0.  1.
         11    1    4    4    0    0  0.61235061508E-01  0.30375715383E-01 -0.48032623331E-01  0.83545262391E-01  0.51100000000E-03 0. -1.
</event>
<event>
 8    1  0.1132255E+005  0.1043930E+01  0.7957747E-01            NaN
         13   -1    0    0    0    0  0.00000000000E+00  0.00000000000E+00  0.74505805969E-08  0.10566000000E+00  0.10566000000E+00 0. -1.
     999900   -1    0    0    0    0 -0.00000000000E+00 -0.00000000000E+00 -0.74505805969E-08  0.93827000000E+00  0.93827000000E+00 0. -1.
     999902    2    1    2    0    0 -0.21126439548E-01 -0.34371094137E-02  0.23155632281E-02  0.10224009034E+01  0.10221742049E+01 0.  0.
     999903    2    3    3    0    0 -0.58234989528E-01 -0.10449622107E+00  0.56526540739E-01  0.13418425264E+00  0.22347027247E-01 0.  0.
         14    1    1    2    0    0  0.21126439548E-01  0.34371094137E-02 -0.23155632281E-02  0.21529096641E-01  0.00000000000E+00 0. -1.
     999901    1    3    3    0    0  0.37108549980E-01  0.10105911165E+00 -0.54210977511E-01  0.88821665072E+00  0.88000000000E+00 0. -1.
        -11    1    4    4    0    0 -0.19169737459E-01 -0.24908346084E-01  0.24724026185E-01  0.39993038528E-01  0.51100000000E-03 0.  1.
         11    1    4    4    0    0 -0.39065252069E-01 -0.79587874981E-01  0.31802514554E-01  0.94191214114E-01  0.51100000000E-03 0. -1.
</event>
<event>
 8    1  0.1132255E+005  0.1043930E+01  0.7957747E-01            NaN
         13   -1    0    0    0    0  0.00000000000E+00  0.00000000000E+00  0.74505805969E-08  0.10566000000E+00  0.10566000000E+00 0. -1.
     999900   -1    0    0    0    0 -0.00000000000E+00 -0.00000000000E+00 -0.74505805969E-08  0.93827000000E+00  0.93827000000E+00 0.  1.
     999902    2    1    2    0    0 -0.84201345924E-02 -0.89157730600E-02 -0.19773293988E-01  0.10206625801E+01  0.10203973390E+01 0.  0.
     999903    2    3    3    0    0  0.82292570202E-01 -0.38948905607E-01 -0.94356134803E-01  0.13235329607E+00  0.18034146731E-01 0.  0.
         14    1    1    2    0    0  0.84201345924E-02  0.89157730600E-02  0.19773293988E-01  0.23267419946E-01  0.00000000000E+00 0. -1.
     999901    1    3    3    0    0 -0.90712704794E-01  0.30033132547E-01  0.74582840815E-01  0.88830928398E+00  0.88000000000E+00 0. -1.
        -11    1    4    4    0    0  0.41434256346E-01 -0.98210102805E-02 -0.41212765630E-01  0.59262154988E-01  0.51100000000E-03 0. -1.
         11    1    4    4    0    0  0.40858313856E-01 -0.29127895327E-01 -0.53143369172E-01  0.73091141086E-01  0.51100000000E-03 0.  1.
</event>
<event>
 8    1  0.1132255E+005  0.1043930E+01  0.7957747E-01            NaN
         13   -1    0    0    0    0  0.00000000000E+00  0.00000000000E+00  0.74505805969E-08  0.10566000000E+00  0.10566000000E+00 0.  1.
     999900   -1    0    0    0    0 -0.00000000000E+00 -0.00000000000E+00 -0.74505805969E-08  0.93827000000E+00  0.93827000000E+00 0.  1.
     999902    2    1    2    0    0  0.23355205047E-01 -0.61116670469E-03 -0.46401018481E-02  0.10201104771E+01  0.10198323469E+01 0.  0.
     999903    2    3    3    0    0  0.76581870802E-01  0.28679805406E-01  0.10205268878E+00  0.13158676294E+00  0.14594886801E-01 0.  0.
         14    1    1    2    0    0 -0.23355205047E-01  0.61116670469E-03  0.46401018481E-02  0.23819522932E-01  0.00000000000E+00 0. -1.
     999901    1    3    3    0    0 -0.53226665755E-01 -0.29290972111E-01 -0.10669279063E+00  0.88852371413E+00  0.88000000000E+00 0.  1.
        -11    1    4    4    0    0  0.63309155181E-01  0.28454209580E-01  0.80762298980E-01  0.10649178950E+00  0.51100000000E-03 0. -1.
         11    1    4    4    0    0  0.13272715621E-01  0.22559582589E-03  0.21290389798E-01  0.25094973445E-01  0.51100000000E-03 0.  1.
</event>
<event>
 8    1  0.1132255E+005  0.1043930E+01  0.7957747E-01            NaN
         13   -1    0    0    0    0  0.00000000000E+00  0.00000000000E+00  0.74505805969E-08  0.10566000000E+00  0.10566000000E+00 0.  1.
     999900   -1    0    0    0    0 -0.00000000000E+00 -0.00000000000E+00 -0.74505805969E-08  0.93827000000E+00  0.93827000000E+00 0.  1.
     999902    2    1    2    0    0 -0.49913091007E-02  0.18049730575E-01 -0.15109394381E-01  0.10198675866E+01  0.10195836868E+01 0.  0.
     999903    2    3    3    0    0  0.11004632264E-01  0.68989564589E-01  0.10760508843E+00  0.12974985218E+00  0.19378006389E-01 0.  0.
         14    1    1    2    0    0  0.49913091007E-02 -0.18049730575E-01  0.15109394381E-01  0.24062413406E-01  0.00000000000E+00 0.  1.
     999901    1    3    3    0    0 -0.15995941365E-01 -0.50939834014E-01 -0.12271448281E+00  0.89011773442E+00  0.88000000000E+00 0.  1.
        -11    1    4    4    0    0  0.13313733354E-01  0.52271908478E-01  0.68763805343E-01  0.87397539771E-01  0.51100000000E-03 0.  1.
         11    1    4    4    0    0 -0.23091010903E-02  0.16717656111E-01  0.38841283083E-01  0.42352312407E-01  0.51100000000E-03 0. -1.
</event>
<event>
 8    1  0.1132255E+005  0.1043930E+01  0.7957747E-01            NaN
         13   -1    0    0    0    0  0.00000000000E+00  0.00000000000E+00  0.74505805969E-08  0.10566000000E+00  0.10566000000E+00 0. -1.
     999900   -1    0    0    0    0 -0.00000000000E+00 -0.00000000000E+00 -0.74505805969E-08  0.93827000000E+00  0.93827000000E+00 0. -1.
     999902    2    1    2    0    0 -0.23007194238E-01 -0.10094075593E-02 -0.69838682039E-02  0.10198649983E+01  0.10195810368E+01 0.  0.
     999903    2    3    3    0    0  0.94165155315E-01  0.77738866056E-01 -0.33741677784E-01  0.12821112464E+00  0.19727744161E-01 0.  0.
         14    1    1    2    0    0  0.23007194238E-01  0.10094075593E-02  0.69838682039E-02  0.24065001671E-01  0.00000000000E+00 0. -1.
     999901    1    3    3    0    0 -0.11717234955E+00 -0.78748273615E-01  0.26757809580E-01  0.89165387369E+00  0.88000000000E+00 0.  1.
        -11    1    4    4    0    0  0.55172723995E-01  0.38927638921E-01 -0.27231091301E-01  0.72809230180E-01  0.51100000000E-03 0.  1.
         11    1    4    4    0    0  0.38992431320E-01  0.38811227135E-01 -0.65105864827E-02  0.55401894456E-01  0.51100000000E-03 0. -1.
</event>
<event>
 8    1  0.1132255E+005  0.1043930E+01  0.7957747E-01            NaN
         13   -1    0    0    0    0  0.00000000000E+00  0.00000000000E+00  0.74505805969E-08  0.10566000000E+00  0.10566000000E+00 0. -1.
     999900   -1    0    0    0    0 -0.00000000000E+00 -0.00000000000E+00 -0.74505805969E-08  0.93827000000E+00  0.93827000000E+00 0. -1.
     999902    2    1    2    0    0 -0.73300463067E-02 -0.96501723996E-02 -0.20223050138E-01  0.10203540130E+01  0.10200816069E+01 0.  0.
     999903    2    3    3    0    0 -0.92854936109E-01 -0.89618554122E-01  0.17827924287E-01  0.13178363002E+00  0.19888837433E-01 0.  0.
         14    1    1    2    0    0  0.73300463067E-02  0.96501723996E-02  0.20223050138E-01  0.23575987001E-01  0.00000000000E+00 0. -1.
     999901    1    3    3    0    0  0.85524889802E-01  0.79968381722E-01 -0.38050974425E-01  0.88857038298E+00  0.88000000000E+00 0. -1.
        -11    1    4    4    0    0 -0.26505597803E-01 -0.14682993083E-01  0.70629843166E-02  0.31117259989E-01  0.51100000000E-03 0. -1.
         11    1    4    4    0    0 -0.66349338306E-01 -0.74935561038E-01  0.10764939970E-01  0.10066637003E+00  0.51100000000E-03 0.  1.
</event>
<event>
 8    1  0.1132255E+005  0.1043930E+01  0.7957747E-01            NaN
         13   -1    0    0    0    0  0.00000000000E+00  0.00000000000E+00  0.74505805969E-08  0.10566000000E+00  0.10566000000E+00 0.  1.
     999900   -1    0    0    0    0 -0.00000000000E+00 -0.00000000000E+00 -0.74505805969E-08  0.93827000000E+00  0.93827000000E+00 0.  1.
     999902    2    1    2    0    0 -0.10934872424E-01  0.11057729462E-01 -0.18172393572E-01  0.10200117914E+01  0.10197313243E+01 0.  0.
     999903    2    3    3    0    0  0.32913547909E-01 -0.12218640727E+00  0.91785462477E-02  0.12848234270E+00  0.20264424926E-01 0.  0.
         14    1    1    2    0    0  0.10934872424E-01 -0.11057729462E-01  0.18172393572E-01  0.23918208627E-01  0.00000000000E+00 0.  1.
     999901    1    3    3    0    0 -0.43848420333E-01  0.13324413673E+00 -0.27350939820E-01  0.89152944867E+00  0.88000000000E+00 0. -1.
        -11    1    4    4    0    0  0.20890340895E-01 -0.49974185885E-01  0.10904516645E-01  0.55253915715E-01  0.51100000000E-03 0. -1.
         11    1    4    4    0    0  0.12023207014E-01 -0.72212221384E-01 -0.17259703971E-02  0.73228426987E-01  0.51100000000E-03 0.  1.
</event>
<event>
 8    1  0.1132255E+005  0.1043930E+01  0.7957747E-01            NaN
         13   -1    0    0    0    0  0.00000000000E+00  0.00000000000E+00  0.74505805969E-08  0.10566000000E+00  0.10566000000E+00 0.  1.
     999900   -1    0    0    0    0 -0.00000000000E+00 -0.00000000000E+00 -0.74505805969E-08  0.93827000000E+00  0.93827000000E+00 0.  1.
     999902    2    1    2    0    0 -0.17612134455E-01 -0.19163943107E-01 -0.27240912048E-02  0.10177600808E+01  0.10174235684E+01 0.  0.
     999903    2    3    3    0    0  0.63164021463E-01 -0.87777231844E-01 -0.67355119263E-01  0.12904767487E+00  0.20543959221E-01 0.  0.
         14    1    1    2    0    0  0.17612134455E-01  0.19163943107E-01  0.27240912048E-02  0.26169919151E-01  0.00000000000E+00 0.  1.
     999901    1    3    3    0    0 -0.80776155918E-01  0.68613288737E-01  0.64631028058E-01  0.88871240598E+00  0.88000000000E+00 0. -1.
        -11    1    4    4    0    0  0.19846693236E-01 -0.23370216684E-01 -0.90622660575E-02  0.31975678997E-01  0.51100000000E-03 0. -1.
         11    1    4    4    0    0  0.43317328227E-01 -0.64407015160E-01 -0.58292853205E-01  0.97071995871E-01  0.51100000000E-03 0.  1.
</event>
<event>
 8    1  0.1132255E+005  0.1043930E+01  0.7957747E-01            NaN
         13   -1    0    0    0    0  0.00000000000E+00  0.00000000000E+00  0.74505805969E-08  0.10566000000E+00  0.10566000000E+00 0. -1.
     999900   -1    0    0    0    0 -0.00000000000E+00 -0.00000000000E+00 -0.74505805969E-08  0.93827000000E+00  0.93827000000E+00 0.  1.
     999902    2    1    2    0    0  0.46294188842E-02  0.18844173980E-01  0.13689425797E-01  0.10201826888E+01  0.10199062622E+01 0.  0.
     999903    2    3    3    0    0  0.65604812898E-02  0.10128684362E-01  0.13030302292E+00  0.13244487849E+00  0.20423953907E-01 0.  0.
         14    1    1    2    0    0 -0.46294188842E-02 -0.18844173980E-01 -0.13689425797E-01  0.23747311234E-01  0.00000000000E+00 0.  1.
     999901    1    3    3    0    0 -0.19310624056E-02  0.87154896185E-02 -0.11661359713E+00  0.88773781028E+00  0.88000000000E+00 0.  1.
        -11    1    4    4    0    0  0.12803480641E-01  0.30263939012E-02  0.55267131853E-01  0.56813776153E-01  0.51100000000E-03 0.  1.
         11    1    4    4    0    0 -0.62429993508E-02  0.71022904605E-02  0.75035891071E-01  0.75631102336E-01  0.51100000000E-03 0. -1.
</event>
<event>
 8    1  0.1132255E+005  0.1043930E+01  0.7957747E-01            NaN
         13   -1    0    0    0    0  0.00000000000E+00  0.00000000000E+00  0.74505805969E-08  0.10566000000E+00  0.10566000000E+00 0. -1.
     999900   -1    0    0    0    0 -0.00000000000E+00 -0.00000000000E+00 -0.74505805969E-08  0.93827000000E+00  0.93827000000E+00 0.  1.
     999902    2    1    2    0    0 -0.12880679461E-01  0.13653431028E-01  0.15756726038E-01  0.10194228072E+01  0.10191281850E+01 0.  0.
     999903    2    3    3    0    0 -0.70372001108E-01 -0.52287036229E-01  0.95774766358E-01  0.13147219820E+00  0.20639290980E-01 0.  0.
         14    1    1    2    0    0  0.12880679461E-01 -0.13653431028E-01 -0.15756726038E-01  0.24507192774E-01  0.00000000000E+00 0.  1.
     999901    1    3    3    0    0  0.57491321647E-01  0.65940467257E-01 -0.80018040320E-01  0.88795060902E+00  0.88000000000E+00 0.  1.
        -11    1    4    4    0    0 -0.96182435127E-02 -0.13682327011E-01  0.99925530284E-02  0.19489200028E-01  0.51100000000E-03 0.  1.
         11    1    4    4    0    0 -0.60753757595E-01 -0.38604709217E-01  0.85782213330E-01  0.11198299818E+00  0.51100000000E-03 0. -1.
</event>
<event>
 8    1  0.1132255E+005  0.1043930E+01  0.7957747E-01            NaN
         13   -1    0    0    0    0  0.00000000000E+00  0.00000000000E+00  0.74505805969E-08  0.10566000000E+00  0.10566000000E+00 0.  1.
     999900   -1    0    0    0    0 -0.00000000000E+00 -0.00000000000E+00 -0.74505805969E-08  0.93827000000E+00  0.93827000000E+00 0.  1.
     999902    2    1    2    0    0  0.14281745262E-01 -0.22387974064E-02 -0.18401350025E-01  0.10205293559E+01  0.10202610333E+01 0.  0.
     999903    2    3    3    0    0  0.36874993349E-01 -0.10477809765E+00  0.65277741700E-01  0.13034569320E+00  0.19763635564E-01 0.  0.
         14    1    1    2    0    0 -0.14281745262E-01  0.22387974064E-02  0.18401350025E-01  0.23400644100E-01  0.00000000000E+00 0.  1.
     999901    1    3    3    0    0 -0.22593248086E-01  0.10253930025E+00 -0.83679091725E-01  0.89018366270E+00  0.88000000000E+00 0.  1.
        -11    1    4    4    0    0  0.10784896560E-02 -0.28258614956E-01  0.18204646556E-01  0.33636033303E-01  0.51100000000E-03 0.  1.
         11    1    4    4    0    0  0.35796503693E-01 -0.76519482698E-01  0.47073095144E-01  0.96709659892E-01  0.51100000000E-03 0. -1.
</event>
<event>
 8    1  0.1132255E+005  0.1043930E+01  0.7957747E-01            NaN
         13   -1    0    0    0    0  0.00000000000E+00  0.00000000000E+00  0.74505805969E-08  0.10566000000E+00  0.10566000000E+00 0.  1.
     999900   -1    0    0    0    0 -0.00000000000E+00 -0.00000000000E+00 -0.74505805969E-08  0.93827000000E+00  0.93827000000E+00 0.  1.
     999902    2    1    2    0    0 -0.12049805237E-01 -0.74962386919E-02 -0.16158855260E-01  0.10224241867E+01  0.10221979836E+01 0.  0.
     999903    2    3    3    0    0  0.12926084020E+00 -0.33653694947E-02 -0.83063968002E-02  0.13110638500E+00  0.20004935380E-01 0.  0.
         14    1    1    2    0    0  0.12049805237E-01  0.74962386919E-02  0.16158855260E-01  0.21505813263E-01  0.00000000000E+00 0.  1.
     999901    1    3    3    0    0 -0.14131064543E+00 -0.41308691972E-02 -0.78524584598E-02  0.89131780174E+00  0.88000000000E+00 0. -1.
        -11    1    4    4    0    0  0.24833219493E-01 -0.12819379952E-02 -0.95697889477E-02  0.26649092609E-01  0.51100000000E-03 0. -1.
         11    1    4    4    0    0  0.10442762070E+00 -0.20834314996E-02  0.12633921475E-02  0.10445729239E+00  0.51100000000E-03 0.  1.
</event>
<event>
 8    1  0.1132255E+005  0.1043930E+01  0.7957747E-01            NaN
         13   -1    0    0    0    0  0.00000000000E+00  0.00000000000E+00  0.74505805969E-08  0.10566000000E+00  0.10566000000E+00 0. -1.
     999900   -1    0    0    0    0 -0.00000000000E+00 -0.00000000000E+00 -0.74505805969E-08  0.93827000000E+00  0.93827000000E+00 0. -1.
     999902    2    1    2    0    0 -0.19670649524E-01 -0.56668718734E-04  0.13970100834E-01  0.10198032227E+01  0.10195177839E+01 0.  0.
     999903    2    3    3    0    0 -0.74235181143E-02  0.11237335544E+00  0.64367800436E-01  0.13113543853E+00  0.19246035196E-01 0.  0.
         14    1    1    2    0    0  0.19670649524E-01  0.56668718734E-04 -0.13970100834E-01  0.24126777268E-01  0.00000000000E+00 0.  1.
     999901    1    3    3    0    0 -0.12247131410E-01 -0.11243002416E+00 -0.50397699602E-01  0.88866778421E+00  0.88000000000E+00 0. -1.
        -11    1    4    4    0    0 -0.61836395518E-02  0.15601683019E-01  0.14884561431E-01  0.22437941107E-01  0.51100000000E-03 0. -1.
         11    1    4    4    0    0 -0.12398785625E-02  0.96771672419E-01  0.49483239005E-01  0.10869749742E+00  0.51100000000E-03 0.  1.
</event>
<event>
 8    1  0.1132255E+005  0.1043930E+01  0.7957747E-01            NaN
         13   -1    0    0    0    0  0.00000000000E+00  0.00000000000E+00  0.74505805969E-08  0.10566000000E+00  0.10566000000E+00 0. -1.
     999900   -1    0    0    0    0 -0.00000000000E+00 -0.00000000000E+00 -0.74505805969E-08  0.93827000000E+00  0.93827000000E+00 0. -1.
     999902    2    1    2    0    0  0.38365701731E-02  0.21970317721E-01  0.89162816135E-02  0.10199109615E+01  0.10196280965E+01 0.  0.
     999903    2    3    3    0    0 -0.24228254584E-01 -0.52681544637E-01  0.11448635237E+00  0.13002019588E+00  0.20875176478E-01 0.  0.
         14    1    1    2    0    0 -0.38365701731E-02 -0.21970317721E-01 -0.89162816135E-02  0.24019038475E-01  0.00000000000E+00 0.  1.
     999901    1    3    3    0    0  0.28064824757E-01  0.74651862359E-01 -0.10557007075E+00  0.88989076565E+00  0.88000000000E+00 0. -1.
        -11    1    4    4    0    0 -0.16375296468E-01 -0.14542328598E-01  0.31711718312E-01  0.38542494143E-01  0.51100000000E-03 0.  1.
         11    1    4    4    0    0 -0.78529581162E-02 -0.38139216039E-01  0.82774634054E-01  0.91477701737E-01  0.51100000000E-03 0. -1.
</event>
<event>
 8    1  0.1132255E+005  0.1043930E+01  0.7957747E-01            NaN
         13   -1    0    0    0    0  0.00000000000E+00  0.00000000000E+00  0.74505805969E-08  0.10566000000E+00  0.10566000000E+00 0.  1.
     999900   -1    0    0    0    0 -0.00000000000E+00 -0.00000000000E+00 -0.74505805969E-08  0.93827000000E+00  0.93827000000E+00 0. -1.
     999902    2    1    2    0    0  0.17286178710E-01  0.33316636649E-02  0.18197042227E-01  0.10186111473E+01  0.10182964328E+01 0.  0.
     999903    2    3    3    0    0  0.74884557993E-01 -0.47357340221E-01  0.95502158035E-01  0.13189640773E+00  0.20629723306E-01 0.  0.
         14    1    1    2    0    0 -0.17286178710E-01 -0.33316636649E-02 -0.18197042227E-01  0.25318852719E-01  0.00000000000E+00 0.  1.
     999901    1    3    3    0    0 -0.57598379283E-01  0.50689003886E-01 -0.77305115808E-01  0.88671473955E+00  0.88000000000E+00 0. -1.
        -11    1    4    4    0    0  0.26634686955E-01 -0.14319026881E-01  0.19443087084E-01  0.35954635812E-01  0.51100000000E-03 0.  1.
         11    1    4    4    0    0  0.48249871038E-01 -0.33038313340E-01  0.76059070951E-01  0.95941771916E-01  0.51100000000E-03 0. -1.
</event>
<event>
 8    1  0.1132255E+005  0.1043930E+01  0.7957747E-01            NaN
         13   -1    0    0    0    0  0.00000000000E+00  0.00000000000E+00  0.74505805969E-08  0.10566000000E+00  0.10566000000E+00 0. -1.
     999900   -1    0    0    0    0 -0.00000000000E+00 -0.00000000000E+00 -0.74505805969E-08  0.93827000000E+00  0.93827000000E+00 0.  1.
     999902    2    1    2    0    0 -0.12132793348E-01 -0.12313687747E-01 -0.14939635825E-01  0.10210821489E+01  0.10208264938E+01 0.  0.
     999903    2    3    3    0    0 -0.73009770133E-01  0.64026445003E-01  0.84178898014E-01  0.13015100348E+00  0.20576312614E-01 0.  0.
         14    1    1    2    0    0  0.12132793348E-01  0.12313687747E-01  0.14939635825E-01  0.22847851079E-01  0.00000000000E+00 0. -1.
     999901    1    3    3    0    0  0.60876976785E-01 -0.76340132749E-01 -0.99118533839E-01  0.89093114544E+00  0.88000000000E+00 0.  1.
        -11    1    4    4    0    0 -0.49527019765E-01  0.55219763003E-01  0.62944723023E-01  0.97285390426E-01  0.51100000000E-03 0.  1.
         11    1    4    4    0    0 -0.23482750368E-01  0.88066819996E-02  0.21234174991E-01  0.32865613051E-01  0.51100000000E-03 0. -1.
</event>
<event>
 8    1  0.1132255E+005  0.1043930E+01  0.7957747E-01            NaN
         13   -1    0    0    0    0  0.00000000000E+00  0.00000000000E+00  0.74505805969E-08  0.10566000000E+00  0.10566000000E+00 0.  1.
     999900   -1    0    0    0    0 -0.00000000000E+00 -0.00000000000E+00 -0.74505805969E-08  0.93827000000E+00  0.93827000000E+00 0.  1.
     999902    2    1    2    0    0 -0.93667313309E-02  0.18088647888E-01  0.13204685379E-01  0.10196545277E+01  0.10193655171E+01 0.  0.
     999903    2    3    3    0    0  0.89965394717E-01  0.41387359058E-01  0.83434982100E-01  0.13098023656E+00  0.19691124748E-01 0.  0.
         14    1    1    2    0    0  0.93667313309E-02 -0.18088647888E-01 -0.13204685379E-01  0.24275472276E-01  0.00000000000E+00 0. -1.
     999901    1    3    3    0    0 -0.99332126047E-01 -0.23298711170E-01 -0.70230296720E-01  0.88867429117E+00  0.88000000000E+00 0.  1.
        -11    1    4    4    0    0  0.51513930419E-01  0.16789404695E-01  0.35446565014E-01  0.64747889769E-01  0.51100000000E-03 0.  1.
         11    1    4    4    0    0  0.38451464298E-01  0.24597954363E-01  0.47988417086E-01  0.66232346787E-01  0.51100000000E-03 0. -1.
</event>
<event>
 8    1  0.1132255E+005  0.1043930E+01  0.7957747E-01            NaN
         13   -1    0    0    0    0  0.00000000000E+00  0.00000000000E+00  0.74505805969E-08  0.10566000000E+00  0.10566000000E+00 0.  1.
     999900   -1    0    0    0    0 -0.00000000000E+00 -0.00000000000E+00 -0.74505805969E-08  0.93827000000E+00  0.93827000000E+00 0. -1.
     999902    2    1    2    0    0  0.82410670331E-02 -0.10366632105E-01  0.19132209431E-01  0.10206614873E+01  0.10203962210E+01 0.  0.
     999903    2    3    3    0    0 -0.99086469993E-01 -0.22037065413E-01  0.81735346846E-01  0.13185636125E+00  0.20041763667E-01 0.  0.
         14    1    1    2    0    0 -0.82410670331E-02  0.10366632105E-01 -0.19132209431E-01  0.23268512732E-01  0.00000000000E+00 0. -1.
     999901    1    3    3    0    0  0.10732753703E+00  0.11670433308E-01 -0.62603137415E-01  0.88880512602E+00  0.88000000000E+00 0. -1.
        -11    1    4    4    0    0 -0.54902118808E-01 -0.30781398430E-02  0.49317469035E-01  0.73866037308E-01  0.51100000000E-03 0. -1.
         11    1    4    4    0    0 -0.44184351185E-01 -0.18958925570E-01  0.32417877811E-01  0.57990323944E-01  0.51100000000E-03 0.  1.
</event>
<event>
 8    1  0.1132255E+005  0.1043930E+01  0.7957747E-01            NaN
         13   -1    0    0    0    0  0.00000000000E+00  0.00000000000E+00  0.74505805969E-08  0.10566000000E+00  0.10566000000E+00 0.  1.
     999900   -1    0    0    0    0 -0.00000000000E+00 -0.00000000000E+00 -0.74505805969E-08  0.93827000000E+00  0.93827000000E+00 0. -1.
     999902    2    1    2    0    0  0.11565244862E-01  0.13339803438E-01  0.15665899534E-01  0.10203264907E+01  0.10200534407E+01 0.  0.
     999903    2    3    3    0    0 -0.10153967190E+00 -0.76230721532E-01  0.52284562864E-02  0.12851679048E+00  0.19178133482E-01 0.  0.
         14    1    1    2    0    0 -0.11565244862E-01 -0.13339803438E-01 -0.15665899534E-01  0.23603509330E-01  0.00000000000E+00 0. -1.
     999901    1    3    3    0    0  0.11310491676E+00  0.89570524971E-01  0.10437443248E-01  0.89180970019E+00  0.88000000000E+00 0. -1.
        -11    1    4    4    0    0 -0.51629514536E-01 -0.32152805334E-01 -0.54823350867E-02  0.61071489101E-01  0.51100000000E-03 0. -1.
         11    1    4    4    0    0 -0.49910157365E-01 -0.44077916198E-01  0.10710791373E-01  0.67445301374E-01  0.51100000000E-03 0.  1.
</event>
<event>
 8    1  0.1132255E+005  0.1043930E+01  0.7957747E-01            NaN
         13   -1    0    0    0    0  0.00000000000E+00  0.00000000000E+00  0.74505805969E-08  0.10566000000E+00  0.10566000000E+00 0. -1.
     999900   -1    0    0    0    0 -0.00000000000E+00 -0.00000000000E+00 -0.74505805969E-08  0.93827000000E+00  0.93827000000E+00 0. -1.
     999902    2    1    2    0    0 -0.13653371195E-01  0.49431729696E-02 -0.18387692244E-01  0.10205001743E+01  0.10202311743E+01 0.  0.
     999903    2    3    3    0    0  0.13344006493E-02  0.31466012299E-01  0.12318709873E+00  0.12866413799E+00  0.19685237031E-01 0.  0.
         14    1    1    2    0    0  0.13653371195E-01 -0.49431729696E-02  0.18387692244E-01  0.23429825652E-01  0.00000000000E+00 0. -1.
     999901    1    3    3    0    0 -0.14987771844E-01 -0.26522839329E-01 -0.14157479097E+00  0.89183603636E+00  0.88000000000E+00 0. -1.
        -11    1    4    4    0    0 -0.23128432572E-02  0.72745191490E-02  0.66264675064E-01  0.66704843565E-01  0.51100000000E-03 0. -1.
         11    1    4    4    0    0  0.36472439065E-02  0.24191493150E-01  0.56922423662E-01  0.61959294424E-01  0.51100000000E-03 0.  1.
</event>
<event>
 8    1  0.1132255E+005  0.1043930E+01  0.7957747E-01            NaN
         13   -1    0    0    0    0  0.00000000000E+00  0.00000000000E+00  0.74505805969E-08  0.10566000000E+00  0.10566000000E+00 0. -1.
     999900   -1    0    0    0    0 -0.00000000000E+00 -0.00000000000E+00 -0.74505805969E-08  0.93827000000E+00  0.93827000000E+00 0.  1.
     999902    2    1    2    0    0 -0.21671502833E-01 -0.13367870549E-01 -0.65415258151E-02  0.10176403526E+01  0.10173007135E+01 0.  0.
     999903    2    3    3    0    0  0.91548780154E-01 -0.44483834837E-01  0.71167427582E-01  0.12644692967E+00  0.23749369788E-01 0.  0.
         14    1    1    2    0    0  0.21671502833E-01  0.13367870549E-01  0.65415258151E-02  0.26289647355E-01  0.00000000000E+00 0.  1.
     999901    1    3    3    0    0 -0.11322028299E+00  0.31115964287E-01 -0.77708953397E-01  0.89119342297E+00  0.88000000000E+00 0.  1.
        -11    1    4    4    0    0  0.31115961052E-01 -0.80664595997E-02  0.33628990871E-01  0.46523552644E-01  0.51100000000E-03 0.  1.
         11    1    4    4    0    0  0.60432819102E-01 -0.36417375237E-01  0.37538436711E-01  0.79923377027E-01  0.51100000000E-03 0. -1.
</event>
<event>
 8    1  0.1132255E+005  0.1043930E+01  0.7957747E-01            NaN
         13   -1    0    0    0    0  0.00000000000E+00  0.00000000000E+00  0.74505805969E-08  0.10566000000E+00  0.10566000000E+00 0. -1.
     999900   -1    0    0    0    0 -0.00000000000E+00 -0.00000000000E+00 -0.74505805969E-08  0.93827000000E+00  0.93827000000E+00 0. -1.
     999902    2    1    2    0    0 -0.22551207613E-01  0.44096990984E-02  0.60110685333E-02  0.10201784662E+01  0.10199019402E+01 0.  0.
     999903    2    3    3    0    0  0.47539052712E-01 -0.31451085379E-01  0.11534625802E+00  0.12992410702E+00  0.18066046626E-01 0.  0.
         14    1    1    2    0    0  0.22551207613E-01 -0.44096990984E-02 -0.60110685333E-02  0.23751533758E-01  0.00000000000E+00 0.  1.
     999901    1    3    3    0    0 -0.70090260325E-01  0.35860784477E-01 -0.10933518949E+00  0.89025435922E+00  0.88000000000E+00 0. -1.
        -11    1    4    4    0    0  0.10263175832E-01 -0.10955079921E-01  0.47733414399E-01  0.50040848568E-01  0.51100000000E-03 0. -1.
         11    1    4    4    0    0  0.37275876880E-01 -0.20496005458E-01  0.67612843623E-01  0.79883258451E-01  0.51100000000E-03 0.  1.
</event>
<event>
 8    1  0.1132255E+005  0.1043930E+01  0.7957747E-01            NaN
         13   -1    0    0    0    0  0.00000000000E+00  0.00000000000E+00  0.74505805969E-08  0.10566000000E+00  0.10566000000E+00 0.  1.
     999900   -1    0    0    0    0 -0.00000000000E+00 -0.00000000000E+00 -0.74505805969E-08  0.93827000000E+00  0.93827000000E+00 0.  1.
     999902    2    1    2    0    0 -0.22072553502E-01  0.43380953273E-02 -0.76595657996E-02  0.10201668849E+01  0.10198900860E+01 0.  0.
     999903    2    3    3    0    0  0.84870188156E-01  0.85357505033E-01 -0.43233727076E-01  0.12928731076E+00  0.18899763574E-01 0.  0.
         14    1    1    2    0    0  0.22072553502E-01 -0.43380953273E-02  0.76595657996E-02  0.23763115061E-01  0.00000000000E+00 0.  1.
     999901    1    3    3    0    0 -0.10694274166E+00 -0.81019409706E-01  0.35574161276E-01  0.89087957418E+00  0.88000000000E+00 0. -1.
        -11    1    4    4    0    0  0.37343964065E-01  0.47700423734E-01 -0.28139453458E-01  0.66798143974E-01  0.51100000000E-03 0.  1.
         11    1    4    4    0    0  0.47526224091E-01  0.37657081299E-01 -0.15094273618E-01  0.62489166784E-01  0.51100000000E-03 0. -1.
</event>
<event>
 8    1  0.1132255E+005  0.1043930E+01  0.7957747E-01            NaN
         13   -1    0    0    0    0  0.00000000000E+00  0.00000000000E+00  0.74505805969E-08  0.10566000000E+00  0.10566000000E+00 0. -1.
     999900   -1    0    0    0    0 -0.00000000000E+00 -0.00000000000E+00 -0.74505805969E-08  0.93827000000E+00  0.93827000000E+00 0. -1.
     999902    2    1    2    0    0  0.19378823211E-02 -0.22971937816E-01 -0.56958049132E-02  0.10201832632E+01  0.10199068502E+01 0.  0.
     999903    2    3    3    0    0  0.12600444602E-01  0.11989514268E+00 -0.38552601548E-01  0.12799255376E+00  0.19030877290E-01 0.  0.
         14    1    1    2    0    0 -0.19378823211E-02  0.22971937816E-01  0.56958049132E-02  0.23746736797E-01  0.00000000000E+00 0. -1.
     999901    1    3    3    0    0 -0.10662562281E-01 -0.14286708050E+00  0.32856796635E-01  0.89219070944E+00  0.88000000000E+00 0.  1.
        -11    1    4    4    0    0 -0.37623601731E-02  0.28975838063E-01 -0.46739069038E-02  0.29594950114E-01  0.51100000000E-03 0.  1.
         11    1    4    4    0    0  0.16362804775E-01  0.90919304617E-01 -0.33878694644E-01  0.98397603649E-01  0.51100000000E-03 0. -1.
</event>
<event>
 8    1  0.1132255E+005  0.1043930E+01  0.7957747E-01            NaN
         13   -1    0    0    0    0  0.00000000000E+00  0.00000000000E+00  0.74505805969E-08  0.10566000000E+00  0.10566000000E+00 0.  1.
     999900   -1    0    0    0    0 -0.00000000000E+00 -0.00000000000E+00 -0.74505805969E-08  0.93827000000E+00  0.93827000000E+00 0.  1.
     999902    2    1    2    0    0  0.52594179829E-02  0.20723507529E-01 -0.89466918269E-02  0.10207531034E+01  0.10204899458E+01 0.  0.
     999903    2    3    3    0    0 -0.50060048812E-01  0.13223947246E-01  0.11757941941E+00  0.12995270844E+00  0.19542397406E-01 0.  0.
         14    1    1    2    0    0 -0.52594179829E-02 -0.20723507529E-01  0.89466918269E-02  0.23176896610E-01  0.00000000000E+00 0.  1.
     999901    1    3    3    0    0  0.55319466795E-01  0.74995602824E-02 -0.12652611123E+00  0.89080039495E+00  0.88000000000E+00 0.  1.
        -11    1    4    4    0    0 -0.96545715054E-02  0.50526885960E-03  0.43972526794E-01  0.45025662474E-01  0.51100000000E-03 0. -1.
         11    1    4    4    0    0 -0.40405477307E-01  0.12718678387E-01  0.73606892613E-01  0.84927045971E-01  0.51100000000E-03 0.  1.
</event>
<event>
 8    1  0.1132255E+005  0.1043930E+01  0.7957747E-01            NaN
         13   -1    0    0    0    0  0.00000000000E+00  0.00000000000E+00  0.74505805969E-08  0.10566000000E+00  0.10566000000E+00 0. -1.
     999900   -1    0    0    0    0 -0.00000000000E+00 -0.00000000000E+00 -0.74505805969E-08  0.93827000000E+00  0.93827000000E+00 0. -1.
     999902    2    1    2    0    0 -0.20842101192E-01  0.10668840524E-01 -0.47533843362E-02  0.10200383278E+01  0.10197584901E+01 0.  0.
     999903    2    3    3    0    0  0.71999866485E-01  0.92831741135E-01  0.50944307141E-01  0.12960438521E+00  0.20006531400E-01 0.  0.
         14    1    1    2    0    0  0.20842101192E-01 -0.10668840524E-01  0.47533843362E-02  0.23891672249E-01  0.00000000000E+00 0.  1.
     999901    1    3    3    0    0 -0.92841967677E-01 -0.82162900611E-01 -0.55697691478E-01  0.89043394254E+00  0.88000000000E+00 0. -1.
        -11    1    4    4    0    0  0.23544153281E-01  0.45045580982E-01  0.26231993751E-01  0.57199738958E-01  0.51100000000E-03 0. -1.
         11    1    4    4    0    0  0.48455713204E-01  0.47786160153E-01  0.24712313390E-01  0.72404646248E-01  0.51100000000E-03 0.  1.
</event>
<event>
 8    1  0.1132255E+005  0.1043930E+01  0.7957747E-01            NaN
         13   -1    0    0    0    0  0.00000000000E+00  0.00000000000E+00  0.74505805969E-08  0.10566000000E+00  0.10566000000E+00 0. -1.
     999900   -1    0    0    0    0 -0.00000000000E+00 -0.00000000000E+00 -0.74505805969E-08  0.93827000000E+00  0.93827000000E+00 0.  1.
     999902    2    1    2    0    0 -0.20300973465E-01  0.10066942873E-01 -0.41634604149E-03  0.10212662358E+01  0.10210147297E+01 0.  0.
     999903    2    3    3    0    0 -0.57403406242E-01 -0.48356453303E-01  0.10684764779E+00  0.13205566003E+00  0.19717501934E-01 0.  0.
         14    1    1    2    0    0  0.20300973465E-01 -0.10066942873E-01  0.41634604149E-03  0.22663764173E-01  0.00000000000E+00 0. -1.
     999901    1    3    3    0    0  0.37102432777E-01  0.58423396176E-01 -0.10726399383E+00  0.88921057580E+00  0.88000000000E+00 0.  1.
        -11    1    4    4    0    0 -0.45574723087E-01 -0.31310934987E-01  0.64958461666E-01  0.85307050689E-01  0.51100000000E-03 0. -1.
         11    1    4    4    0    0 -0.11828683155E-01 -0.17045518316E-01  0.41889186126E-01  0.46748609339E-01  0.51100000000E-03 0.  1.
</event>
<event>
 8    1  0.1132255E+005  0.1043930E+01  0.7957747E-01            NaN
         13   -1    0    0    0    0  0.00000000000E+00  0.00000000000E+00  0.74505805969E-08  0.10566000000E+00  0.10566000000E+00 0. -1.
     999900   -1    0    0    0    0 -0.00000000000E+00 -0.00000000000E+00 -0.74505805969E-08  0.93827000000E+00  0.93827000000E+00 0.  1.
     999902    2    1    2    0    0  0.11670928995E-01  0.22901315066E-02 -0.16384303334E-01  0.10236839959E+01  0.10234837677E+01 0.  0.
     999903    2    3    3    0    0 -0.16672295181E-01 -0.18385769734E-01  0.12763000508E+00  0.13128781019E+00  0.18195300319E-01 0.  0.
         14    1    1    2    0    0 -0.11670928995E-01 -0.22901315066E-02  0.16384303334E-01  0.20246004091E-01  0.00000000000E+00 0. -1.
     999901    1    3    3    0    0  0.28343224176E-01  0.20675901240E-01 -0.14401430841E+00  0.89239618571E+00  0.88000000000E+00 0.  1.
        -11    1    4    4    0    0 -0.11671686928E-01 -0.10153057603E-01  0.36466343697E-01  0.39615252088E-01  0.51100000000E-03 0.  1.
         11    1    4    4    0    0 -0.50006082530E-02 -0.82327121305E-02  0.91163661383E-01  0.91672558106E-01  0.51100000000E-03 0. -1.
</event>
<event>
 8    1  0.1132255E+005  0.1043930E+01  0.7957747E-01            NaN
         13   -1    0    0    0    0  0.00000000000E+00  0.00000000000E+00  0.74505805969E-08  0.10566000000E+00  0.10566000000E+00 0.  1.
     999900   -1    0    0    0    0 -0.00000000000E+00 -0.00000000000E+00 -0.74505805969E-08  0.93827000000E+00  0.93827000000E+00 0. -1.
     999902    2    1    2    0    0  0.84313537690E-02  0.17380109360E-01  0.14991265731E-01  0.10194781294E+01  0.10191848519E+01 0.  0.
     999903    2    3    3    0    0  0.10368269374E+00  0.40208964767E-01  0.69416979236E-01  0.13237264937E+00  0.18355910936E-01 0.  0.
         14    1    1    2    0    0 -0.84313537690E-02 -0.17380109360E-01 -0.14991265731E-01  0.24451870602E-01  0.00000000000E+00 0. -1.
     999901    1    3    3    0    0 -0.95251339970E-01 -0.22828855408E-01 -0.54425713505E-01  0.88710548003E+00  0.88000000000E+00 0. -1.
        -11    1    4    4    0    0  0.65751718519E-01  0.32323753430E-01  0.38279779695E-01  0.82666294090E-01  0.51100000000E-03 0.  1.
         11    1    4    4    0    0  0.37930975220E-01  0.78852113371E-02  0.31137199541E-01  0.49706355280E-01  0.51100000000E-03 0. -1.
</event>
<event>
 8    1  0.1132255E+005  0.1043930E+01  0.7957747E-01            NaN
         13   -1    0    0    0    0  0.00000000000E+00  0.00000000000E+00  0.74505805969E-08  0.10566000000E+00  0.10566000000E+00 0.  1.
     999900   -1    0    0    0    0 -0.00000000000E+00 -0.00000000000E+00 -0.74505805969E-08  0.93827000000E+00  0.93827000000E+00 0.  1.
     999902    2    1    2    0    0 -0.21429063652E-01  0.18496100531E-03  0.67917530047E-02  0.10214496333E+01  0.10212022260E+01 0.  0.
     999903    2    3    3    0    0 -0.75075553714E-01  0.59594549018E-01 -0.89421071834E-01  0.13259399105E+00  0.19929609519E-01 0.  0.
         14    1    1    2    0    0  0.21429063652E-01 -0.18496100531E-03 -0.67917530047E-02  0.22480366733E-01  0.00000000000E+00 0.  1.
     999901    1    3    3    0    0  0.53646490062E-01 -0.59409588013E-01  0.96212824839E-01  0.88885564222E+00  0.88000000000E+00 0.  1.
        -11    1    4    4    0    0 -0.52330701833E-01  0.32378910529E-01 -0.47904565783E-01  0.77987208856E-01  0.51100000000E-03 0.  1.
         11    1    4    4    0    0 -0.22744851881E-01  0.27215638489E-01 -0.41516506052E-01  0.54606782191E-01  0.51100000000E-03 0. -1.
</event>
<event>
 8    1  0.1132255E+005  0.1043930E+01  0.7957747E-01            NaN
         13   -1    0    0    0    0  0.00000000000E+00  0.00000000000E+00  0.74505805969E-08  0.10566000000E+00  0.10566000000E+00 0. -1.
     999900   -1    0    0    0    0 -0.00000000000E+00 -0.00000000000E+00 -0.74505805969E-08  0.93827000000E+00  0.93827000000E+00 0. -1.
     999902    2    1    2    0    0  0.61588159712E-02 -0.16319658050E-01 -0.14888253293E-01  0.10209970033E+01  0.10207394175E+01 0.  0.
     999903    2    3    3    0    0  0.18209461808E-01  0.12424924643E+00 -0.25574766130E-01  0.12969512594E+00  0.19932317791E-01 0.  0.
         14    1    1    2    0    0 -0.61588159712E-02  0.16319658050E-01  0.14888253293E-01  0.22932996733E-01  0.00000000000E+00 0. -1.
     999901    1    3    3    0    0 -0.12050645837E-01 -0.14056890448E+00  0.10686512837E-01  0.89130187733E+00  0.88000000000E+00 0.  1.
        -11    1    4    4    0    0  0.11975218466E-01  0.25908009074E-01 -0.74457987920E-02  0.29501386953E-01  0.51100000000E-03 0.  1.
         11    1    4    4    0    0  0.62342433424E-02  0.98341237354E-01 -0.18128967338E-01  0.10019373899E+00  0.51100000000E-03 0. -1.
</event>
<event>
 8    1  0.1132255E+005  0.1043930E+01  0.7957747E-01            NaN
         13   -1    0    0    0    0  0.00000000000E+00  0.00000000000E+00  0.74505805969E-08  0.10566000000E+00  0.10566000000E+00 0.  1.
     999900   -1    0    0    0    0 -0.00000000000E+00 -0.00000000000E+00 -0.74505805969E-08  0.93827000000E+00  0.93827000000E+00 0.  1.
     999902    2    1    2    0    0 -0.59240592160E-03 -0.20785040161E-01 -0.11146063297E-01  0.10203375528E+01  0.10200647617E+01 0.  0.
     999903    2    3    3    0    0  0.11525427782E+00  0.41124229327E-01  0.35367390154E-01  0.12937362918E+00  0.22625933092E-01 0.  0.
         14    1    1    2    0    0  0.59240592160E-03  0.20785040161E-01  0.11146063297E-01  0.23592447230E-01  0.00000000000E+00 0.  1.
     999901    1    3    3    0    0 -0.11584668374E+00 -0.61909269488E-01 -0.46513453451E-01  0.89096392359E+00  0.88000000000E+00 0.  1.
        -11    1    4    4    0    0  0.79830392384E-01  0.17437554923E-01  0.20598534939E-01  0.84270520543E-01  0.51100000000E-03 0.  1.
         11    1    4    4    0    0  0.35423885435E-01  0.23686674404E-01  0.14768855215E-01  0.45103108640E-01  0.51100000000E-03 0. -1.
</event>
<event>
 8    1  0.1132255E+005  0.1043930E+01  0.7957747E-01            NaN
         13   -1    0    0    0    0  0.00000000000E+00  0.00000000000E+00  0.74505805969E-08  0.10566000000E+00  0.10566000000E+00 0.  1.
     999900   -1    0    0    0    0 -0.00000000000E+00 -0.00000000000E+00 -0.74505805969E-08  0.93827000000E+00  0.93827000000E+00 0.  1.
     999902    2    1    2    0    0 -0.15996811091E-01 -0.87433423713E-02 -0.13668077891E-01  0.10211449094E+01  0.10208906727E+01 0.  0.
     999903    2    3    3    0    0  0.83459110303E-01  0.48288511831E-01 -0.85701904125E-01  0.13078937096E+00  0.21536938438E-01 0.  0.
         14    1    1    2    0    0  0.15996811091E-01  0.87433423713E-02  0.13668077891E-01  0.22785090611E-01  0.00000000000E+00 0.  1.
     999901    1    3    3    0    0 -0.99455921395E-01 -0.57031854203E-01  0.72033826234E-01  0.89035553843E+00  0.88000000000E+00 0.  1.
        -11    1    4    4    0    0  0.41504271639E-01  0.34206045889E-01 -0.54977777778E-01  0.76912127198E-01  0.51100000000E-03 0.  1.
         11    1    4    4    0    0  0.41954838664E-01  0.14082465942E-01 -0.30724126347E-01  0.53877243760E-01  0.51100000000E-03 0. -1.
</event>
<event>
 8    1  0.1132255E+005  0.1043930E+01  0.7957747E-01            NaN
         13   -1    0    0    0    0  0.00000000000E+00  0.00000000000E+00  0.74505805969E-08  0.10566000000E+00  0.10566000000E+00 0.  1.
     999900   -1    0    0    0    0 -0.00000000000E+00 -0.00000000000E+00 -0.74505805969E-08  0.93827000000E+00  0.93827000000E+00 0.  1.
     999902    2    1    2    0    0  0.82829585495E-02  0.16732219137E-01 -0.15697808193E-01  0.10195374655E+01  0.10192456268E+01 0.  0.
     999903    2    3    3    0    0 -0.51656288541E-01 -0.11370730454E+00 -0.18143026139E-01  0.12790235972E+00  0.20787519642E-01 0.  0.
         14    1    1    2    0    0 -0.82829585495E-02 -0.16732219137E-01  0.15697808193E-01  0.24392534548E-01  0.00000000000E+00 0.  1.
     999901    1    3    3    0    0  0.59939247091E-01  0.13043952368E+00  0.24452179452E-02  0.89163510573E+00  0.88000000000E+00 0.  1.
        -11    1    4    4    0    0  0.54589331385E-03 -0.12074239640E-01 -0.41623584162E-02  0.12793420613E-01  0.51100000000E-03 0. -1.
         11    1    4    4    0    0 -0.52202181855E-01 -0.10163306490E+00 -0.13980667722E-01  0.11510893911E+00  0.51100000000E-03 0.  1.
</event>
<event>
 8    1  0.1132255E+005  0.1043930E+01  0.7957747E-01            NaN
         13   -1    0    0    0    0  0.00000000000E+00  0.00000000000E+00  0.74505805969E-08  0.10566000000E+00  0.10566000000E+00 0.  1.
     999900   -1    0    0    0    0 -0.00000000000E+00 -0.00000000000E+00 -0.74505805969E-08  0.93827000000E+00  0.93827000000E+00 0. -1.
     999902    2    1    2    0    0 -0.13322450545E-01 -0.19840947760E-01  0.51679209898E-02  0.10194788588E+01  0.10191855991E+01 0.  0.
     999903    2    3    3    0    0  0.67784552451E-01  0.69937649436E-01 -0.79166716078E-01  0.12720598945E+00  0.20687543526E-01 0.  0.
         14    1    1    2    0    0  0.13322450545E-01  0.19840947760E-01 -0.51679209898E-02  0.24451141157E-01  0.00000000000E+00 0. -1.
     999901    1    3    3    0    0 -0.81107002996E-01 -0.89778597196E-01  0.84334637068E-01  0.89227286940E+00  0.88000000000E+00 0.  1.
        -11    1    4    4    0    0  0.55150803085E-01  0.46746083648E-01 -0.65054016626E-01  0.97257871751E-01  0.51100000000E-03 0. -1.
         11    1    4    4    0    0  0.12633749366E-01  0.23191565788E-01 -0.14112699452E-01  0.29948117697E-01  0.51100000000E-03 0.  1.
</event>
<event>
 8    1  0.1132255E+005  0.1043930E+01  0.7957747E-01            NaN
         13   -1    0    0    0    0  0.00000000000E+00  0.00000000000E+00  0.74505805969E-08  0.10566000000E+00  0.10566000000E+00 0.  1.
     999900   -1    0    0    0    0 -0.00000000000E+00 -0.00000000000E+00 -0.74505805969E-08  0.93827000000E+00  0.93827000000E+00 0.  1.
     999902    2    1    2    0    0  0.94531812218E-03 -0.40838773487E-02 -0.19881341644E-01  0.10236115496E+01  0.10234098715E+01 0.  0.
     999903    2    3    3    0    0  0.10545693340E+00 -0.27313188591E-01 -0.77568688793E-01  0.13524782419E+00  0.20196469857E-01 0.  0.
         14    1    1    2    0    0 -0.94531812218E-03  0.40838773487E-02  0.19881341644E-01  0.20318450387E-01  0.00000000000E+00 0.  1.
     999901    1    3    3    0    0 -0.10451161527E+00  0.23229311242E-01  0.57687347148E-01  0.88836372542E+00  0.88000000000E+00 0. -1.
        -11    1    4    4    0    0  0.68906967748E-01 -0.19491226962E-01 -0.62117180967E-01  0.94799174179E-01  0.51100000000E-03 0.  1.
         11    1    4    4    0    0  0.36549965647E-01 -0.78219616285E-02 -0.15451507826E-01  0.40448650010E-01  0.51100000000E-03 0. -1.
</event>
<event>
 8    1  0.1132255E+005  0.1043930E+01  0.7957747E-01            NaN
         13   -1    0    0    0    0  0.00000000000E+00  0.00000000000E+00  0.74505805969E-08  0.10566000000E+00  0.10566000000E+00 0.  1.
     999900   -1    0    0    0    0 -0.00000000000E+00 -0.00000000000E+00 -0.74505805969E-08  0.93827000000E+00  0.93827000000E+00 0. -1.
     999902    2    1    2    0    0 -0.12455857815E-01  0.11286238688E-01  0.17505595195E-01  0.10196612250E+01  0.10193723757E+01 0.  0.
     999903    2    3    3    0    0  0.11657893996E-01  0.12795190192E+00 -0.16179074979E-01  0.13099536708E+00  0.19759251755E-01 0.  0.
         14    1    1    2    0    0  0.12455857815E-01 -0.11286238688E-01 -0.17505595195E-01  0.24268775016E-01  0.00000000000E+00 0. -1.
     999901    1    3    3    0    0 -0.24113751811E-01 -0.11666566324E+00  0.33684670174E-01  0.88866585791E+00  0.88000000000E+00 0. -1.
        -11    1    4    4    0    0 -0.33125131985E-02  0.61184825324E-01 -0.32862628371E-02  0.61364617151E-01  0.51100000000E-03 0. -1.
         11    1    4    4    0    0  0.14970407194E-01  0.66767076601E-01 -0.12892812142E-01  0.69630749927E-01  0.51100000000E-03 0.  1.
</event>
<event>
 8    1  0.1132255E+005  0.1043930E+01  0.7957747E-01            NaN
         13   -1    0    0    0    0  0.00000000000E+00  0.00000000000E+00  0.74505805969E-08  0.10566000000E+00  0.10566000000E+00 0. -1.
     999900   -1    0    0    0    0 -0.00000000000E+00 -0.00000000000E+00 -0.74505805969E-08  0.93827000000E+00  0.93827000000E+00 0. -1.
     999902    2    1    2    0    0  0.15947569944E-01 -0.13112408357E-01 -0.11852192425E-01  0.10201238095E+01  0.10198459943E+01 0.  0.
     999903    2    3    3    0    0 -0.76550096546E-01  0.10016842627E+00 -0.10758354001E-01  0.12805342985E+00  0.19705527450E-01 0.  0.
         14    1    1    2    0    0 -0.15947569944E-01  0.13112408357E-01  0.11852192425E-01  0.23806190483E-01  0.00000000000E+00 0. -1.
     999901    1    3    3    0    0  0.92497666490E-01 -0.11328083463E+00 -0.10938384230E-02  0.89207037967E+00  0.88000000000E+00 0.  1.
        -11    1    4    4    0    0 -0.43046081308E-01  0.48925494056E-01 -0.14322597796E-01  0.66723811441E-01  0.51100000000E-03 0.  1.
         11    1    4    4    0    0 -0.33504015238E-01  0.51242932215E-01  0.35642437946E-02  0.61329618407E-01  0.51100000000E-03 0. -1.
</event>
<event>
 8    1  0.1132255E+005  0.1043930E+01  0.7957747E-01            NaN
         13   -1    0    0    0    0  0.00000000000E+00  0.00000000000E+00  0.74505805969E-08  0.10566000000E+00  0.10566000000E+00 0.  1.
     999900   -1    0    0    0    0 -0.00000000000E+00 -0.00000000000E+00 -0.74505805969E-08  0.93827000000E+00  0.93827000000E+00 0. -1.
     999902    2    1    2    0    0 -0.69960402745E-02  0.21245092685E-01  0.66996306631E-02  0.10205808331E+01  0.10203137034E+01 0.  0.
     999903    2    3    3    0    0  0.61500041682E-01 -0.10762870828E+00 -0.24191789555E-01  0.12802582100E+00  0.20956483201E-01 0.  0.
         14    1    1    2    0    0  0.69960402745E-02 -0.21245092685E-01 -0.66996306631E-02  0.23349166874E-01  0.00000000000E+00 0. -1.
     999901    1    3    3    0    0 -0.68496081957E-01  0.12887380097E+00  0.30891420218E-01  0.89255501212E+00  0.88000000000E+00 0.  1.
        -11    1    4    4    0    0  0.80979069321E-02 -0.31811188091E-01 -0.35753978097E-02  0.33023815269E-01  0.51100000000E-03 0.  1.
         11    1    4    4    0    0  0.53402134750E-01 -0.75817520194E-01 -0.20616391745E-01  0.95002005735E-01  0.51100000000E-03 0. -1.
</event>
<event>
 8    1  0.1132255E+005  0.1043930E+01  0.7957747E-01            NaN
         13   -1    0    0    0    0  0.00000000000E+00  0.00000000000E+00  0.74505805969E-08  0.10566000000E+00  0.10566000000E+00 0. -1.
     999900   -1    0    0    0    0 -0.00000000000E+00 -0.00000000000E+00 -0.74505805969E-08  0.93827000000E+00  0.93827000000E+00 0. -1.
     999902    2    1    2    0    0  0.14450714371E-01 -0.12237563013E-02 -0.19120236448E-01  0.10199319966E+01  0.10196496327E+01 0.  0.
     999903    2    3    3    0    0  0.97919328015E-01 -0.60277096184E-01 -0.63390091022E-01  0.13290655929E+00  0.20599192677E-01 0.  0.
         14    1    1    2    0    0 -0.14450714371E-01  0.12237563013E-02  0.19120236448E-01  0.23998003399E-01  0.00000000000E+00 0. -1.
     999901    1    3    3    0    0 -0.83468613643E-01  0.59053339882E-01  0.44269854574E-01  0.88702543731E+00  0.88000000000E+00 0. -1.
        -11    1    4    4    0    0  0.65628377509E-01 -0.48796484302E-01 -0.51404649716E-01  0.96596479998E-01  0.51100000000E-03 0. -1.
         11    1    4    4    0    0  0.32290950506E-01 -0.11480611882E-01 -0.11985441306E-01  0.36310079290E-01  0.51100000000E-03 0.  1.
</event>
<event>
 8    1  0.1132255E+005  0.1043930E+01  0.7957747E-01            NaN
         13   -1    0    0    0    0  0.00000000000E+00  0.00000000000E+00  0.74505805969E-08  0.10566000000E+00  0.10566000000E+00 0. -1.
     999900   -1    0    0    0    0 -0.00000000000E+00 -0.00000000000E+00 -0.74505805969E-08  0.93827000000E+00  0.93827000000E+00 0.  1.
     999902    2    1    2    0    0  0.25391634937E-02  0.21774585830E-02 -0.23358583923E-01  0.10203331333E+01  0.10200602388E+01 0.  0.
     999903    2    3    3    0    0 -0.12209698948E+00 -0.26407943163E-01 -0.35333109492E-01  0.13101053426E+00  0.17614685895E-01 0.  0.
         14    1    1    2    0    0 -0.25391634937E-02 -0.21774585830E-02  0.23358583923E-01  0.23596866742E-01  0.00000000000E+00 0. -1.
     999901    1    3    3    0    0  0.12463615297E+00  0.28585401746E-01  0.11974525568E-01  0.88932259900E+00  0.88000000000E+00 0. -1.
        -11    1    4    4    0    0 -0.65977382473E-01 -0.22680058982E-01 -0.22644613473E-01  0.73351480651E-01  0.51100000000E-03 0. -1.
         11    1    4    4    0    0 -0.56119607008E-01 -0.37278841810E-02 -0.12688496019E-01  0.57659053612E-01  0.51100000000E-03 0.  1.
</event>
<event>
 8    1  0.1132255E+005  0.1043930E+01  0.7957747E-01            NaN
         13   -1    0    0    0    0  0.00000000000E+00  0.00000000000E+00  0.74505805969E-08  0.10566000000E+00  0.10566000000E+00 0.  1.
     999900   -1    0    0    0    0 -0.00000000000E+00 -0.00000000000E+00 -0.74505805969E-08  0.93827000000E+00  0.93827000000E+00 0.  1.
     999902    2    1    2    0    0 -0.12156263960E-01  0.19749060304E-01 -0.28608965112E-02  0.10205636810E+01  0.10202961541E+01 0.  0.
     999903    2    3    3    0    0 -0.65423150344E-02 -0.31399056449E-01 -0.12522391653E+00  0.13060842651E+00  0.18676969051E-01 0.  0.
         14    1    1    2    0    0  0.12156263960E-01 -0.19749060304E-01  0.28608965112E-02  0.23366319034E-01  0.00000000000E+00 0.  1.
     999901    1    3    3    0    0 -0.56139489257E-02  0.51148116753E-01  0.12236302001E+00  0.88995525446E+00  0.88000000000E+00 0. -1.
        -11    1    4    4    0    0 -0.13055819302E-01 -0.18548112955E-01 -0.75039022721E-01  0.78393896215E-01  0.51100000000E-03 0.  1.
         11    1    4    4    0    0  0.65135042672E-02 -0.12850943494E-01 -0.50184893805E-01  0.52214530293E-01  0.51100000000E-03 0. -1.
</event>
<event>
 8    1  0.1132255E+005  0.1043930E+01  0.7957747E-01            NaN
         13   -1    0    0    0    0  0.00000000000E+00  0.00000000000E+00  0.74505805969E-08  0.10566000000E+00  0.10566000000E+00 0.  1.
     999900   -1    0    0    0    0 -0.00000000000E+00 -0.00000000000E+00 -0.74505805969E-08  0.93827000000E+00  0.93827000000E+00 0.  1.
     999902    2    1    2    0    0  0.66657120765E-02 -0.17930157002E-02  0.22594241157E-01  0.10203048787E+01  0.10200313226E+01 0.  0.
     999903    2    3    3    0    0  0.14329837303E-01 -0.63863025809E-02  0.13122575301E+00  0.13358020753E+00  0.19425356936E-01 0.  0.
         14    1    1    2    0    0 -0.66657120765E-02  0.17930157002E-02 -0.22594241157E-01  0.23625121296E-01  0.00000000000E+00 0. -1.
     999901    1    3    3    0    0 -0.76641252263E-02  0.45932868807E-02 -0.10863151186E+00  0.88672467117E+00  0.88000000000E+00 0.  1.
        -11    1    4    4    0    0  0.15017202222E-01  0.94224659730E-03  0.55832046929E-01  0.57826315605E-01  0.51100000000E-03 0. -1.
         11    1    4    4    0    0 -0.68736491934E-03 -0.73285491782E-02  0.75393706085E-01  0.75753891925E-01  0.51100000000E-03 0.  1.
</event>
<event>
 8    1  0.1132255E+005  0.1043930E+01  0.7957747E-01            NaN
         13   -1    0    0    0    0  0.00000000000E+00  0.00000000000E+00  0.74505805969E-08  0.10566000000E+00  0.10566000000E+00 0.  1.
     999900   -1    0    0    0    0 -0.00000000000E+00 -0.00000000000E+00 -0.74505805969E-08  0.93827000000E+00  0.93827000000E+00 0. -1.
     999902    2    1    2    0    0 -0.18132152197E-01  0.13621377641E-01  0.75085301947E-02  0.10200407786E+01  0.10197609990E+01 0.  0.
     999903    2    3    3    0    0 -0.18991290649E-01  0.11113696917E+00 -0.64487425485E-01  0.13173145956E+00  0.21964843636E-01 0.  0.
         14    1    1    2    0    0  0.18132152197E-01 -0.13621377641E-01 -0.75085301947E-02  0.23889221373E-01  0.00000000000E+00 0.  1.
     999901    1    3    3    0    0  0.85913845189E-03 -0.97515591525E-01  0.71995955679E-01  0.88830931907E+00  0.88000000000E+00 0. -1.
        -11    1    4    4    0    0 -0.18978625608E-02  0.31288511747E-01 -0.77428738846E-02  0.32292198232E-01  0.51100000000E-03 0.  1.
         11    1    4    4    0    0 -0.17093428088E-01  0.79848457418E-01 -0.56744551600E-01  0.99439261327E-01  0.51100000000E-03 0. -1.
</event>
<event>
 8    1  0.1132255E+005  0.1043930E+01  0.7957747E-01            NaN
         13   -1    0    0    0    0  0.00000000000E+00  0.00000000000E+00  0.74505805969E-08  0.10566000000E+00  0.10566000000E+00 0.  1.
     999900   -1    0    0    0    0 -0.00000000000E+00 -0.00000000000E+00 -0.74505805969E-08  0.93827000000E+00  0.93827000000E+00 0. -1.
     999902    2    1    2    0    0 -0.90978278271E-02  0.20232840812E-01 -0.64469051112E-02  0.10208280325E+01  0.10205665931E+01 0.  0.
     999903    2    3    3    0    0 -0.88665875451E-01 -0.92484182739E-01 -0.10011099658E-01  0.13007054297E+00  0.20078907009E-01 0.  0.
         14    1    1    2    0    0  0.90978278271E-02 -0.20232840812E-01  0.64469051112E-02  0.23101967536E-01  0.00000000000E+00 0.  1.
     999901    1    3    3    0    0  0.79568047624E-01  0.11271702355E+00  0.35641945466E-02  0.89075748949E+00  0.88000000000E+00 0. -1.
        -11    1    4    4    0    0 -0.31877204146E-01 -0.47522260530E-01 -0.31690502654E-02  0.57313396258E-01  0.51100000000E-03 0. -1.
         11    1    4    4    0    0 -0.56788671304E-01 -0.44961922209E-01 -0.68420493924E-02  0.72757146715E-01  0.51100000000E-03 0.  1.
</event>
<event>
 8    1  0.1132255E+005  0.1043930E+01  0.7957747E-01            NaN
         13   -1    0    0    0    0  0.00000000000E+00  0.00000000000E+00  0.74505805969E-08  0.10566000000E+00  0.10566000000E+00 0.  1.
     999900   -1    0    0    0    0 -0.00000000000E+00 -0.00000000000E+00 -0.74505805969E-08  0.93827000000E+00  0.93827000000E+00 0. -1.
     999902    2    1    2    0    0 -0.19690895561E-01 -0.10666796601E-01  0.39013960148E-02  0.10211982423E+01  0.10209452078E+01 0.  0.
     999903    2    3    3    0    0 -0.11823625125E+00 -0.38877702063E-01  0.46853115865E-01  0.13420788577E+00  0.18034835990E-01 0.  0.
         14    1    1    2    0    0  0.19690895561E-01  0.10666796601E-01 -0.39013960148E-02  0.22731757710E-01  0.00000000000E+00 0. -1.
     999901    1    3    3    0    0  0.98545355693E-01  0.28210905463E-01 -0.42951719850E-01  0.88699035652E+00  0.88000000000E+00 0. -1.
        -11    1    4    4    0    0 -0.24626442841E-01 -0.51256259742E-02  0.25732508879E-02  0.25290639963E-01  0.51100000000E-03 0.  1.
         11    1    4    4    0    0 -0.93609808413E-01 -0.33752076089E-01  0.44279864977E-01  0.10891724581E+00  0.51100000000E-03 0. -1.
</event>
<event>
 8    1  0.1132255E+005  0.1043930E+01  0.7957747E-01            NaN
         13   -1    0    0    0    0  0.00000000000E+00  0.00000000000E+00  0.74505805969E-08  0.10566000000E+00  0.10566000000E+00 0.  1.
     999900   -1    0    0    0    0 -0.00000000000E+00 -0.00000000000E+00 -0.74505805969E-08  0.93827000000E+00  0.93827000000E+00 0. -1.
     999902    2    1    2    0    0 -0.83864968066E-03 -0.14945563363E-01 -0.17913200684E-01  0.10205857083E+01  0.10203186914E+01 0.  0.
     999903    2    3    3    0    0  0.78392591364E-01 -0.10474026795E+00  0.16821998270E-02  0.13225882123E+00  0.19329870274E-01 0.  0.
         14    1    1    2    0    0  0.83864968066E-03  0.14945563363E-01  0.17913200684E-01  0.23344291727E-01  0.00000000000E+00 0.  1.
     999901    1    3    3    0    0 -0.79231241044E-01  0.89794704588E-01 -0.19595400511E-01  0.88832688705E+00  0.88000000000E+00 0. -1.
        -11    1    4    4    0    0  0.57854072524E-01 -0.81079682545E-01 -0.66719873829E-02  0.99828779246E-01  0.51100000000E-03 0.  1.
         11    1    4    4    0    0  0.20538518840E-01 -0.23660585406E-01  0.83541872099E-02  0.32430041980E-01  0.51100000000E-03 0. -1.
</event>
<event>
 8    1  0.1132255E+005  0.1043930E+01  0.7957747E-01            NaN
         13   -1    0    0    0    0  0.00000000000E+00  0.00000000000E+00  0.74505805969E-08  0.10566000000E+00  0.10566000000E+00 0.  1.
     999900   -1    0    0    0    0 -0.00000000000E+00 -0.00000000000E+00 -0.74505805969E-08  0.93827000000E+00  0.93827000000E+00 0.  1.
     999902    2    1    2    0    0 -0.18592257579E-01 -0.14291692916E-01  0.41009179660E-02  0.10201236551E+01  0.10198458362E+01 0.  0.
     999903    2    3    3    0    0  0.64741952661E-02  0.10563542185E+00  0.71169183041E-01  0.12910794701E+00  0.20076150356E-01 0.  0.
         14    1    1    2    0    0  0.18592257579E-01  0.14291692916E-01 -0.41009179660E-02  0.23806344878E-01  0.00000000000E+00 0.  1.
     999901    1    3    3    0    0 -0.25066452845E-01 -0.11992711477E+00 -0.67068265076E-01  0.89101570811E+00  0.88000000000E+00 0.  1.
        -11    1    4    4    0    0  0.10681923473E-01  0.99393001393E-01  0.68119894217E-01  0.12096963803E+00  0.51100000000E-03 0. -1.
         11    1    4    4    0    0 -0.42077282067E-02  0.62424204593E-02  0.30492888249E-02  0.81383089884E-02  0.51100000000E-03 0.  1.
</event>
<event>
 8    1  0.1132255E+005  0.1043930E+01  0.7957747E-01            NaN
         13   -1    0    0    0    0  0.00000000000E+00  0.00000000000E+00  0.74505805969E-08  0.10566000000E+00  0.10566000000E+00 0. -1.
     999900   -1    0    0    0    0 -0.00000000000E+00 -0.00000000000E+00 -0.74505805969E-08  0.93827000000E+00  0.93827000000E+00 0. -1.
     999902    2    1    2    0    0  0.20836553814E-01  0.81912658916E-03  0.11273613683E-01  0.10202249940E+01  0.10199495630E+01 0.  0.
     999903    2    3    3    0    0 -0.10334594958E+00  0.30872442784E-01 -0.65575652187E-01  0.12768350723E+00  0.19220271654E-01 0.  0.
         14    1    1    2    0    0 -0.20836553814E-01 -0.81912658916E-03 -0.11273613683E-01  0.23705005984E-01  0.00000000000E+00 0. -1.
     999901    1    3    3    0    0  0.12418250339E+00 -0.30053316194E-01  0.76849265870E-01  0.89254148678E+00  0.88000000000E+00 0.  1.
        -11    1    4    4    0    0 -0.48488393332E-01  0.23953975367E-01 -0.28784633908E-01  0.61267719837E-01  0.51100000000E-03 0. -1.
         11    1    4    4    0    0 -0.54857556245E-01  0.69184674165E-02 -0.36791018278E-01  0.66415787397E-01  0.51100000000E-03 0.  1.
</event>
<event>
 8    1  0.1132255E+005  0.1043930E+01  0.7957747E-01            NaN
         13   -1    0    0    0    0  0.00000000000E+00  0.00000000000E+00  0.74505805969E-08  0.10566000000E+00  0.10566000000E+00 0.  1.
     999900   -1    0    0    0    0 -0.00000000000E+00 -0.00000000000E+00 -0.74505805969E-08  0.93827000000E+00  0.93827000000E+00 0. -1.
     999902    2    1    2    0    0 -0.22368112426E-01  0.13568269777E-02 -0.47491882297E-02  0.10210230530E+01  0.10207660587E+01 0.  0.
     999903    2    3    3    0    0 -0.73479307054E-01  0.51504148274E-01 -0.96610382546E-01  0.13334879568E+00  0.19911038130E-01 0.  0.
         14    1    1    2    0    0  0.22368112426E-01 -0.13568269777E-02  0.47491882297E-02  0.22906947021E-01  0.00000000000E+00 0. -1.
     999901    1    3    3    0    0  0.51111194628E-01 -0.50147321296E-01  0.91861194316E-01  0.88767425730E+00  0.88000000000E+00 0.  1.
        -11    1    4    4    0    0 -0.43444254767E-01  0.32250046267E-01 -0.71733764222E-01  0.89852450200E-01  0.51100000000E-03 0. -1.
         11    1    4    4    0    0 -0.30035052287E-01  0.19254102007E-01 -0.24876618324E-01  0.43496345481E-01  0.51100000000E-03 0.  1.
</event>
<event>
 8    1  0.1132255E+005  0.1043930E+01  0.7957747E-01            NaN
         13   -1    0    0    0    0  0.00000000000E+00  0.00000000000E+00  0.74505805969E-08  0.10566000000E+00  0.10566000000E+00 0. -1.
     999900   -1    0    0    0    0 -0.00000000000E+00 -0.00000000000E+00 -0.74505805969E-08  0.93827000000E+00  0.93827000000E+00 0. -1.
     999902    2    1    2    0    0  0.21223132953E-01  0.72128641243E-02  0.64996279538E-02  0.10205913637E+01  0.10203244777E+01 0.  0.
     999903    2    3    3    0    0  0.52759398639E-01 -0.10026335036E-01  0.11965973802E+00  0.13261786378E+00  0.19620482928E-01 0.  0.
         14    1    1    2    0    0 -0.21223132953E-01 -0.72128641243E-02 -0.64996279538E-02  0.23338636309E-01  0.00000000000E+00 0.  1.
     999901    1    3    3    0    0 -0.31536265686E-01  0.17239199160E-01 -0.11316011007E+00  0.88797349992E+00  0.88000000000E+00 0. -1.
        -11    1    4    4    0    0  0.13702996325E-01 -0.64391242684E-02  0.54470296371E-01  0.56537675380E-01  0.51100000000E-03 0.  1.
         11    1    4    4    0    0  0.39056402313E-01 -0.35872107676E-02  0.65189441650E-01  0.76080188396E-01  0.51100000000E-03 0. -1.
</event>
<event>
 8    1  0.1132255E+005  0.1043930E+01  0.7957747E-01            NaN
         13   -1    0    0    0    0  0.00000000000E+00  0.00000000000E+00  0.74505805969E-08  0.10566000000E+00  0.10566000000E+00 0. -1.
     999900   -1    0    0    0    0 -0.00000000000E+00 -0.00000000000E+00 -0.74505805969E-08  0.93827000000E+00  0.93827000000E+00 0. -1.
     999902    2    1    2    0    0 -0.21380074191E-01  0.65859257457E-02 -0.68395311005E-03  0.10215480925E+01  0.10213028716E+01 0.  0.
     999903    2    3    3    0    0  0.71050793340E-01  0.44333881079E-01  0.98011479948E-01  0.13042006474E+00  0.19734103442E-01 0.  0.
         14    1    1    2    0    0  0.21380074191E-01 -0.65859257457E-02  0.68395311005E-03  0.22381907475E-01  0.00000000000E+00 0.  1.
     999901    1    3    3    0    0 -0.92430867531E-01 -0.37747955333E-01 -0.98695433058E-01  0.89112802779E+00  0.88000000000E+00 0. -1.
        -11    1    4    4    0    0  0.21129115068E-01  0.15691555941E-01  0.45195413454E-01  0.52302494680E-01  0.51100000000E-03 0.  1.
         11    1    4    4    0    0  0.49921678272E-01  0.28642325138E-01  0.52816066493E-01  0.78117570057E-01  0.51100000000E-03 0. -1.
</event>
<event>
 7    1  0.1132255E+005  0.1043930E+01  0.7957747E-01            NaN
         13   -1    0    0    0    0  0.00000000000E+00  0.00000000000E+00  0.74505805969E-08  0.10566000000E+00  0.10566000000E+00 0.  1.
     999900   -1    0    0    0    0 -0.00000000000E+00 -0.00000000000E+00 -0.74505805969E-08  0.93827000000E+00  0.93827000000E+00 0.  1.
     999903    2    1    2    0    0 -0.57563274052E-01  0.13803299043E-01  0.88200838031E-01  0.10853954179E+00  0.22302078777E-01 0.  0.
         14    1    1    2    0    0 -0.77614025080E-02  0.22949964345E-01  0.36124763505E-01  0.43496422504E-01  0.00000000000E+00 0.  1.
     999901    1    1    2    0    0  0.65324676560E-01 -0.36753263387E-01 -0.12432560154E+00  0.89189403571E+00  0.88000000000E+00 0.  1.
        -11    1    3    3    0    0 -0.48106845417E-01  0.19556137218E-01  0.68835359968E-01  0.86228063771E-01  0.51100000000E-03 0.  1.
         11    1    3    3    0    0 -0.94564286352E-02 -0.57528381753E-02  0.19365478063E-01  0.22311478015E-01  0.51100000000E-03 0. -1.
</event>
<event>
 8    1  0.1132255E+005  0.1043930E+01  0.7957747E-01            NaN
         13   -1    0    0    0    0  0.00000000000E+00  0.00000000000E+00  0.74505805969E-08  0.10566000000E+00  0.10566000000E+00 0.  1.
     999900   -1    0    0    0    0 -0.00000000000E+00 -0.00000000000E+00 -0.74505805969E-08  0.93827000000E+00  0.93827000000E+00 0.  1.
     999902    2    1    2    0    0  0.19054023184E-01 -0.10103441775E-01  0.10117993637E-01  0.10201075499E+01  0.10198293505E+01 0.  0.
     999903    2    3    3    0    0  0.79139892935E-02  0.10666403511E+00 -0.68968556933E-01  0.12880881964E+00  0.19879702219E-01 0.  0.
         14    1    1    2    0    0 -0.19054023184E-01  0.10103441775E-01 -0.10117993637E-01  0.23822450135E-01  0.00000000000E+00 0. -1.
     999901    1    3    3    0    0  0.11140033890E-01 -0.11676747688E+00  0.79086550570E-01  0.89129873022E+00  0.88000000000E+00 0. -1.
        -11    1    4    4    0    0  0.10195578087E-01  0.33809151692E-01 -0.16404501907E-01  0.38940690216E-01  0.51100000000E-03 0.  1.
         11    1    4    4    0    0 -0.22815887936E-02  0.72854883417E-01 -0.52564055025E-01  0.89868129428E-01  0.51100000000E-03 0. -1.
</event>
<event>
 8    1  0.1274792E+005  0.1043930E+01  0.7957747E-01            NaN
         13   -1    0    0    0    0  0.00000000000E+00  0.00000000000E+00  0.74505805969E-08  0.10566000000E+00  0.10566000000E+00 0. -1.
     999900   -1    0    0    0    0 -0.00000000000E+00 -0.00000000000E+00 -0.74505805969E-08  0.93827000000E+00  0.93827000000E+00 0. -1.
     999902    2    1    2    0    0 -0.15738062580E-01  0.81376976557E-02 -0.14887878322E-01  0.10207878813E+01  0.10205255220E+01 0.  0.
     999903    2    3    3    0    0  0.57427145184E-01  0.66953451650E-01  0.92377545404E-01  0.12931813326E+00  0.20221943610E-01 0.  0.
         14    1    1    2    0    0  0.15738062580E-01 -0.81376976557E-02  0.14887878322E-01  0.23142118698E-01  0.00000000000E+00 0.  1.
     999901    1    3    3    0    0 -0.73165207764E-01 -0.58815753995E-01 -0.10726542373E+00  0.89146974804E+00  0.88000000000E+00 0.  1.
        -11    1    4    4    0    0  0.31818945928E-01  0.23769796714E-01  0.48051085632E-01  0.62342734197E-01  0.51100000000E-03 0. -1.
         11    1    4    4    0    0  0.25608199256E-01  0.43183654936E-01  0.44326459772E-01  0.66975399063E-01  0.51100000000E-03 0.  1.
</event>
<event>
 8    1  0.1132255E+005  0.1043930E+01  0.7957747E-01            NaN
         13   -1    0    0    0    0  0.00000000000E+00  0.00000000000E+00  0.74505805969E-08  0.10566000000E+00  0.10566000000E+00 0. -1.
     999900   -1    0    0    0    0 -0.00000000000E+00 -0.00000000000E+00 -0.74505805969E-08  0.93827000000E+00  0.93827000000E+00 0. -1.
     999902    2    1    2    0    0  0.15087316638E-01  0.14425773733E-01  0.10764003904E-01  0.10204439648E+01  0.10201736575E+01 0.  0.
     999903    2    3    3    0    0  0.19591437581E-02  0.12997390888E+00 -0.16219928508E-01  0.13238323876E+00  0.19109698852E-01 0.  0.
         14    1    1    2    0    0 -0.15087316638E-01 -0.14425773733E-01 -0.10764003904E-01  0.23486035237E-01  0.00000000000E+00 0.  1.
     999901    1    3    3    0    0  0.13128172879E-01 -0.11554813515E+00  0.26983932411E-01  0.88806072600E+00  0.88000000000E+00 0.  1.
        -11    1    4    4    0    0 -0.17149022017E-02  0.96922206646E-01 -0.19773065433E-01  0.98934777851E-01  0.51100000000E-03 0.  1.
         11    1    4    4    0    0  0.36740459598E-02  0.33051702234E-01  0.35531369248E-02  0.33448460910E-01  0.51100000000E-03 0. -1.
</event>
<event>
 7    1  0.1132255E+005  0.1043930E+01  0.7957747E-01            NaN
         13   -1    0    0    0    0  0.00000000000E+00  0.00000000000E+00  0.74505805969E-08  0.10566000000E+00  0.10566000000E+00 0. -1.
     999900   -1    0    0    0    0 -0.00000000000E+00 -0.00000000000E+00 -0.74505805969E-08  0.93827000000E+00  0.93827000000E+00 0. -1.
     999902    2    1    2    0    0  0.14266622690E-01 -0.38626963352E-02 -0.18285428573E-01  0.10204180064E+01  0.10201470942E+01 0.  0.
         14    1    1    2    0    0 -0.14266622690E-01  0.38626963352E-02  0.18285428573E-01  0.23511993622E-01  0.00000000000E+00 0. -1.
     999901    1    3    3    0    0  0.26042947698E-01 -0.72188182914E-01  0.27018134944E-01  0.88375299066E+00  0.88000000000E+00 0. -1.
        -11    1    3    3    0    0 -0.25667410669E-02 -0.27108069597E-01 -0.28327271610E-01  0.39295432748E-01  0.51100000000E-03 0.  1.
         11    1    3    3    0    0 -0.92095839410E-02  0.95433556176E-01 -0.16976291907E-01  0.97369582975E-01  0.51100000000E-03 0. -1.
</event>
<event>
 8    1  0.1132255E+005  0.1043930E+01  0.7957747E-01            NaN
         13   -1    0    0    0    0  0.00000000000E+00  0.00000000000E+00  0.74505805969E-08  0.10566000000E+00  0.10566000000E+00 0. -1.
     999900   -1    0    0    0    0 -0.00000000000E+00 -0.00000000000E+00 -0.74505805969E-08  0.93827000000E+00  0.93827000000E+00 0.  1.
     999902    2    1    2    0    0 -0.19315422962E-01  0.12369807039E-01  0.64994215534E-02  0.10200901139E+01  0.10198115023E+01 0.  0.
     999903    2    3    3    0    0  0.66696734633E-01  0.10939855290E+00 -0.12538622719E-01  0.13038504144E+00  0.20652946108E-01 0.  0.
         14    1    1    2    0    0  0.19315422962E-01 -0.12369807039E-01 -0.64994215534E-02  0.23839886135E-01  0.00000000000E+00 0.  1.
     999901    1    3    3    0    0 -0.86012157596E-01 -0.97028745861E-01  0.19038044272E-01  0.88970507243E+00  0.88000000000E+00 0.  1.
        -11    1    4    4    0    0  0.57249298880E-01  0.10436451044E+00 -0.12234531831E-01  0.11966360412E+00  0.51100000000E-03 0.  1.
         11    1    4    4    0    0  0.94474357534E-02  0.50340424650E-02 -0.30409088769E-03  0.10721437316E-01  0.51100000000E-03 0. -1.
</event>
<event>
 8    1  0.1132255E+005  0.1043930E+01  0.7957747E-01            NaN
         13   -1    0    0    0    0  0.00000000000E+00  0.00000000000E+00  0.74505805969E-08  0.10566000000E+00  0.10566000000E+00 0.  1.
     999900   -1    0    0    0    0 -0.00000000000E+00 -0.00000000000E+00 -0.74505805969E-08  0.93827000000E+00  0.93827000000E+00 0. -1.
     999902    2    1    2    0    0 -0.65568500986E-02  0.77190776386E-02 -0.17819329450E-01  0.10234335382E+01  0.10232282747E+01 0.  0.
     999903    2    3    3    0    0 -0.10372695351E+00  0.81013008298E-01  0.17809429566E-01  0.13434218312E+00  0.20205394966E-01 0.  0.
         14    1    1    2    0    0  0.65568500986E-02 -0.77190776386E-02  0.17819329450E-01  0.20496461764E-01  0.00000000000E+00 0.  1.
     999901    1    3    3    0    0  0.97170103416E-01 -0.73293930659E-01 -0.35628759016E-01  0.88909135511E+00  0.88000000000E+00 0.  1.
        -11    1    4    4    0    0 -0.68115224814E-01  0.40752345412E-01  0.93003658893E-02  0.79919931398E-01  0.51100000000E-03 0. -1.
         11    1    4    4    0    0 -0.35611728701E-01  0.40260662886E-01  0.85090636772E-02  0.54422251724E-01  0.51100000000E-03 0.  1.
</event>
<event>
 8    1  0.1132255E+005  0.1043930E+01  0.7957747E-01            NaN
         13   -1    0    0    0    0  0.00000000000E+00  0.00000000000E+00  0.74505805969E-08  0.10566000000E+00  0.10566000000E+00 0.  1.
     999900   -1    0    0    0    0 -0.00000000000E+00 -0.00000000000E+00 -0.74505805969E-08  0.93827000000E+00  0.93827000000E+00 0.  1.
     999902    2    1    2    0    0  0.17956360537E-01 -0.14590806442E-01 -0.36339855339E-02  0.10205093175E+01  0.10202405299E+01 0.  0.
     999903    2    3    3    0    0  0.75410133401E-01 -0.87779264386E-01  0.62818238548E-01  0.13311234634E+00  0.19516100503E-01 0.  0.
         14    1    1    2    0    0 -0.17956360537E-01  0.14590806442E-01  0.36339855339E-02  0.23420682467E-01  0.00000000000E+00 0.  1.
     999901    1    3    3    0    0 -0.57453772864E-01  0.73188457944E-01 -0.66452224082E-01  0.88739697119E+00  0.88000000000E+00 0.  1.
        -11    1    4    4    0    0  0.27997383608E-01 -0.45969665817E-01  0.24048893647E-01  0.58954847730E-01  0.51100000000E-03 0. -1.
         11    1    4    4    0    0  0.47412749793E-01 -0.41809598569E-01  0.38769344901E-01  0.74157498613E-01  0.51100000000E-03 0.  1.
</event>
<event>
 8    1  0.1132255E+005  0.1043930E+01  0.7957747E-01            NaN
         13   -1    0    0    0    0  0.00000000000E+00  0.00000000000E+00  0.74505805969E-08  0.10566000000E+00  0.10566000000E+00 0. -1.
     999900   -1    0    0    0    0 -0.00000000000E+00 -0.00000000000E+00 -0.74505805969E-08  0.93827000000E+00  0.93827000000E+00 0.  1.
     999902    2    1    2    0    0  0.55955109245E-02 -0.17417334438E-01  0.15833595561E-01  0.10197354545E+01  0.10194483907E+01 0.  0.
     999903    2    3    3    0    0 -0.10732500410E+00  0.31279585542E-01  0.63312672957E-01  0.12991710481E+00  0.19310375196E-01 0.  0.
         14    1    1    2    0    0 -0.55955109245E-02  0.17417334438E-01 -0.15833595561E-01  0.24194545456E-01  0.00000000000E+00 0.  1.
     999901    1    3    3    0    0  0.11292051502E+00 -0.48696919980E-01 -0.47479077396E-01  0.88981834973E+00  0.88000000000E+00 0. -1.
        -11    1    4    4    0    0 -0.12353331447E-01 -0.23315221578E-02  0.52096959274E-02  0.13617740124E-01  0.51100000000E-03 0.  1.
         11    1    4    4    0    0 -0.94971672648E-01  0.33611107700E-01  0.58102977029E-01  0.11629936469E+00  0.51100000000E-03 0. -1.
</event>
<event>
 8    1  0.1132255E+005  0.1043930E+01  0.7957747E-01            NaN
         13   -1    0    0    0    0  0.00000000000E+00  0.00000000000E+00  0.74505805969E-08  0.10566000000E+00  0.10566000000E+00 0. -1.
     999900   -1    0    0    0    0 -0.00000000000E+00 -0.00000000000E+00 -0.74505805969E-08  0.93827000000E+00  0.93827000000E+00 0.  1.
     999902    2    1    2    0    0 -0.13339157706E-01  0.18532948650E-01 -0.55790056925E-02  0.10204240727E+01  0.10201533020E+01 0.  0.
     999903    2    3    3    0    0 -0.97118904658E-01  0.90664499594E-02 -0.87716561016E-01  0.13258667847E+00  0.19254871415E-01 0.  0.
         14    1    1    2    0    0  0.13339157706E-01 -0.18532948650E-01  0.55790056925E-02  0.23505927305E-01  0.00000000000E+00 0. -1.
     999901    1    3    3    0    0  0.83779746953E-01  0.94664986903E-02  0.82137555324E-01  0.88783739423E+00  0.88000000000E+00 0. -1.
        -11    1    4    4    0    0 -0.30992064244E-01 -0.83118414680E-03 -0.39164888200E-01  0.49953463363E-01  0.51100000000E-03 0. -1.
         11    1    4    4    0    0 -0.66126840414E-01  0.98976341062E-02 -0.48551672816E-01  0.82633215103E-01  0.51100000000E-03 0.  1.
</event>
<event>
 8    1  0.1132255E+005  0.1043930E+01  0.7957747E-01            NaN
         13   -1    0    0    0    0  0.00000000000E+00  0.00000000000E+00  0.74505805969E-08  0.10566000000E+00  0.10566000000E+00 0.  1.
     999900   -1    0    0    0    0 -0.00000000000E+00 -0.00000000000E+00 -0.74505805969E-08  0.93827000000E+00  0.93827000000E+00 0. -1.
     999902    2    1    2    0    0  0.67680321756E-02 -0.36667119638E-02 -0.22302411229E-01  0.10203365987E+01  0.10200637853E+01 0.  0.
     999903    2    3    3    0    0 -0.81401664265E-01  0.62566026612E-01  0.74202505742E-01  0.12821896635E+00  0.19833124874E-01 0.  0.
         14    1    1    2    0    0 -0.67680321756E-02  0.36667119638E-02  0.22302411229E-01  0.23593401255E-01  0.00000000000E+00 0.  1.
     999901    1    3    3    0    0  0.88169696441E-01 -0.66232738576E-01 -0.96504916971E-01  0.89211763239E+00  0.88000000000E+00 0. -1.
        -11    1    4    4    0    0 -0.31612672034E-01  0.14122646425E-01  0.19073445014E-01  0.39533120303E-01  0.51100000000E-03 0.  1.
         11    1    4    4    0    0 -0.49788992232E-01  0.48443380187E-01  0.55129060729E-01  0.88685846048E-01  0.51100000000E-03 0. -1.
</event>
<event>
 8    1  0.1132255E+005  0.1043930E+01  0.7957747E-01            NaN
         13   -1    0    0    0    0  0.00000000000E+00  0.00000000000E+00  0.74505805969E-08  0.10566000000E+00  0.10566000000E+00 0. -1.
     999900   -1    0    0    0    0 -0.00000000000E+00 -0.00000000000E+00 -0.74505805969E-08  0.93827000000E+00  0.93827000000E+00 0.  1.
     999902    2    1    2    0    0 -0.23355214599E-01 -0.91804710888E-04 -0.32381211151E-02  0.10203511980E+01  0.10200787260E+01 0.  0.
     999903    2    3    3    0    0  0.86908888905E-01  0.28905165958E-01  0.87554451453E-01  0.12836336842E+00  0.20559883075E-01 0.  0.
         14    1    1    2    0    0  0.23355214599E-01  0.91804710888E-04  0.32381211151E-02  0.23578802036E-01  0.00000000000E+00 0. -1.
     999901    1    3    3    0    0 -0.11026410350E+00 -0.28996970669E-01 -0.90792572568E-01  0.89198782955E+00  0.88000000000E+00 0.  1.
        -11    1    4    4    0    0  0.73775698638E-01  0.31754202707E-01  0.77006004167E-01  0.11127159969E+00  0.51100000000E-03 0. -1.
         11    1    4    4    0    0  0.13133190267E-01 -0.28490367492E-02  0.10548447286E-01  0.17091768724E-01  0.51100000000E-03 0.  1.
</event>
<event>
 8    1  0.1159540E+005  0.1043930E+01  0.7957747E-01            NaN
         13   -1    0    0    0    0  0.00000000000E+00  0.00000000000E+00  0.74505805969E-08  0.10566000000E+00  0.10566000000E+00 0. -1.
     999900   -1    0    0    0    0 -0.00000000000E+00 -0.00000000000E+00 -0.74505805969E-08  0.93827000000E+00  0.93827000000E+00 0. -1.
     999902    2    1    2    0    0  0.94641084237E-02  0.17581397638E-01  0.13185716774E-01  0.10200022333E+01  0.10197215394E+01 0.  0.
     999903    2    3    3    0    0 -0.61407337418E-01 -0.16241162549E-01  0.11301132420E+00  0.13088363645E+00  0.18009176656E-01 0.  0.
         14    1    1    2    0    0 -0.94641084237E-02 -0.17581397638E-01 -0.13185716774E-01  0.23927766675E-01  0.00000000000E+00 0.  1.
     999901    1    3    3    0    0  0.70871445842E-01  0.33822560188E-01 -0.99825607422E-01  0.88911859688E+00  0.88000000000E+00 0. -1.
        -11    1    4    4    0    0 -0.23842462344E-01  0.14563533546E-02  0.50046532461E-01  0.55457195278E-01  0.51100000000E-03 0. -1.
         11    1    4    4    0    0 -0.37564875074E-01 -0.17697515904E-01  0.62964791735E-01  0.75426441171E-01  0.51100000000E-03 0.  1.
</event>
<event>
 8    1  0.1132255E+005  0.1043930E+01  0.7957747E-01            NaN
         13   -1    0    0    0    0  0.00000000000E+00  0.00000000000E+00  0.74505805969E-08  0.10566000000E+00  0.10566000000E+00 0.  1.
     999900   -1    0    0    0    0 -0.00000000000E+00 -0.00000000000E+00 -0.74505805969E-08  0.93827000000E+00  0.93827000000E+00 0. -1.
     999902    2    1    2    0    0  0.20862576081E-02  0.47293036413E-02 -0.21705075933E-01  0.10216179157E+01  0.10213742393E+01 0.  0.
     999903    2    3    3    0    0  0.11374857654E-01  0.70572679507E-01  0.10671047294E+00  0.12981514524E+00  0.18840287144E-01 0.  0.
         14    1    1    2    0    0 -0.20862576081E-02 -0.47293036413E-02  0.21705075933E-01  0.22312084281E-01  0.00000000000E+00 0.  1.
     999901    1    3    3    0    0 -0.92886000461E-02 -0.65843375866E-01 -0.12841554887E+00  0.89180277048E+00  0.88000000000E+00 0. -1.
        -11    1    4    4    0    0 -0.42717093270E-02  0.28724593522E-01  0.46755001647E-01  0.55042175408E-01  0.51100000000E-03 0.  1.
         11    1    4    4    0    0  0.15646566981E-01  0.41848085985E-01  0.59955471294E-01  0.74772969835E-01  0.51100000000E-03 0. -1.
</event>
<event>
 8    1  0.1132255E+005  0.1043930E+01  0.7957747E-01            NaN
         13   -1    0    0    0    0  0.00000000000E+00  0.00000000000E+00  0.74505805969E-08  0.10566000000E+00  0.10566000000E+00 0. -1.
     999900   -1    0    0    0    0 -0.00000000000E+00 -0.00000000000E+00 -0.74505805969E-08  0.93827000000E+00  0.93827000000E+00 0.  1.
     999902    2    1    2    0    0 -0.18249655006E-01  0.14500619909E-01 -0.37209215719E-02  0.10203256965E+01  0.10200526280E+01 0.  0.
     999903    2    3    3    0    0  0.62681203767E-01 -0.33090141840E-01  0.10510657283E+00  0.12866538673E+00  0.21988617474E-01 0.  0.
         14    1    1    2    0    0  0.18249655006E-01 -0.14500619909E-01  0.37209215719E-02  0.23604303483E-01  0.00000000000E+00 0.  1.
     999901    1    3    3    0    0 -0.80930858773E-01  0.47590761750E-01 -0.10882749440E+00  0.89166030978E+00  0.88000000000E+00 0.  1.
        -11    1    4    4    0    0  0.38440739027E-01 -0.21269871119E-01  0.45555853679E-01  0.63290558220E-01  0.51100000000E-03 0. -1.
         11    1    4    4    0    0  0.24240464740E-01 -0.11820270721E-01  0.59550719151E-01  0.65374828513E-01  0.51100000000E-03 0.  1.
</event>
<event>
 8    1  0.1132255E+005  0.1043930E+01  0.7957747E-01            NaN
         13   -1    0    0    0    0  0.00000000000E+00  0.00000000000E+00  0.74505805969E-08  0.10566000000E+00  0.10566000000E+00 0.  1.
     999900   -1    0    0    0    0 -0.00000000000E+00 -0.00000000000E+00 -0.74505805969E-08  0.93827000000E+00  0.93827000000E+00 0.  1.
     999902    2    1    2    0    0 -0.95833005845E-02  0.51616426170E-02  0.21033532930E-01  0.10202468475E+01  0.10199719301E+01 0.  0.
     999903    2    3    3    0    0 -0.11450138959E+00 -0.31557161977E-01 -0.50113812775E-01  0.13040527688E+00  0.19690589542E-01 0.  0.
         14    1    1    2    0    0  0.95833005845E-02 -0.51616426170E-02 -0.21033532930E-01  0.23683152495E-01  0.00000000000E+00 0.  1.
     999901    1    3    3    0    0  0.10491808901E+00  0.36718804593E-01  0.71147345704E-01  0.88984157063E+00  0.88000000000E+00 0. -1.
        -11    1    4    4    0    0 -0.57398845749E-01 -0.25998078189E-01 -0.25798630118E-01  0.68090807014E-01  0.51100000000E-03 0.  1.
         11    1    4    4    0    0 -0.57102543844E-01 -0.55590837871E-02 -0.24315182657E-01  0.62314469866E-01  0.51100000000E-03 0. -1.
</event>
<event>
 8    1  0.1132255E+005  0.1043930E+01  0.7957747E-01            NaN
         13   -1    0    0    0    0  0.00000000000E+00  0.00000000000E+00  0.74505805969E-08  0.10566000000E+00  0.10566000000E+00 0. -1.
     999900   -1    0    0    0    0 -0.00000000000E+00 -0.00000000000E+00 -0.74505805969E-08  0.93827000000E+00  0.93827000000E+00 0.  1.
     999902    2    1    2    0    0 -0.11944706673E-01  0.36625607657E-03 -0.20506160834E-01  0.10201957885E+01  0.10199196705E+01 0.  0.
     999903    2    3    3    0    0  0.12644769290E+00  0.15031602330E-01 -0.32502291587E-02  0.12909237378E+00  0.20959696335E-01 0.  0.
         14    1    1    2    0    0  0.11944706673E-01 -0.36625607657E-03  0.20506160834E-01  0.23734211451E-01  0.00000000000E+00 0. -1.
     999901    1    3    3    0    0 -0.13839239957E+00 -0.14665346254E-01 -0.17255931676E-01  0.89110341477E+00  0.88000000000E+00 0. -1.
        -11    1    4    4    0    0  0.67048238583E-01  0.15909141791E-01  0.51003021893E-02  0.69100226433E-01  0.51100000000E-03 0. -1.
         11    1    4    4    0    0  0.59399454313E-01 -0.87753946121E-03 -0.83505313480E-02  0.59992147345E-01  0.51100000000E-03 0.  1.
</event>
<event>
 8    1  0.1132255E+005  0.1043930E+01  0.7957747E-01            NaN
         13   -1    0    0    0    0  0.00000000000E+00  0.00000000000E+00  0.74505805969E-08  0.10566000000E+00  0.10566000000E+00 0.  1.
     999900   -1    0    0    0    0 -0.00000000000E+00 -0.00000000000E+00 -0.74505805969E-08  0.93827000000E+00  0.93827000000E+00 0.  1.
     999902    2    1    2    0    0 -0.50115964977E-02  0.12234227801E-01 -0.21029878539E-01  0.10190895447E+01  0.10187867548E+01 0.  0.
     999903    2    3    3    0    0 -0.65255091437E-01  0.10168911696E+00 -0.49550304760E-01  0.13204677762E+00  0.19550327650E-01 0.  0.
         14    1    1    2    0    0  0.50115964977E-02 -0.12234227801E-01  0.21029878539E-01  0.24840455324E-01  0.00000000000E+00 0.  1.
     999901    1    3    3    0    0  0.60243494940E-01 -0.89454889158E-01  0.28520426222E-01  0.88704276706E+00  0.88000000000E+00 0.  1.
        -11    1    4    4    0    0 -0.80142304659E-02  0.13607955250E-01 -0.14103415422E-01  0.21179513300E-01  0.51100000000E-03 0.  1.
         11    1    4    4    0    0 -0.57240860971E-01  0.88081161709E-01 -0.35446889338E-01  0.11086726432E+00  0.51100000000E-03 0. -1.
</event>
<event>
 8    1  0.1132255E+005  0.1043930E+01  0.7957747E-01            NaN
         13   -1    0    0    0    0  0.00000000000E+00  0.00000000000E+00  0.74505805969E-08  0.10566000000E+00  0.10566000000E+00 0. -1.
     999900   -1    0    0    0    0 -0.00000000000E+00 -0.00000000000E+00 -0.74505805969E-08  0.93827000000E+00  0.93827000000E+00 0.  1.
     999902    2    1    2    0    0 -0.20775913556E-01 -0.53614174689E-02 -0.10967809045E-01  0.10198327757E+01  0.10195480441E+01 0.  0.
     999903    2    3    3    0    0 -0.78199336486E-01  0.97954397761E-01 -0.35168111352E-01  0.13160011377E+00  0.19276763734E-01 0.  0.
         14    1    1    2    0    0  0.20775913556E-01  0.53614174689E-02  0.10967809045E-01  0.24097224251E-01  0.00000000000E+00 0. -1.
     999901    1    3    3    0    0  0.57423422931E-01 -0.10331581523E+00  0.24200302307E-01  0.88823266198E+00  0.88000000000E+00 0. -1.
        -11    1    4    4    0    0 -0.38526404170E-01  0.34782545786E-01 -0.18958485014E-01  0.55261148963E-01  0.51100000000E-03 0. -1.
         11    1    4    4    0    0 -0.39672932316E-01  0.63171851976E-01 -0.16209626338E-01  0.76338964806E-01  0.51100000000E-03 0.  1.
</event>
<event>
 8    1  0.1132255E+005  0.1043930E+01  0.7957747E-01            NaN
         13   -1    0    0    0    0  0.00000000000E+00  0.00000000000E+00  0.74505805969E-08  0.10566000000E+00  0.10566000000E+00 0. -1.
     999900   -1    0    0    0    0 -0.00000000000E+00 -0.00000000000E+00 -0.74505805969E-08  0.93827000000E+00  0.93827000000E+00 0.  1.
     999902    2    1    2    0    0  0.26816704030E-02 -0.19783585445E-01  0.88767413185E-02  0.10220810150E+01  0.10218474559E+01 0.  0.
     999903    2    3    3    0    0 -0.15995082534E-01 -0.10893548786E+00  0.75304233139E-01  0.13488909975E+00  0.20038925169E-01 0.  0.
         14    1    1    2    0    0 -0.26816704030E-02  0.19783585445E-01 -0.88767413185E-02  0.21848985003E-01  0.00000000000E+00 0. -1.
     999901    1    3    3    0    0  0.18676752937E-01  0.89151902420E-01 -0.66427491821E-01  0.88719191524E+00  0.88000000000E+00 0.  1.
        -11    1    4    4    0    0 -0.12600838057E-01 -0.28769170798E-01  0.25401124918E-01  0.40397086234E-01  0.51100000000E-03 0.  1.
         11    1    4    4    0    0 -0.33942444768E-02 -0.80166317067E-01  0.49903108221E-01  0.94492013519E-01  0.51100000000E-03 0. -1.
</event>
<event>
 8    1  0.1132255E+005  0.1043930E+01  0.7957747E-01            NaN
         13   -1    0    0    0    0  0.00000000000E+00  0.00000000000E+00  0.74505805969E-08  0.10566000000E+00  0.10566000000E+00 0. -1.
     999900   -1    0    0    0    0 -0.00000000000E+00 -0.00000000000E+00 -0.74505805969E-08  0.93827000000E+00  0.93827000000E+00 0. -1.
     999902    2    1    2    0    0  0.32303742231E-02 -0.86367750369E-02  0.21536917089E-01  0.10205020680E+01  0.10202331120E+01 0.  0.
     999903    2    3    3    0    0 -0.11623015478E+00 -0.22736186380E-01 -0.48518885522E-01  0.12956019173E+00  0.20134000549E-01 0.  0.
         14    1    1    2    0    0 -0.32303742231E-02  0.86367750369E-02 -0.21536917089E-01  0.23427932012E-01  0.00000000000E+00 0.  1.
     999901    1    3    3    0    0  0.11946052900E+00  0.14099411344E-01  0.70055802611E-01  0.89094187626E+00  0.88000000000E+00 0.  1.
        -11    1    4    4    0    0 -0.26459109783E-01 -0.46605173066E-02 -0.22623903582E-02  0.26966357619E-01  0.51100000000E-03 0. -1.
         11    1    4    4    0    0 -0.89771044995E-01 -0.18075669074E-01 -0.46256495164E-01  0.10259383411E+00  0.51100000000E-03 0.  1.
</event>
<event>
 8    1  0.1132255E+005  0.1043930E+01  0.7957747E-01            NaN
         13   -1    0    0    0    0  0.00000000000E+00  0.00000000000E+00  0.74505805969E-08  0.10566000000E+00  0.10566000000E+00 0. -1.
     999900   -1    0    0    0    0 -0.00000000000E+00 -0.00000000000E+00 -0.74505805969E-08  0.93827000000E+00  0.93827000000E+00 0.  1.
     999902    2    1    2    0    0  0.92010097399E-03 -0.24465221384E-01  0.18141154234E-02  0.10193803634E+01  0.10190847073E+01 0.  0.
     999903    2    3    3    0    0 -0.70351749018E-02 -0.12817408690E+00 -0.21785411879E-01  0.13294043147E+00  0.26841458816E-01 0.  0.
         14    1    1    2    0    0 -0.92010097399E-03  0.24465221384E-01 -0.18141154234E-02  0.24549636615E-01  0.00000000000E+00 0. -1.
     999901    1    3    3    0    0  0.79552758758E-02  0.10370886551E+00  0.23599527302E-01  0.88643993191E+00  0.88000000000E+00 0. -1.
        -11    1    4    4    0    0  0.17180211425E-02 -0.36946807427E-01 -0.18193597901E-01  0.41222400479E-01  0.51100000000E-03 0. -1.
         11    1    4    4    0    0 -0.87531960442E-02 -0.91227279471E-01 -0.35918139781E-02  0.91718030993E-01  0.51100000000E-03 0.  1.
</event>
<event>
 8    1  0.1132255E+005  0.1043930E+01  0.7957747E-01            NaN
         13   -1    0    0    0    0  0.00000000000E+00  0.00000000000E+00  0.74505805969E-08  0.10566000000E+00  0.10566000000E+00 0.  1.
     999900   -1    0    0    0    0 -0.00000000000E+00 -0.00000000000E+00 -0.74505805969E-08  0.93827000000E+00  0.93827000000E+00 0. -1.
     999902    2    1    2    0    0  0.19159227667E-01  0.12703994807E-01  0.52353766042E-02  0.10203529634E+01  0.10200805327E+01 0.  0.
     999903    2    3    3    0    0 -0.51693305837E-01 -0.10825564285E+00  0.41777427882E-01  0.12850844946E+00  0.19431572881E-01 0.  0.
         14    1    1    2    0    0 -0.19159227667E-01 -0.12703994807E-01 -0.52353766042E-02  0.23577036646E-01  0.00000000000E+00 0. -1.
     999901    1    3    3    0    0  0.70852533504E-01  0.12095963766E+00 -0.36542051278E-01  0.89184451389E+00  0.88000000000E+00 0. -1.
        -11    1    4    4    0    0 -0.45332305636E-02 -0.18076481082E-01  0.39085206192E-03  0.18647338523E-01  0.51100000000E-03 0.  1.
         11    1    4    4    0    0 -0.47160075273E-01 -0.90179161771E-01  0.41386575820E-01  0.10986111094E+00  0.51100000000E-03 0. -1.
</event>
<event>
 8    1  0.1132255E+005  0.1043930E+01  0.7957747E-01            NaN
         13   -1    0    0    0    0  0.00000000000E+00  0.00000000000E+00  0.74505805969E-08  0.10566000000E+00  0.10566000000E+00 0. -1.
     999900   -1    0    0    0    0 -0.00000000000E+00 -0.00000000000E+00 -0.74505805969E-08  0.93827000000E+00  0.93827000000E+00 0. -1.
     999902    2    1    2    0    0  0.22389119456E-01  0.10939333142E-01 -0.87032811364E-02  0.10175351372E+01  0.10171927382E+01 0.  0.
     999903    2    3    3    0    0  0.18024051819E-01 -0.17225907134E-01 -0.12536503712E+00  0.12937845064E+00  0.20019806118E-01 0.  0.
         14    1    1    2    0    0 -0.22389119456E-01 -0.10939333142E-01  0.87032811364E-02  0.26394862798E-01  0.00000000000E+00 0.  1.
     999901    1    3    3    0    0  0.43650676372E-02  0.28165240276E-01  0.11666175598E+00  0.88815668656E+00  0.88000000000E+00 0.  1.
        -11    1    4    4    0    0  0.13308460316E-02  0.37366169970E-02 -0.74487036116E-02  0.84544523320E-02  0.51100000000E-03 0. -1.
         11    1    4    4    0    0  0.16693205787E-01 -0.20962524131E-01 -0.11791633351E+00  0.12092399831E+00  0.51100000000E-03 0.  1.
</event>
<event>
 8    1  0.1132255E+005  0.1043930E+01  0.7957747E-01            NaN
         13   -1    0    0    0    0  0.00000000000E+00  0.00000000000E+00  0.74505805969E-08  0.10566000000E+00  0.10566000000E+00 0. -1.
     999900   -1    0    0    0    0 -0.00000000000E+00 -0.00000000000E+00 -0.74505805969E-08  0.93827000000E+00  0.93827000000E+00 0. -1.
     999902    2    1    2    0    0  0.15202418262E-01  0.38044924568E-02  0.17901085914E-01  0.10201384771E+01  0.10198610082E+01 0.  0.
     999903    2    3    3    0    0  0.67844916207E-01  0.84329115477E-01  0.75038390989E-01  0.13305329568E+00  0.18923186767E-01 0.  0.
         14    1    1    2    0    0 -0.15202418262E-01 -0.38044924568E-02 -0.17901085914E-01  0.23791522876E-01  0.00000000000E+00 0. -1.
     999901    1    3    3    0    0 -0.52642497945E-01 -0.80524623021E-01 -0.57137305075E-01  0.88708518144E+00  0.88000000000E+00 0. -1.
        -11    1    4    4    0    0  0.25470396316E-01  0.42015198925E-01  0.42111867861E-01  0.64712352491E-01  0.51100000000E-03 0.  1.
         11    1    4    4    0    0  0.42374519890E-01  0.42313916553E-01  0.32926523128E-01  0.68340943191E-01  0.51100000000E-03 0. -1.
</event>
<event>
 7    1  0.1132255E+005  0.1043930E+01  0.7957747E-01            NaN
         13   -1    0    0    0    0  0.00000000000E+00  0.00000000000E+00  0.74505805969E-08  0.10566000000E+00  0.10566000000E+00 0.  1.
     999900   -1    0    0    0    0 -0.00000000000E+00 -0.00000000000E+00 -0.74505805969E-08  0.93827000000E+00  0.93827000000E+00 0. -1.
     999902    2    1    2    0    0  0.46395026709E-02 -0.17920925483E-01  0.13785421276E-01  0.10208492202E+01  0.10205882657E+01 0.  0.
         14    1    1    2    0    0 -0.46395026709E-02  0.17920925483E-01 -0.13785421276E-01  0.23080779774E-01  0.00000000000E+00 0. -1.
     999901    1    3    3    0    0 -0.60004541875E-01 -0.10422562109E+00  0.69963296098E-01  0.89093119147E+00  0.88000000000E+00 0.  1.
        -11    1    3    3    0    0  0.47702618516E-01  0.29971479104E-01 -0.15620251786E-01  0.58464371713E-01  0.51100000000E-03 0.  1.
         11    1    3    3    0    0  0.16941426030E-01  0.56333216500E-01 -0.40557623036E-01  0.71453657041E-01  0.51100000000E-03 0. -1.
</event>
<event>
 8    1  0.1132255E+005  0.1043930E+01  0.7957747E-01            NaN
         13   -1    0    0    0    0  0.00000000000E+00  0.00000000000E+00  0.74505805969E-08  0.10566000000E+00  0.10566000000E+00 0.  1.
     999900   -1    0    0    0    0 -0.00000000000E+00 -0.00000000000E+00 -0.74505805969E-08  0.93827000000E+00  0.93827000000E+00 0.  1.
     999902    2    1    2    0    0 -0.83677838707E-03  0.24626810752E-01  0.45861657942E-02  0.10188658239E+01  0.10185574870E+01 0.  0.
     999903    2    3    3    0    0 -0.99062819342E-01  0.65561499457E-01  0.51526513560E-01  0.13121307644E+00  0.21216442730E-01 0.  0.
         14    1    1    2    0    0  0.83677838707E-03 -0.24626810752E-01 -0.45861657942E-02  0.25064176080E-01  0.00000000000E+00 0.  1.
     999901    1    3    3    0    0  0.98226040955E-01 -0.40934688705E-01 -0.46940347766E-01  0.88765274748E+00  0.88000000000E+00 0.  1.
        -11    1    4    4    0    0  0.26858070267E-03  0.28552073275E-02  0.27940199546E-02  0.40363365796E-02  0.51100000000E-03 0.  1.
         11    1    4    4    0    0 -0.99331400045E-01  0.62706292130E-01  0.48732493605E-01  0.12717673986E+00  0.51100000000E-03 0. -1.
</event>
<event>
 8    1  0.1132255E+005  0.1043930E+01  0.7957747E-01            NaN
         13   -1    0    0    0    0  0.00000000000E+00  0.00000000000E+00  0.74505805969E-08  0.10566000000E+00  0.10566000000E+00 0.  1.
     999900   -1    0    0    0    0 -0.00000000000E+00 -0.00000000000E+00 -0.74505805969E-08  0.93827000000E+00  0.93827000000E+00 0. -1.
     999902    2    1    2    0    0  0.95027513087E-03 -0.66277161564E-02  0.22810987301E-01  0.10201566791E+01  0.10198796395E+01 0.  0.
     999903    2    3    3    0    0 -0.22062511446E-01 -0.12740675597E+00  0.12233754503E-01  0.13154594169E+00  0.20867058957E-01 0.  0.
         14    1    1    2    0    0 -0.95027513087E-03  0.66277161564E-02 -0.22810987301E-01  0.23773320885E-01  0.00000000000E+00 0. -1.
     999901    1    3    3    0    0  0.23012786577E-01  0.12077903981E+00  0.10577232798E-01  0.88861073742E+00  0.88000000000E+00 0.  1.
        -11    1    4    4    0    0 -0.12048267763E-01 -0.41697282865E-01  0.12786318459E-01  0.45250140498E-01  0.51100000000E-03 0.  1.
         11    1    4    4    0    0 -0.10014243683E-01 -0.85709473104E-01 -0.55256395637E-03  0.86295801197E-01  0.51100000000E-03 0. -1.
</event>
<event>
 7    1  0.1132255E+005  0.1043930E+01  0.7957747E-01            NaN
         13   -1    0    0    0    0  0.00000000000E+00  0.00000000000E+00  0.74505805969E-08  0.10566000000E+00  0.10566000000E+00 0. -1.
     999900   -1    0    0    0    0 -0.00000000000E+00 -0.00000000000E+00 -0.74505805969E-08  0.93827000000E+00  0.93827000000E+00 0.  1.
     999903    2    1    2    0    0 -0.72961296209E-01 -0.64271433535E-01  0.34621507681E-01  0.10515110759E+00  0.20098226767E-01 0.  0.
         14    1    1    2    0    0 -0.29571880717E-01  0.40406637962E-01  0.11242284937E-01  0.51318432275E-01  0.00000000000E+00 0.  1.
     999901    1    1    2    0    0  0.10253317693E+00  0.23864795573E-01 -0.45863792618E-01  0.88746046014E+00  0.88000000000E+00 0.  1.
        -11    1    3    3    0    0 -0.16804682714E-01 -0.14467545489E-01  0.17267816563E-01  0.28109532963E-01  0.51100000000E-03 0.  1.
         11    1    3    3    0    0 -0.56156613496E-01 -0.49803888046E-01  0.17353691118E-01  0.77041574622E-01  0.51100000000E-03 0. -1.
</event>
<event>
 8    1  0.1132255E+005  0.1043930E+01  0.7957747E-01            NaN
         13   -1    0    0    0    0  0.00000000000E+00  0.00000000000E+00  0.74505805969E-08  0.10566000000E+00  0.10566000000E+00 0.  1.
     999900   -1    0    0    0    0 -0.00000000000E+00 -0.00000000000E+00 -0.74505805969E-08  0.93827000000E+00  0.93827000000E+00 0. -1.
     999902    2    1    2    0    0 -0.30628145319E-02 -0.22206945092E-01 -0.42965352505E-03  0.10215087189E+01  0.10212626249E+01 0.  0.
     999903    2    3    3    0    0  0.10039054109E+00  0.26084276066E-01  0.77082712471E-01  0.13075465313E+00  0.19909408745E-01 0.  0.
         14    1    1    2    0    0  0.30628145319E-02  0.22206945092E-01  0.42965352505E-03  0.22421281081E-01  0.00000000000E+00 0.  1.
     999901    1    3    3    0    0 -0.10345335562E+00 -0.48291221158E-01 -0.77512365996E-01  0.89075406578E+00  0.88000000000E+00 0. -1.
        -11    1    4    4    0    0  0.12464675788E-01 -0.22622611930E-03  0.16884798311E-01  0.20994686370E-01  0.51100000000E-03 0. -1.
         11    1    4    4    0    0  0.87925865299E-01  0.26310502186E-01  0.60197914160E-01  0.10975996676E+00  0.51100000000E-03 0.  1.
</event>
<event>
 8    1  0.1132255E+005  0.1043930E+01  0.7957747E-01            NaN
         13   -1    0    0    0    0  0.00000000000E+00  0.00000000000E+00  0.74505805969E-08  0.10566000000E+00  0.10566000000E+00 0. -1.
     999900   -1    0    0    0    0 -0.00000000000E+00 -0.00000000000E+00 -0.74505805969E-08  0.93827000000E+00  0.93827000000E+00 0.  1.
     999902    2    1    2    0    0  0.41593518049E-02  0.97077589700E-02  0.21077622441E-01  0.10203544415E+01  0.10200820454E+01 0.  0.
     999903    2    3    3    0    0 -0.75752121306E-01 -0.10295065110E+00 -0.23349815982E-04  0.12933086608E+00  0.19729468627E-01 0.  0.
         14    1    1    2    0    0 -0.41593518049E-02 -0.97077589700E-02 -0.21077622441E-01  0.23575558517E-01  0.00000000000E+00 0.  1.
     999901    1    3    3    0    0  0.79911473111E-01  0.11265841007E+00  0.21100972257E-01  0.89102357540E+00  0.88000000000E+00 0.  1.
        -11    1    4    4    0    0 -0.12746750367E-01 -0.12759940654E-01 -0.63540653851E-02  0.19129322997E-01  0.51100000000E-03 0.  1.
         11    1    4    4    0    0 -0.63005370940E-01 -0.90190710442E-01  0.63307155691E-02  0.11020154308E+00  0.51100000000E-03 0. -1.
</event>
<event>
 8    1  0.1132255E+005  0.1043930E+01  0.7957747E-01            NaN
         13   -1    0    0    0    0  0.00000000000E+00  0.00000000000E+00  0.74505805969E-08  0.10566000000E+00  0.10566000000E+00 0. -1.
     999900   -1    0    0    0    0 -0.00000000000E+00 -0.00000000000E+00 -0.74505805969E-08  0.93827000000E+00  0.93827000000E+00 0.  1.
     999902    2    1    2    0    0  0.53617978106E-03 -0.16188975758E-02 -0.30793377512E-01  0.10130894355E+01  0.10126199010E+01 0.  0.
     999903    2    3    3    0    0  0.72092351830E-01  0.30991331109E-01 -0.97842514524E-01  0.12704242801E+00  0.20220065999E-01 0.  0.
         14    1    1    2    0    0 -0.53617978106E-03  0.16188975758E-02  0.30793377512E-01  0.30840564468E-01  0.00000000000E+00 0. -1.
     999901    1    3    3    0    0 -0.71556172049E-01 -0.32610228684E-01  0.67049137012E-01  0.88604700753E+00  0.88000000000E+00 0.  1.
        -11    1    4    4    0    0  0.53891691013E-01  0.29165258514E-01 -0.64240716690E-01  0.88780952159E-01  0.51100000000E-03 0. -1.
         11    1    4    4    0    0  0.18200660816E-01  0.18260725945E-02 -0.33601797834E-01  0.38261475846E-01  0.51100000000E-03 0.  1.
</event>
<event>
 8    1  0.1132255E+005  0.1043930E+01  0.7957747E-01            NaN
         13   -1    0    0    0    0  0.00000000000E+00  0.00000000000E+00  0.74505805969E-08  0.10566000000E+00  0.10566000000E+00 0. -1.
     999900   -1    0    0    0    0 -0.00000000000E+00 -0.00000000000E+00 -0.74505805969E-08  0.93827000000E+00  0.93827000000E+00 0.  1.
     999902    2    1    2    0    0 -0.20860367171E-01 -0.52709304586E-02 -0.10590762530E-01  0.10199487182E+01  0.10196667524E+01 0.  0.
     999903    2    3    3    0    0 -0.17956304917E-02  0.12698697522E+00  0.15789668705E-01  0.12947045065E+00  0.19605300066E-01 0.  0.
         14    1    1    2    0    0  0.20860367171E-01  0.52709304586E-02  0.10590762530E-01  0.23981281813E-01  0.00000000000E+00 0. -1.
     999901    1    3    3    0    0 -0.19064736680E-01 -0.13225790568E+00 -0.26380431234E-01  0.89047826753E+00  0.88000000000E+00 0.  1.
        -11    1    4    4    0    0 -0.51346931562E-02  0.84041214924E-01  0.19448375539E-02  0.84221935349E-01  0.51100000000E-03 0.  1.
         11    1    4    4    0    0  0.33390626645E-02  0.42945760293E-01  0.13844831151E-01  0.45248515304E-01  0.51100000000E-03 0. -1.
</event>
<event>
 8    1  0.1132255E+005  0.1043930E+01  0.7957747E-01            NaN
         13   -1    0    0    0    0  0.00000000000E+00  0.00000000000E+00  0.74505805969E-08  0.10566000000E+00  0.10566000000E+00 0. -1.
     999900   -1    0    0    0    0 -0.00000000000E+00 -0.00000000000E+00 -0.74505805969E-08  0.93827000000E+00  0.93827000000E+00 0. -1.
     999902    2    1    2    0    0 -0.22291826562E-01 -0.20116634799E-02 -0.72579398260E-02  0.10204002314E+01  0.10201289047E+01 0.  0.
     999903    2    3    3    0    0  0.69357399348E-01  0.26408294483E-01 -0.10445897336E+00  0.12986369897E+00  0.21096358285E-01 0.  0.
         14    1    1    2    0    0  0.22291826562E-01  0.20116634799E-02  0.72579398260E-02  0.23529768633E-01  0.00000000000E+00 0.  1.
     999901    1    3    3    0    0 -0.91649225910E-01 -0.28419957963E-01  0.97201033529E-01  0.89053653240E+00  0.88000000000E+00 0.  1.
        -11    1    4    4    0    0  0.97171731855E-02  0.23033001590E-02 -0.29162486233E-01  0.30829212942E-01  0.51100000000E-03 0. -1.
         11    1    4    4    0    0  0.59640226163E-01  0.24104994324E-01 -0.75296487122E-01  0.99034486024E-01  0.51100000000E-03 0.  1.
</event>
<event>
 8    1  0.1132255E+005  0.1043930E+01  0.7957747E-01            NaN
         13   -1    0    0    0    0  0.00000000000E+00  0.00000000000E+00  0.74505805969E-08  0.10566000000E+00  0.10566000000E+00 0. -1.
     999900   -1    0    0    0    0 -0.00000000000E+00 -0.00000000000E+00 -0.74505805969E-08  0.93827000000E+00  0.93827000000E+00 0. -1.
     999902    2    1    2    0    0  0.27967182812E-01  0.74490320873E-02  0.54040520038E-02  0.10144875957E+01  0.10140602678E+01 0.  0.
     999903    2    3    3    0    0 -0.69821834014E-01  0.46526915836E-01 -0.88001739221E-01  0.12330051396E+00  0.20466270648E-01 0.  0.
         14    1    1    2    0    0 -0.27967182812E-01 -0.74490320873E-02 -0.54040520038E-02  0.29442404310E-01  0.00000000000E+00 0. -1.
     999901    1    3    3    0    0  0.97789016826E-01 -0.39077883749E-01  0.93405791225E-01  0.89118708173E+00  0.88000000000E+00 0. -1.
        -11    1    4    4    0    0 -0.16976989846E-01  0.22219468883E-01 -0.32836726882E-01  0.43132757099E-01  0.51100000000E-03 0. -1.
         11    1    4    4    0    0 -0.52844844167E-01  0.24307446953E-01 -0.55165012339E-01  0.80167756859E-01  0.51100000000E-03 0.  1.
</event>
<event>
 8    1  0.1132255E+005  0.1043930E+01  0.7957747E-01            NaN
         13   -1    0    0    0    0  0.00000000000E+00  0.00000000000E+00  0.74505805969E-08  0.10566000000E+00  0.10566000000E+00 0.  1.
     999900   -1    0    0    0    0 -0.00000000000E+00 -0.00000000000E+00 -0.74505805969E-08  0.93827000000E+00  0.93827000000E+00 0.  1.
     999902    2    1    2    0    0 -0.20843171732E-01 -0.12593237136E-01  0.12898691849E-02  0.10195437089E+01  0.10192520215E+01 0.  0.
     999903    2    3    3    0    0  0.26187538334E-01  0.41509481410E-01  0.11764357683E+00  0.12899490223E+00  0.19769911979E-01 0.  0.
         14    1    1    2    0    0  0.20843171732E-01  0.12593237136E-01 -0.12898691849E-02  0.24386291065E-01  0.00000000000E+00 0.  1.
     999901    1    3    3    0    0 -0.47030710065E-01 -0.54102718546E-01 -0.11635370765E+00  0.89054880671E+00  0.88000000000E+00 0.  1.
        -11    1    4    4    0    0  0.14711943712E-01  0.36534460534E-01  0.98904941476E-01  0.10645964805E+00  0.51100000000E-03 0. -1.
         11    1    4    4    0    0  0.11475594622E-01  0.49750208767E-02  0.18738635358E-01  0.22535254175E-01  0.51100000000E-03 0.  1.
</event>
<event>
 7    1  0.1208412E+005  0.1043930E+01  0.7957747E-01            NaN
         13   -1    0    0    0    0  0.00000000000E+00  0.00000000000E+00  0.74505805969E-08  0.10566000000E+00  0.10566000000E+00 0. -1.
     999900   -1    0    0    0    0 -0.00000000000E+00 -0.00000000000E+00 -0.74505805969E-08  0.93827000000E+00  0.93827000000E+00 0.  1.
     999903    2    1    2    0    0 -0.90770022062E-01 -0.20211872885E-01  0.36682594846E-01  0.10204351542E+00  0.20482909085E-01 0.  0.
         14    1    1    2    0    0  0.45743242085E-01  0.29406564533E-01  0.22166840148E-01  0.58724433043E-01  0.00000000000E+00 0. -1.
     999901    1    1    2    0    0  0.45026779977E-01 -0.91946916487E-02 -0.58849434994E-01  0.88316205153E+00  0.88000000000E+00 0.  1.
        -11    1    3    3    0    0 -0.54512154679E-01 -0.21875642225E-01  0.19585727939E-01  0.61919145588E-01  0.51100000000E-03 0. -1.
         11    1    3    3    0    0 -0.36257867383E-01  0.16637693402E-02  0.17096866908E-01  0.40124369835E-01  0.51100000000E-03 0.  1.
</event>
<event>
 8    1  0.1132255E+005  0.1043930E+01  0.7957747E-01            NaN
         13   -1    0    0    0    0  0.00000000000E+00  0.00000000000E+00  0.74505805969E-08  0.10566000000E+00  0.10566000000E+00 0. -1.
     999900   -1    0    0    0    0 -0.00000000000E+00 -0.00000000000E+00 -0.74505805969E-08  0.93827000000E+00  0.93827000000E+00 0. -1.
     999902    2    1    2    0    0 -0.73434330293E-02 -0.18213568639E-01 -0.14745157517E-01  0.10193723177E+01  0.10190764654E+01 0.  0.
     999903    2    3    3    0    0 -0.96251181308E-01 -0.78702417317E-01 -0.42002513588E-01  0.13240757656E+00  0.17583935481E-01 0.  0.
         14    1    1    2    0    0  0.73434330293E-02  0.18213568639E-01  0.14745157517E-01  0.24557682330E-01  0.00000000000E+00 0. -1.
     999901    1    3    3    0    0  0.88907748279E-01  0.60488848678E-01  0.27257356071E-01  0.88696474111E+00  0.88000000000E+00 0. -1.
        -11    1    4    4    0    0 -0.63814405843E-01 -0.49435743876E-01 -0.35691149488E-01  0.88262621978E-01  0.51100000000E-03 0.  1.
         11    1    4    4    0    0 -0.32436775465E-01 -0.29266673441E-01 -0.63113640993E-02  0.44144954578E-01  0.51100000000E-03 0. -1.
</event>
<event>
 8    1  0.1775208E+005  0.1043930E+01  0.7957747E-01            NaN
         13   -1    0    0    0    0  0.00000000000E+00  0.00000000000E+00  0.74505805969E-08  0.10566000000E+00  0.10566000000E+00 0. -1.
     999900   -1    0    0    0    0 -0.00000000000E+00 -0.00000000000E+00 -0.74505805969E-08  0.93827000000E+00  0.93827000000E+00 0. -1.
     999902    2    1    2    0    0 -0.15247116145E-01  0.15098009451E-01 -0.10459040452E-01  0.10200591817E+01  0.10197798381E+01 0.  0.
     999903    2    3    3    0    0  0.46315916836E-01  0.58931987665E-01 -0.10657736581E+00  0.13160538032E+00  0.18522902180E-01 0.  0.
         14    1    1    2    0    0  0.15247116145E-01 -0.15098009451E-01  0.10459040452E-01  0.23870818321E-01  0.00000000000E+00 0. -1.
     999901    1    3    3    0    0 -0.61563032981E-01 -0.43833978215E-01  0.96118325354E-01  0.88845380136E+00  0.88000000000E+00 0.  1.
        -11    1    4    4    0    0  0.24887937697E-01  0.19088084180E-01 -0.51818435560E-01  0.60573721904E-01  0.51100000000E-03 0.  1.
         11    1    4    4    0    0  0.21427979139E-01  0.39843903486E-01 -0.54758930246E-01  0.71031658419E-01  0.51100000000E-03 0. -1.
</event>
<event>
 8    1  0.1132255E+005  0.1043930E+01  0.7957747E-01            NaN
         13   -1    0    0    0    0  0.00000000000E+00  0.00000000000E+00  0.74505805969E-08  0.10566000000E+00  0.10566000000E+00 0.  1.
     999900   -1    0    0    0    0 -0.00000000000E+00 -0.00000000000E+00 -0.74505805969E-08  0.93827000000E+00  0.93827000000E+00 0.  1.
     999902    2    1    2    0    0  0.17873558577E-01  0.14656845665E-01  0.11827594624E-01  0.10179650387E+01  0.10176338442E+01 0.  0.
     999903    2    3    3    0    0 -0.56151137263E-01 -0.29958664358E-01 -0.10661630270E+00  0.12583323445E+00  0.20408211669E-01 0.  0.
         14    1    1    2    0    0 -0.17873558577E-01 -0.14656845665E-01 -0.11827594624E-01  0.25964961307E-01  0.00000000000E+00 0.  1.
     999901    1    3    3    0    0  0.74024695840E-01  0.44615510023E-01  0.11844389733E+00  0.89213180424E+00  0.88000000000E+00 0.  1.
        -11    1    4    4    0    0 -0.29404981469E-01 -0.98480985475E-02 -0.67959450246E-01  0.74701981091E-01  0.51100000000E-03 0.  1.
         11    1    4    4    0    0 -0.26746155794E-01 -0.20110565811E-01 -0.38656852459E-01  0.51131253358E-01  0.51100000000E-03 0. -1.
</event>
<event>
 8    1  0.1132255E+005  0.1043930E+01  0.7957747E-01            NaN
         13   -1    0    0    0    0  0.00000000000E+00  0.00000000000E+00  0.74505805969E-08  0.10566000000E+00  0.10566000000E+00 0.  1.
     999900   -1    0    0    0    0 -0.00000000000E+00 -0.00000000000E+00 -0.74505805969E-08  0.93827000000E+00  0.93827000000E+00 0.  1.
     999902    2    1    2    0    0  0.15974596024E-01 -0.12177219526E-01 -0.12202029404E-01  0.10204276189E+01  0.10201569309E+01 0.  0.
     999903    2    3    3    0    0  0.38489678733E-01  0.70001141233E-01  0.99650179590E-01  0.12926482317E+00  0.19940438144E-01 0.  0.
         14    1    1    2    0    0 -0.15974596024E-01  0.12177219526E-01  0.12202029404E-01  0.23502381051E-01  0.00000000000E+00 0.  1.
     999901    1    3    3    0    0 -0.22515082709E-01 -0.82178360760E-01 -0.11185220899E+00  0.89116279578E+00  0.88000000000E+00 0.  1.
        -11    1    4    4    0    0  0.62288841242E-03  0.49256496729E-02  0.87802125760E-03  0.50677467383E-02  0.51100000000E-03 0.  1.
         11    1    4    4    0    0  0.37866790320E-01  0.65075491560E-01  0.98772158333E-01  0.12419707643E+00  0.51100000000E-03 0. -1.
</event>
<event>
 8    1  0.1132255E+005  0.1043930E+01  0.7957747E-01            NaN
         13   -1    0    0    0    0  0.00000000000E+00  0.00000000000E+00  0.74505805969E-08  0.10566000000E+00  0.10566000000E+00 0.  1.
     999900   -1    0    0    0    0 -0.00000000000E+00 -0.00000000000E+00 -0.74505805969E-08  0.93827000000E+00  0.93827000000E+00 0. -1.
     999902    2    1    2    0    0 -0.16796648734E-01  0.16039999560E-01 -0.61388701798E-02  0.10199072041E+01  0.10196242496E+01 0.  0.
     999903    2    3    3    0    0  0.18177561874E-02  0.90703597199E-01 -0.94484442334E-01  0.13214254556E+00  0.17432605106E-01 0.  0.
         14    1    1    2    0    0  0.16796648734E-01 -0.16039999560E-01  0.61388701798E-02  0.24022795875E-01  0.00000000000E+00 0.  1.
     999901    1    3    3    0    0 -0.18614404921E-01 -0.74663597639E-01  0.88345572155E-01  0.88776465857E+00  0.88000000000E+00 0.  1.
        -11    1    4    4    0    0 -0.34966401270E-02  0.58143701066E-01 -0.69934308589E-01  0.91016400196E-01  0.51100000000E-03 0.  1.
         11    1    4    4    0    0  0.53143963144E-02  0.32559896132E-01 -0.24550133745E-01  0.41126145361E-01  0.51100000000E-03 0. -1.
</event>
<event>
 8    1  0.1132255E+005  0.1043930E+01  0.7957747E-01            NaN
         13   -1    0    0    0    0  0.00000000000E+00  0.00000000000E+00  0.74505805969E-08  0.10566000000E+00  0.10566000000E+00 0.  1.
     999900   -1    0    0    0    0 -0.00000000000E+00 -0.00000000000E+00 -0.74505805969E-08  0.93827000000E+00  0.93827000000E+00 0. -1.
     999902    2    1    2    0    0 -0.17248733701E-01  0.49133215362E-02  0.17104569868E-01  0.10191464197E+01  0.10188450318E+01 0.  0.
     999903    2    3    3    0    0  0.91331343483E-01 -0.48146290850E-01  0.73831846338E-01  0.12907735522E+00  0.23459379175E-01 0.  0.
         14    1    1    2    0    0  0.17248733701E-01 -0.49133215362E-02 -0.17104569868E-01  0.24783580314E-01  0.00000000000E+00 0.  1.
     999901    1    3    3    0    0 -0.10858007718E+00  0.53059612387E-01 -0.56727276470E-01  0.89006906447E+00  0.88000000000E+00 0. -1.
        -11    1    4    4    0    0  0.76148554160E-01 -0.37893098860E-01  0.70440948136E-01  0.11043856907E+00  0.51100000000E-03 0. -1.
         11    1    4    4    0    0  0.15182789323E-01 -0.10253191990E-01  0.33908982016E-02  0.18638786152E-01  0.51100000000E-03 0.  1.
</event>
<event>
 8    1  0.1132255E+005  0.1043930E+01  0.7957747E-01            NaN
         13   -1    0    0    0    0  0.00000000000E+00  0.00000000000E+00  0.74505805969E-08  0.10566000000E+00  0.10566000000E+00 0.  1.
     999900   -1    0    0    0    0 -0.00000000000E+00 -0.00000000000E+00 -0.74505805969E-08  0.93827000000E+00  0.93827000000E+00 0. -1.
     999902    2    1    2    0    0 -0.39825167650E-02 -0.13544393588E-01 -0.18419864785E-01  0.10207221898E+01  0.10204583216E+01 0.  0.
     999903    2    3    3    0    0  0.11293341363E+00 -0.33761353274E-01  0.50741288509E-01  0.13006999874E+00  0.21207105536E-01 0.  0.
         14    1    1    2    0    0  0.39825167650E-02  0.13544393588E-01  0.18419864785E-01  0.23207810240E-01  0.00000000000E+00 0.  1.
     999901    1    3    3    0    0 -0.11691593039E+00  0.20216959686E-01 -0.69161153293E-01  0.89065219102E+00  0.88000000000E+00 0. -1.
        -11    1    4    4    0    0  0.59938663639E-01 -0.71537056644E-02  0.28209002795E-01  0.66632033311E-01  0.51100000000E-03 0.  1.
         11    1    4    4    0    0  0.52994749988E-01 -0.26607647610E-01  0.22532285714E-01  0.63437965432E-01  0.51100000000E-03 0. -1.
</event>
<event>
 8    1  0.1132255E+005  0.1043930E+01  0.7957747E-01            NaN
         13   -1    0    0    0    0  0.00000000000E+00  0.00000000000E+00  0.74505805969E-08  0.10566000000E+00  0.10566000000E+00 0. -1.
     999900   -1    0    0    0    0 -0.00000000000E+00 -0.00000000000E+00 -0.74505805969E-08  0.93827000000E+00  0.93827000000E+00 0.  1.
     999902    2    1    2    0    0 -0.19973123663E-01 -0.14111252097E-01  0.38761650281E-02  0.10191695929E+01  0.10188687753E+01 0.  0.
     999903    2    3    3    0    0  0.58661745079E-01 -0.55316663040E-01 -0.97843771254E-01  0.12887285927E+00  0.23101444477E-01 0.  0.
         14    1    1    2    0    0  0.19973123663E-01  0.14111252097E-01 -0.38761650281E-02  0.24760407104E-01  0.00000000000E+00 0. -1.
     999901    1    3    3    0    0 -0.78634868742E-01  0.41205410943E-01  0.10171993628E+00  0.89029673363E+00  0.88000000000E+00 0. -1.
        -11    1    4    4    0    0  0.22443476847E-01 -0.27535701756E-01 -0.59300948952E-01  0.69128779765E-01  0.51100000000E-03 0. -1.
         11    1    4    4    0    0  0.36218268232E-01 -0.27780961284E-01 -0.38542822302E-01  0.59744079502E-01  0.51100000000E-03 0.  1.
</event>
<event>
 8    1  0.1132255E+005  0.1043930E+01  0.7957747E-01            NaN
         13   -1    0    0    0    0  0.00000000000E+00  0.00000000000E+00  0.74505805969E-08  0.10566000000E+00  0.10566000000E+00 0.  1.
     999900   -1    0    0    0    0 -0.00000000000E+00 -0.00000000000E+00 -0.74505805969E-08  0.93827000000E+00  0.93827000000E+00 0.  1.
     999902    2    1    2    0    0 -0.17287730336E-01  0.11999699352E-01 -0.11184611897E-01  0.10200982156E+01  0.10198197956E+01 0.  0.
     999903    2    3    3    0    0 -0.72026739213E-01  0.50043538439E-01  0.95554766227E-01  0.13114546790E+00  0.19396223901E-01 0.  0.
         14    1    1    2    0    0  0.17287730336E-01 -0.11999699352E-01  0.11184611897E-01  0.23831784407E-01  0.00000000000E+00 0. -1.
     999901    1    3    3    0    0  0.54739008877E-01 -0.38043839086E-01 -0.10673937812E+00  0.88895274769E+00  0.88000000000E+00 0.  1.
        -11    1    4    4    0    0 -0.62013756018E-01  0.43692121568E-01  0.90900271525E-01  0.11839690835E+00  0.51100000000E-03 0. -1.
         11    1    4    4    0    0 -0.10012983194E-01  0.63514168707E-02  0.46544947012E-02  0.12748559552E-01  0.51100000000E-03 0.  1.
</event>
<event>
 8    1  0.1132255E+005  0.1043930E+01  0.7957747E-01            NaN
         13   -1    0    0    0    0  0.00000000000E+00  0.00000000000E+00  0.74505805969E-08  0.10566000000E+00  0.10566000000E+00 0. -1.
     999900   -1    0    0    0    0 -0.00000000000E+00 -0.00000000000E+00 -0.74505805969E-08  0.93827000000E+00  0.93827000000E+00 0. -1.
     999902    2    1    2    0    0 -0.21420749838E-01 -0.11584948678E-01 -0.84148332770E-03  0.10195626519E+01  0.10192714229E+01 0.  0.
     999903    2    3    3    0    0 -0.98741979081E-01 -0.75589299268E-01  0.42465139218E-01  0.13279853842E+00  0.19194873314E-01 0.  0.
         14    1    1    2    0    0  0.21420749838E-01  0.11584948678E-01  0.84148332770E-03  0.24367348105E-01  0.00000000000E+00 0. -1.
     999901    1    3    3    0    0  0.77321229244E-01  0.64004350590E-01 -0.43306622546E-01  0.88676411347E+00  0.88000000000E+00 0. -1.
        -11    1    4    4    0    0 -0.74165296469E-01 -0.51725892147E-01  0.38614657602E-01  0.98322998436E-01  0.51100000000E-03 0.  1.
         11    1    4    4    0    0 -0.24576682612E-01 -0.23863407122E-01  0.38504816163E-02  0.34475539986E-01  0.51100000000E-03 0. -1.
</event>
<event>
 8    1  0.1132255E+005  0.1043930E+01  0.7957747E-01            NaN
         13   -1    0    0    0    0  0.00000000000E+00  0.00000000000E+00  0.74505805969E-08  0.10566000000E+00  0.10566000000E+00 0. -1.
     999900   -1    0    0    0    0 -0.00000000000E+00 -0.00000000000E+00 -0.74505805969E-08  0.93827000000E+00  0.93827000000E+00 0.  1.
     999902    2    1    2    0    0 -0.12647511723E-01  0.13975241303E-01  0.14478116177E-01  0.10201627374E+01  0.10198858407E+01 0.  0.
     999903    2    3    3    0    0 -0.62616359924E-01  0.59335075540E-01  0.10029448059E+00  0.13341652303E+00  0.17306821208E-01 0.  0.
         14    1    1    2    0    0  0.12647511723E-01 -0.13975241303E-01 -0.14478116177E-01  0.23767262575E-01  0.00000000000E+00 0.  1.
     999901    1    3    3    0    0  0.49968848201E-01 -0.45359834237E-01 -0.85816364410E-01  0.88674621440E+00  0.88000000000E+00 0.  1.
        -11    1    4    4    0    0 -0.14857808679E-01  0.12001909166E-01  0.12510232671E-01  0.22837848954E-01  0.51100000000E-03 0.  1.
         11    1    4    4    0    0 -0.47758551244E-01  0.47333166374E-01  0.87784247916E-01  0.11057867407E+00  0.51100000000E-03 0. -1.
</event>
<event>
 8    1  0.1132255E+005  0.1043930E+01  0.7957747E-01            NaN
         13   -1    0    0    0    0  0.00000000000E+00  0.00000000000E+00  0.74505805969E-08  0.10566000000E+00  0.10566000000E+00 0. -1.
     999900   -1    0    0    0    0 -0.00000000000E+00 -0.00000000000E+00 -0.74505805969E-08  0.93827000000E+00  0.93827000000E+00 0. -1.
     999902    2    1    2    0    0  0.71409921113E-02 -0.23103683406E-02  0.22937288716E-01  0.10197959828E+01  0.10195103706E+01 0.  0.
     999903    2    3    3    0    0  0.96302823850E-01 -0.85969841820E-01 -0.14501980388E-01  0.13055448662E+00  0.13004574494E-01 0.  0.
         14    1    1    2    0    0 -0.71409921113E-02  0.23103683406E-02 -0.22937288716E-01  0.24134017151E-01  0.00000000000E+00 0.  1.
     999901    1    3    3    0    0 -0.89161831738E-01  0.83659473480E-01  0.37439269104E-01  0.88924149623E+00  0.88000000000E+00 0.  1.
        -11    1    4    4    0    0  0.94145029533E-01 -0.83842157796E-01 -0.16098512651E-01  0.12709137359E+00  0.51100000000E-03 0.  1.
         11    1    4    4    0    0  0.21577943169E-02 -0.21276840243E-02  0.15965322634E-02  0.34631130345E-02  0.51100000000E-03 0. -1.
</event>
<event>
 8    1  0.1132255E+005  0.1043930E+01  0.7957747E-01            NaN
         13   -1    0    0    0    0  0.00000000000E+00  0.00000000000E+00  0.74505805969E-08  0.10566000000E+00  0.10566000000E+00 0. -1.
     999900   -1    0    0    0    0 -0.00000000000E+00 -0.00000000000E+00 -0.74505805969E-08  0.93827000000E+00  0.93827000000E+00 0.  1.
     999902    2    1    2    0    0 -0.14584488334E-01 -0.15225977175E-01 -0.10551018900E-01  0.10203532810E+01  0.10200808577E+01 0.  0.
     999903    2    3    3    0    0 -0.30417239289E-02  0.63759873969E-01 -0.11255313924E+00  0.13087229036E+00  0.19615647278E-01 0.  0.
         14    1    1    2    0    0  0.14584488334E-01  0.15225977175E-01  0.10551018900E-01  0.23576719040E-01  0.00000000000E+00 0. -1.
     999901    1    3    3    0    0 -0.11542764405E-01 -0.78985851144E-01  0.10200212034E+00  0.88948099060E+00  0.88000000000E+00 0. -1.
        -11    1    4    4    0    0  0.31390727084E-02  0.66747336417E-02 -0.25790132368E-01  0.26829049465E-01  0.51100000000E-03 0.  1.
         11    1    4    4    0    0 -0.61807966373E-02  0.57085140327E-01 -0.86763006869E-01  0.10404324089E+00  0.51100000000E-03 0. -1.
</event>
<event>
 8    1  0.1132255E+005  0.1043930E+01  0.7957747E-01            NaN
         13   -1    0    0    0    0  0.00000000000E+00  0.00000000000E+00  0.74505805969E-08  0.10566000000E+00  0.10566000000E+00 0.  1.
     999900   -1    0    0    0    0 -0.00000000000E+00 -0.00000000000E+00 -0.74505805969E-08  0.93827000000E+00  0.93827000000E+00 0.  1.
     999902    2    1    2    0    0  0.13716679011E-01 -0.16975018805E-01 -0.87395276489E-02  0.10204208977E+01  0.10201500530E+01 0.  0.
     999903    2    3    3    0    0  0.78438774090E-01  0.67423146571E-01  0.76806761058E-01  0.12989848508E+00  0.16607706235E-01 0.  0.
         14    1    1    2    0    0 -0.13716679011E-01  0.16975018805E-01  0.87395276489E-02  0.23509102281E-01  0.00000000000E+00 0.  1.
     999901    1    3    3    0    0 -0.64722095079E-01 -0.84398165376E-01 -0.85546288707E-01  0.89052241264E+00  0.88000000000E+00 0. -1.
        -11    1    4    4    0    0  0.29694597500E-01  0.15756427070E-01  0.27423559669E-01  0.43386021488E-01  0.51100000000E-03 0. -1.
         11    1    4    4    0    0  0.48744176590E-01  0.51666719501E-01  0.49383201389E-01  0.86512463587E-01  0.51100000000E-03 0.  1.
</event>
<event>
 8    1  0.1132255E+005  0.1043930E+01  0.7957747E-01            NaN
         13   -1    0    0    0    0  0.00000000000E+00  0.00000000000E+00  0.74505805969E-08  0.10566000000E+00  0.10566000000E+00 0. -1.
     999900   -1    0    0    0    0 -0.00000000000E+00 -0.00000000000E+00 -0.74505805969E-08  0.93827000000E+00  0.93827000000E+00 0.  1.
     999902    2    1    2    0    0  0.22189903252E-01 -0.57044144935E-02 -0.23663285208E-02  0.10208967271E+01  0.10206368579E+01 0.  0.
     999903    2    3    3    0    0  0.76755457403E-01 -0.10367166827E+00 -0.27567478012E-01  0.13342273847E+00  0.20061063126E-01 0.  0.
         14    1    1    2    0    0 -0.22189903252E-01  0.57044144935E-02  0.23663285208E-02  0.23033272927E-01  0.00000000000E+00 0.  1.
     999901    1    3    3    0    0 -0.54565554150E-01  0.97967253776E-01  0.25201149491E-01  0.88747398860E+00  0.88000000000E+00 0. -1.
        -11    1    4    4    0    0  0.30566777864E-01 -0.25980335167E-01 -0.99724986662E-02  0.41340265784E-01  0.51100000000E-03 0.  1.
         11    1    4    4    0    0  0.46188679539E-01 -0.77691333102E-01 -0.17594979346E-01  0.92082472686E-01  0.51100000000E-03 0. -1.
</event>
<event>
 8    1  0.1132255E+005  0.1043930E+01  0.7957747E-01            NaN
         13   -1    0    0    0    0  0.00000000000E+00  0.00000000000E+00  0.74505805969E-08  0.10566000000E+00  0.10566000000E+00 0. -1.
     999900   -1    0    0    0    0 -0.00000000000E+00 -0.00000000000E+00 -0.74505805969E-08  0.93827000000E+00  0.93827000000E+00 0.  1.
     999902    2    1    2    0    0  0.17736664723E-02 -0.17465304591E-01 -0.16563710465E-01  0.10197941499E+01  0.10195084938E+01 0.  0.
     999903    2    3    3    0    0  0.99764500809E-01  0.46758173682E-01 -0.67226490761E-01  0.13058462671E+00  0.19840898266E-01 0.  0.
         14    1    1    2    0    0 -0.17736664723E-02  0.17465304591E-01  0.16563710465E-01  0.24135850132E-01  0.00000000000E+00 0. -1.
     999901    1    3    3    0    0 -0.97990834337E-01 -0.64223478273E-01  0.50662780295E-01  0.88920952316E+00  0.88000000000E+00 0.  1.
        -11    1    4    4    0    0  0.64111478439E-02  0.68961755754E-02 -0.12348045924E-02  0.95103058639E-02  0.51100000000E-03 0. -1.
         11    1    4    4    0    0  0.93353352965E-01  0.39861998107E-01 -0.65991686168E-01  0.12107432084E+00  0.51100000000E-03 0.  1.
</event>
<event>
 8    1  0.1132255E+005  0.1043930E+01  0.7957747E-01            NaN
         13   -1    0    0    0    0  0.00000000000E+00  0.00000000000E+00  0.74505805969E-08  0.10566000000E+00  0.10566000000E+00 0.  1.
     999900   -1    0    0    0    0 -0.00000000000E+00 -0.00000000000E+00 -0.74505805969E-08  0.93827000000E+00  0.93827000000E+00 0.  1.
     999902    2    1    2    0    0 -0.20624117224E-01  0.72148108337E-02  0.11264497726E-02  0.10220513210E+01  0.10218171197E+01 0.  0.
     999903    2    3    3    0    0  0.63003183976E-01 -0.23353846020E-03  0.11305688844E+00  0.13099721122E+00  0.20222601014E-01 0.  0.
         14    1    1    2    0    0  0.20624117224E-01 -0.72148108337E-02 -0.11264497726E-02  0.21878679021E-01  0.00000000000E+00 0. -1.
     999901    1    3    3    0    0 -0.83627301200E-01  0.74483492939E-02 -0.11193043867E+00  0.89105410976E+00  0.88000000000E+00 0.  1.
        -11    1    4    4    0    0  0.17964372235E-01  0.90309667440E-02  0.37257697212E-01  0.42339982909E-01  0.51100000000E-03 0.  1.
         11    1    4    4    0    0  0.45038811741E-01 -0.92645052042E-02  0.75799191232E-01  0.88657228313E-01  0.51100000000E-03 0. -1.
</event>
<event>
 8    1  0.1132255E+005  0.1043930E+01  0.7957747E-01            NaN
         13   -1    0    0    0    0  0.00000000000E+00  0.00000000000E+00  0.74505805969E-08  0.10566000000E+00  0.10566000000E+00 0. -1.
     999900   -1    0    0    0    0 -0.00000000000E+00 -0.00000000000E+00 -0.74505805969E-08  0.93827000000E+00  0.93827000000E+00 0. -1.
     999902    2    1    2    0    0  0.93357257999E-02  0.20605321135E-01  0.85302386985E-02  0.10197535650E+01  0.10194669359E+01 0.  0.
     999903    2    3    3    0    0 -0.12682381509E+00 -0.31413803618E-02  0.10532322068E-02  0.12893414897E+00  0.22994719609E-01 0.  0.
         14    1    1    2    0    0 -0.93357257999E-02 -0.20605321135E-01 -0.85302386985E-02  0.24176434964E-01  0.00000000000E+00 0.  1.
     999901    1    3    3    0    0  0.13615954089E+00  0.23746701497E-01  0.74770064917E-02  0.89081941606E+00  0.88000000000E+00 0. -1.
        -11    1    4    4    0    0 -0.77624295039E-01 -0.81223868398E-02 -0.86827365816E-02  0.78531238267E-01  0.51100000000E-03 0.  1.
         11    1    4    4    0    0 -0.49199520048E-01  0.49810064781E-02  0.97359687884E-02  0.50402910707E-01  0.51100000000E-03 0. -1.
</event>
<event>
 8    1  0.1132255E+005  0.1043930E+01  0.7957747E-01            NaN
         13   -1    0    0    0    0  0.00000000000E+00  0.00000000000E+00  0.74505805969E-08  0.10566000000E+00  0.10566000000E+00 0.  1.
     999900   -1    0    0    0    0 -0.00000000000E+00 -0.00000000000E+00 -0.74505805969E-08  0.93827000000E+00  0.93827000000E+00 0.  1.
     999902    2    1    2    0    0  0.23220617029E-01 -0.19570720616E-02  0.32449573563E-02  0.10204022093E+01  0.10201309288E+01 0.  0.
     999903    2    3    3    0    0 -0.24189247874E-01  0.12163838338E+00  0.33473747385E-01  0.12998808564E+00  0.19884532175E-01 0.  0.
         14    1    1    2    0    0 -0.23220617029E-01  0.19570720616E-02 -0.32449573563E-02  0.23527790685E-01  0.00000000000E+00 0. -1.
     999901    1    3    3    0    0  0.47409864903E-01 -0.12359545544E+00 -0.30228790029E-01  0.89041412368E+00  0.88000000000E+00 0.  1.
        -11    1    4    4    0    0 -0.21244892770E-01  0.77894593041E-01  0.13723428748E-01  0.81899369420E-01  0.51100000000E-03 0. -1.
         11    1    4    4    0    0 -0.29443551035E-02  0.43743790340E-01  0.19750318637E-01  0.48088716218E-01  0.51100000000E-03 0.  1.
</event>
<event>
 8    1  0.1132255E+005  0.1043930E+01  0.7957747E-01            NaN
         13   -1    0    0    0    0  0.00000000000E+00  0.00000000000E+00  0.74505805969E-08  0.10566000000E+00  0.10566000000E+00 0. -1.
     999900   -1    0    0    0    0 -0.00000000000E+00 -0.00000000000E+00 -0.74505805969E-08  0.93827000000E+00  0.93827000000E+00 0.  1.
     999902    2    1    2    0    0 -0.12823577531E-01 -0.58455374527E-02 -0.16051444691E-01  0.10225696787E+01  0.10223465579E+01 0.  0.
     999903    2    3    3    0    0 -0.18424135146E-01 -0.67721428045E-01 -0.11361427807E+00  0.13500080897E+00  0.19783166291E-01 0.  0.
         14    1    1    2    0    0  0.12823577531E-01  0.58455374527E-02  0.16051444691E-01  0.21360321287E-01  0.00000000000E+00 0. -1.
     999901    1    3    3    0    0  0.56005576146E-02  0.61875890592E-01  0.97562833379E-01  0.88756886974E+00  0.88000000000E+00 0. -1.
        -11    1    4    4    0    0 -0.73771092674E-02 -0.55429602528E-01 -0.80906853440E-01  0.98351627501E-01  0.51100000000E-03 0.  1.
         11    1    4    4    0    0 -0.11047025878E-01 -0.12291825516E-01 -0.32707424630E-01  0.36649181467E-01  0.51100000000E-03 0. -1.
</event>
<event>
 8    1  0.1132255E+005  0.1043930E+01  0.7957747E-01            NaN
         13   -1    0    0    0    0  0.00000000000E+00  0.00000000000E+00  0.74505805969E-08  0.10566000000E+00  0.10566000000E+00 0. -1.
     999900   -1    0    0    0    0 -0.00000000000E+00 -0.00000000000E+00 -0.74505805969E-08  0.93827000000E+00  0.93827000000E+00 0. -1.
     999902    2    1    2    0    0 -0.38161720567E-02  0.13448642624E-01 -0.20971713533E-01  0.10187259938E+01  0.10184141636E+01 0.  0.
     999903    2    3    3    0    0  0.88101429665E-01  0.49125461937E-01  0.76137980017E-01  0.12791065186E+00  0.19722320815E-01 0.  0.
         14    1    1    2    0    0  0.38161720567E-02 -0.13448642624E-01  0.20971713533E-01  0.25204006152E-01  0.00000000000E+00 0. -1.
     999901    1    3    3    0    0 -0.91917601721E-01 -0.35676819314E-01 -0.97109693550E-01  0.89081534199E+00  0.88000000000E+00 0. -1.
        -11    1    4    4    0    0  0.71296232740E-01  0.47961981973E-01  0.63643470267E-01  0.10693108503E+00  0.51100000000E-03 0. -1.
         11    1    4    4    0    0  0.16805196925E-01  0.11634799645E-02  0.12494509750E-01  0.20979566826E-01  0.51100000000E-03 0.  1.
</event>
<event>
 8    1  0.1132255E+005  0.1043930E+01  0.7957747E-01            NaN
         13   -1    0    0    0    0  0.00000000000E+00  0.00000000000E+00  0.74505805969E-08  0.10566000000E+00  0.10566000000E+00 0.  1.
     999900   -1    0    0    0    0 -0.00000000000E+00 -0.00000000000E+00 -0.74505805969E-08  0.93827000000E+00  0.93827000000E+00 0.  1.
     999902    2    1    2    0    0  0.11447519266E-01 -0.23685126049E-02  0.22142565808E-01  0.10188910549E+01  0.10185833462E+01 0.  0.
     999903    2    3    3    0    0  0.38046497942E-01 -0.11510644125E+00 -0.39951800172E-01  0.12913094316E+00  0.19535232809E-01 0.  0.
         14    1    1    2    0    0 -0.11447519266E-01  0.23685126049E-02 -0.22142565808E-01  0.25038945063E-01  0.00000000000E+00 0. -1.
     999901    1    3    3    0    0 -0.26598978675E-01  0.11273792865E+00  0.62094365979E-01  0.88976011178E+00  0.88000000000E+00 0. -1.
        -11    1    4    4    0    0  0.15409169942E-01 -0.71934282426E-01 -0.29567891648E-01  0.79287482265E-01  0.51100000000E-03 0. -1.
         11    1    4    4    0    0  0.22637328000E-01 -0.43172158828E-01 -0.10383908523E-01  0.49843460895E-01  0.51100000000E-03 0.  1.
</event>
<event>
 8    1  0.1132255E+005  0.1043930E+01  0.7957747E-01            NaN
         13   -1    0    0    0    0  0.00000000000E+00  0.00000000000E+00  0.74505805969E-08  0.10566000000E+00  0.10566000000E+00 0. -1.
     999900   -1    0    0    0    0 -0.00000000000E+00 -0.00000000000E+00 -0.74505805969E-08  0.93827000000E+00  0.93827000000E+00 0.  1.
     999902    2    1    2    0    0 -0.13972184773E-01 -0.15253031486E-01  0.11257930884E-01  0.10203796725E+01  0.10201078659E+01 0.  0.
     999903    2    3    3    0    0 -0.30943730892E-01 -0.18628094275E-02 -0.12401616410E+00  0.12978076605E+00  0.22406555709E-01 0.  0.
         14    1    1    2    0    0  0.13972184773E-01  0.15253031486E-01 -0.11257930884E-01  0.23550327484E-01  0.00000000000E+00 0.  1.
     999901    1    3    3    0    0  0.16971546119E-01 -0.13390222058E-01  0.13527409498E+00  0.89059890647E+00  0.88000000000E+00 0. -1.
        -11    1    4    4    0    0 -0.20234501343E-01 -0.14585929670E-02 -0.11133698147E+00  0.11317131749E+00  0.51100000000E-03 0.  1.
         11    1    4    4    0    0 -0.10709229549E-01 -0.40421646052E-03 -0.12679182629E-01  0.16609448565E-01  0.51100000000E-03 0. -1.
</event>
<event>
 8    1  0.1132255E+005  0.1043930E+01  0.7957747E-01            NaN
         13   -1    0    0    0    0  0.00000000000E+00  0.00000000000E+00  0.74505805969E-08  0.10566000000E+00  0.10566000000E+00 0.  1.
     999900   -1    0    0    0    0 -0.00000000000E+00 -0.00000000000E+00 -0.74505805969E-08  0.93827000000E+00  0.93827000000E+00 0.  1.
     999902    2    1    2    0    0  0.20807877107E-02  0.17857552270E-01 -0.18607449136E-01  0.10180560940E+01  0.10177272481E+01 0.  0.
     999903    2    3    3    0    0 -0.10934300813E+00 -0.13265109061E-01 -0.64644609285E-01  0.12929105052E+00  0.20134390719E-01 0.  0.
         14    1    1    2    0    0 -0.20807877107E-02 -0.17857552270E-01  0.18607449136E-01  0.25873906043E-01  0.00000000000E+00 0.  1.
     999901    1    3    3    0    0  0.11142379584E+00  0.31122661331E-01  0.46037160149E-01  0.88876504344E+00  0.88000000000E+00 0. -1.
        -11    1    4    4    0    0 -0.22188539556E-01 -0.54326396958E-02 -0.50002683391E-02  0.23390354126E-01  0.51100000000E-03 0.  1.
         11    1    4    4    0    0 -0.87154468570E-01 -0.78324693656E-02 -0.59644340946E-01  0.10590069639E+00  0.51100000000E-03 0. -1.
</event>
<event>
 8    1  0.1132255E+005  0.1043930E+01  0.7957747E-01            NaN
         13   -1    0    0    0    0  0.00000000000E+00  0.00000000000E+00  0.74505805969E-08  0.10566000000E+00  0.10566000000E+00 0. -1.
     999900   -1    0    0    0    0 -0.00000000000E+00 -0.00000000000E+00 -0.74505805969E-08  0.93827000000E+00  0.93827000000E+00 0. -1.
     999902    2    1    2    0    0 -0.11708893293E-01  0.20951929359E-01 -0.38380070645E-02  0.10196233790E+01  0.10193336172E+01 0.  0.
     999903    2    3    3    0    0  0.73946735016E-01  0.81753863671E-01  0.66909431031E-01  0.13055703622E+00  0.20407202173E-01 0.  0.
         14    1    1    2    0    0  0.11708893293E-01 -0.20951929359E-01  0.38380070645E-02  0.24306620996E-01  0.00000000000E+00 0.  1.
     999901    1    3    3    0    0 -0.85655628310E-01 -0.60801934311E-01 -0.70747438096E-01  0.88906634279E+00  0.88000000000E+00 0.  1.
        -11    1    4    4    0    0  0.43133730728E-01  0.53979589496E-01  0.31187075929E-01  0.75810353083E-01  0.51100000000E-03 0. -1.
         11    1    4    4    0    0  0.30813004288E-01  0.27774274175E-01  0.35722355102E-01  0.54746683135E-01  0.51100000000E-03 0.  1.
</event>
<event>
 8    1  0.1132255E+005  0.1043930E+01  0.7957747E-01            NaN
         13   -1    0    0    0    0  0.00000000000E+00  0.00000000000E+00  0.74505805969E-08  0.10566000000E+00  0.10566000000E+00 0. -1.
     999900   -1    0    0    0    0 -0.00000000000E+00 -0.00000000000E+00 -0.74505805969E-08  0.93827000000E+00  0.93827000000E+00 0.  1.
     999902    2    1    2    0    0  0.12272860148E-01 -0.20793247326E-01  0.40170372863E-02  0.10194530962E+01  0.10191592106E+01 0.  0.
     999903    2    3    3    0    0 -0.88365795477E-01 -0.91380760485E-01 -0.21576453661E-01  0.13054041051E+00  0.20403387623E-01 0.  0.
         14    1    1    2    0    0 -0.12272860148E-01  0.20793247326E-01 -0.40170372863E-02  0.24476903790E-01  0.00000000000E+00 0.  1.
     999901    1    3    3    0    0  0.10063865562E+00  0.70587513159E-01  0.25593490948E-01  0.88891268570E+00  0.88000000000E+00 0. -1.
        -11    1    4    4    0    0 -0.40369184839E-01 -0.31422548809E-01 -0.15686217478E-01  0.53510430741E-01  0.51100000000E-03 0. -1.
         11    1    4    4    0    0 -0.47996610637E-01 -0.59958211675E-01 -0.58902361833E-02  0.77029979769E-01  0.51100000000E-03 0.  1.
</event>
<event>
 8    1  0.1132255E+005  0.1043930E+01  0.7957747E-01            NaN
         13   -1    0    0    0    0  0.00000000000E+00  0.00000000000E+00  0.74505805969E-08  0.10566000000E+00  0.10566000000E+00 0. -1.
     999900   -1    0    0    0    0 -0.00000000000E+00 -0.00000000000E+00 -0.74505805969E-08  0.93827000000E+00  0.93827000000E+00 0.  1.
     999902    2    1    2    0    0  0.30187974541E-02 -0.17699429741E-01  0.96273887556E-02  0.10235567439E+01  0.10233539653E+01 0.  0.
     999903    2    3    3    0    0 -0.58007125458E-01 -0.63577233705E-02  0.11957837996E+00  0.13454492278E+00  0.19952444489E-01 0.  0.
         14    1    1    2    0    0 -0.30187974541E-02  0.17699429741E-01 -0.96273887556E-02  0.20373256134E-01  0.00000000000E+00 0.  1.
     999901    1    3    3    0    0  0.61025922912E-01 -0.11341706371E-01 -0.10995099120E+00  0.88901182109E+00  0.88000000000E+00 0.  1.
        -11    1    4    4    0    0 -0.29619125316E-02  0.36216054125E-02  0.17717300656E-01  0.18331743375E-01  0.51100000000E-03 0.  1.
         11    1    4    4    0    0 -0.55045212926E-01 -0.99793287830E-02  0.10186107930E+00  0.11621317940E+00  0.51100000000E-03 0. -1.
</event>
<event>
 8    1  0.1132255E+005  0.1043930E+01  0.7957747E-01            NaN
         13   -1    0    0    0    0  0.00000000000E+00  0.00000000000E+00  0.74505805969E-08  0.10566000000E+00  0.10566000000E+00 0. -1.
     999900   -1    0    0    0    0 -0.00000000000E+00 -0.00000000000E+00 -0.74505805969E-08  0.93827000000E+00  0.93827000000E+00 0.  1.
     999902    2    1    2    0    0  0.10863064460E-01  0.65646743161E-02 -0.19906541325E-01  0.10203212833E+01  0.10200481114E+01 0.  0.
     999903    2    3    3    0    0 -0.37339627174E-01 -0.23952336774E-01 -0.12312528548E+00  0.13245367118E+00  0.20400413941E-01 0.  0.
         14    1    1    2    0    0 -0.10863064460E-01 -0.65646743161E-02  0.19906541325E-01  0.23608716735E-01  0.00000000000E+00 0. -1.
     999901    1    3    3    0    0  0.48202691634E-01  0.30517011090E-01  0.10321874416E+00  0.88786761209E+00  0.88000000000E+00 0. -1.
        -11    1    4    4    0    0 -0.51247079633E-02 -0.24469220411E-02 -0.43863008158E-01  0.44232054721E-01  0.51100000000E-03 0. -1.
         11    1    4    4    0    0 -0.32214919211E-01 -0.21505414733E-01 -0.79262277325E-01  0.88221616457E-01  0.51100000000E-03 0.  1.
</event>
<event>
 8    1  0.1132255E+005  0.1043930E+01  0.7957747E-01            NaN
         13   -1    0    0    0    0  0.00000000000E+00  0.00000000000E+00  0.74505805969E-08  0.10566000000E+00  0.10566000000E+00 0. -1.
     999900   -1    0    0    0    0 -0.00000000000E+00 -0.00000000000E+00 -0.74505805969E-08  0.93827000000E+00  0.93827000000E+00 0. -1.
     999902    2    1    2    0    0  0.70913627625E-02 -0.46654555104E-02  0.22746349418E-01  0.10196514022E+01  0.10193623162E+01 0.  0.
     999903    2    3    3    0    0  0.69075643517E-01 -0.62643671030E-01 -0.86637714961E-01  0.12882684139E+00  0.19864223174E-01 0.  0.
         14    1    1    2    0    0 -0.70913627625E-02  0.46654555104E-02 -0.22746349418E-01  0.24278597834E-01  0.00000000000E+00 0.  1.
     999901    1    3    3    0    0 -0.61984280754E-01  0.57978215520E-01  0.10938406438E+00  0.89082456077E+00  0.88000000000E+00 0.  1.
        -11    1    4    4    0    0  0.80410316422E-02 -0.16552040845E-01 -0.12103924799E-01  0.22031667267E-01  0.51100000000E-03 0. -1.
         11    1    4    4    0    0  0.61034611875E-01 -0.46091630185E-01 -0.74533790162E-01  0.10679517413E+00  0.51100000000E-03 0.  1.
</event>
<event>
 8    1  0.1132255E+005  0.1043930E+01  0.7957747E-01            NaN
         13   -1    0    0    0    0  0.00000000000E+00  0.00000000000E+00  0.74505805969E-08  0.10566000000E+00  0.10566000000E+00 0.  1.
     999900   -1    0    0    0    0 -0.00000000000E+00 -0.00000000000E+00 -0.74505805969E-08  0.93827000000E+00  0.93827000000E+00 0.  1.
     999902    2    1    2    0    0 -0.34103826077E-02  0.11472887682E-01 -0.21850483936E-01  0.10190161181E+01  0.10187115134E+01 0.  0.
     999903    2    3    3    0    0  0.14620256634E-01 -0.77012468111E-01 -0.10247306039E+00  0.13072857349E+00  0.21084583767E-01 0.  0.
         14    1    1    2    0    0  0.34103826077E-02 -0.11472887682E-01  0.21850483936E-01  0.24913881864E-01  0.00000000000E+00 0. -1.
     999901    1    3    3    0    0 -0.18030639242E-01  0.88485355793E-01  0.80622576452E-01  0.88828754465E+00  0.88000000000E+00 0. -1.
        -11    1    4    4    0    0 -0.12656701797E-02 -0.47976321558E-01 -0.57836752811E-01  0.75157703850E-01  0.51100000000E-03 0.  1.
         11    1    4    4    0    0  0.15885926814E-01 -0.29036146553E-01 -0.44636307577E-01  0.55570869639E-01  0.51100000000E-03 0. -1.
</event>
<event>
 8    1  0.1132255E+005  0.1043930E+01  0.7957747E-01            NaN
         13   -1    0    0    0    0  0.00000000000E+00  0.00000000000E+00  0.74505805969E-08  0.10566000000E+00  0.10566000000E+00 0.  1.
     999900   -1    0    0    0    0 -0.00000000000E+00 -0.00000000000E+00 -0.74505805969E-08  0.93827000000E+00  0.93827000000E+00 0. -1.
     999902    2    1    2    0    0 -0.13386483446E-01  0.19287146476E-01 -0.41791758046E-02  0.10200834600E+01  0.10198046911E+01 0.  0.
     999903    2    3    3    0    0 -0.58128735657E-02 -0.12125196087E+00 -0.36642158690E-01  0.12830857503E+00  0.19611606745E-01 0.  0.
         14    1    1    2    0    0  0.13386483446E-01 -0.19287146476E-01  0.41791758046E-02  0.23846539972E-01  0.00000000000E+00 0. -1.
     999901    1    3    3    0    0 -0.75736098801E-02  0.14053910734E+00  0.32462982886E-01  0.89177488500E+00  0.88000000000E+00 0.  1.
        -11    1    4    4    0    0 -0.10877068476E-01 -0.45362330731E-01 -0.17950998955E-01  0.49985509425E-01  0.51100000000E-03 0.  1.
         11    1    4    4    0    0  0.50641949103E-02 -0.75889630135E-01 -0.18691159736E-01  0.78323065603E-01  0.51100000000E-03 0. -1.
</event>
<event>
 8    1  0.1132255E+005  0.1043930E+01  0.7957747E-01            NaN
         13   -1    0    0    0    0  0.00000000000E+00  0.00000000000E+00  0.74505805969E-08  0.10566000000E+00  0.10566000000E+00 0.  1.
     999900   -1    0    0    0    0 -0.00000000000E+00 -0.00000000000E+00 -0.74505805969E-08  0.93827000000E+00  0.93827000000E+00 0.  1.
     999902    2    1    2    0    0  0.43996201910E-02  0.15829217971E-01  0.11853839631E-01  0.10236708215E+01  0.10234703300E+01 0.  0.
     999903    2    3    3    0    0 -0.74839544885E-01  0.50014491445E-01  0.98986810352E-01  0.13516666687E+00  0.19215420299E-01 0.  0.
         14    1    1    2    0    0 -0.43996201910E-02 -0.15829217971E-01 -0.11853839631E-01  0.20259178497E-01  0.00000000000E+00 0. -1.
     999901    1    3    3    0    0  0.79239165076E-01 -0.34185273474E-01 -0.87132970721E-01  0.88850415463E+00  0.88000000000E+00 0.  1.
        -11    1    4    4    0    0 -0.33805442999E-01  0.25281990170E-01  0.60166549077E-01  0.73500079946E-01  0.51100000000E-03 0.  1.
         11    1    4    4    0    0 -0.41034101886E-01  0.24732501275E-01  0.38820261275E-01  0.61666586928E-01  0.51100000000E-03 0. -1.
</event>
<event>
 8    1  0.1132255E+005  0.1043930E+01  0.7957747E-01            NaN
         13   -1    0    0    0    0  0.00000000000E+00  0.00000000000E+00  0.74505805969E-08  0.10566000000E+00  0.10566000000E+00 0. -1.
     999900   -1    0    0    0    0 -0.00000000000E+00 -0.00000000000E+00 -0.74505805969E-08  0.93827000000E+00  0.93827000000E+00 0.  1.
     999902    2    1    2    0    0  0.10101818864E-01 -0.13073385389E-01  0.17570622999E-01  0.10198118130E+01  0.10195265799E+01 0.  0.
     999903    2    3    3    0    0  0.20849926363E-01  0.86868668551E-01  0.93587316950E-01  0.13083348162E+00  0.19440396463E-01 0.  0.
         14    1    1    2    0    0 -0.10101818864E-01  0.13073385389E-01 -0.17570622999E-01  0.24118186964E-01  0.00000000000E+00 0.  1.
     999901    1    3    3    0    0 -0.10748107499E-01 -0.99942053940E-01 -0.76016693951E-01  0.88897833141E+00  0.88000000000E+00 0. -1.
        -11    1    4    4    0    0  0.60796041165E-02  0.26399413872E-01  0.16396610455E-01  0.31670184629E-01  0.51100000000E-03 0.  1.
         11    1    4    4    0    0  0.14770322246E-01  0.60469254679E-01  0.77190706495E-01  0.99163296995E-01  0.51100000000E-03 0. -1.
</event>
<event>
 8    1  0.1132255E+005  0.1043930E+01  0.7957747E-01            NaN
         13   -1    0    0    0    0  0.00000000000E+00  0.00000000000E+00  0.74505805969E-08  0.10566000000E+00  0.10566000000E+00 0. -1.
     999900   -1    0    0    0    0 -0.00000000000E+00 -0.00000000000E+00 -0.74505805969E-08  0.93827000000E+00  0.93827000000E+00 0. -1.
     999902    2    1    2    0    0 -0.15760561580E-01 -0.11301906319E-01 -0.18053855788E-01  0.10174333946E+01  0.10170883159E+01 0.  0.
     999903    2    3    3    0    0 -0.38853298627E-01 -0.61671625317E-01 -0.10714957905E+00  0.13120067631E+00  0.20484554965E-01 0.  0.
         14    1    1    2    0    0  0.15760561580E-01  0.11301906319E-01  0.18053855788E-01  0.26496605378E-01  0.00000000000E+00 0. -1.
     999901    1    3    3    0    0  0.23092737047E-01  0.50369718998E-01  0.89095723259E-01  0.88623271831E+00  0.88000000000E+00 0.  1.
        -11    1    4    4    0    0  0.22485674546E-02 -0.39509181737E-02 -0.41285269660E-02  0.61621153773E-02  0.51100000000E-03 0. -1.
         11    1    4    4    0    0 -0.41101866081E-01 -0.57720707143E-01 -0.10302105208E+00  0.12503856094E+00  0.51100000000E-03 0.  1.
</event>
<event>
 8    1  0.1132255E+005  0.1043930E+01  0.7957747E-01            NaN
         13   -1    0    0    0    0  0.00000000000E+00  0.00000000000E+00  0.74505805969E-08  0.10566000000E+00  0.10566000000E+00 0. -1.
     999900   -1    0    0    0    0 -0.00000000000E+00 -0.00000000000E+00 -0.74505805969E-08  0.93827000000E+00  0.93827000000E+00 0. -1.
     999902    2    1    2    0    0  0.12813169542E-01 -0.99804207988E-02  0.17451493734E-01  0.10200901018E+01  0.10198114899E+01 0.  0.
     999903    2    3    3    0    0  0.76318774619E-01 -0.55880380476E-01 -0.87369576878E-01  0.13041194368E+00  0.20655745191E-01 0.  0.
         14    1    1    2    0    0 -0.12813169542E-01  0.99804207988E-02 -0.17451493734E-01  0.23839898209E-01  0.00000000000E+00 0.  1.
     999901    1    3    3    0    0 -0.63505605076E-01  0.45899959678E-01  0.10482107061E+00  0.88967815811E+00  0.88000000000E+00 0.  1.
        -11    1    4    4    0    0  0.35685968725E-01 -0.22949504788E-01 -0.52708558352E-01  0.67665510997E-01  0.51100000000E-03 0. -1.
         11    1    4    4    0    0  0.40632805894E-01 -0.32930875688E-01 -0.34661018525E-01  0.62746432684E-01  0.51100000000E-03 0.  1.
</event>
<event>
 8    1  0.1132255E+005  0.1043930E+01  0.7957747E-01            NaN
         13   -1    0    0    0    0  0.00000000000E+00  0.00000000000E+00  0.74505805969E-08  0.10566000000E+00  0.10566000000E+00 0.  1.
     999900   -1    0    0    0    0 -0.00000000000E+00 -0.00000000000E+00 -0.74505805969E-08  0.93827000000E+00  0.93827000000E+00 0.  1.
     999902    2    1    2    0    0 -0.22757441887E-01  0.54982529327E-02 -0.35498367866E-02  0.10202501924E+01  0.10199753535E+01 0.  0.
     999903    2    3    3    0    0 -0.10572689503E+00  0.76052528586E-01  0.20214348132E-01  0.13321773953E+00  0.19395432893E-01 0.  0.
         14    1    1    2    0    0  0.22757441887E-01 -0.54982529327E-02  0.35498367866E-02  0.23679807596E-01  0.00000000000E+00 0.  1.
     999901    1    3    3    0    0  0.82969453146E-01 -0.70554275653E-01 -0.23764184919E-01  0.88703245287E+00  0.88000000000E+00 0.  1.
        -11    1    4    4    0    0 -0.49224691986E-01  0.24828395422E-01  0.12726321640E-01  0.56583919128E-01  0.51100000000E-03 0.  1.
         11    1    4    4    0    0 -0.56502203048E-01  0.51224133163E-01  0.74880264921E-02  0.76633820402E-01  0.51100000000E-03 0. -1.
</event>
<event>
 8    1  0.1132255E+005  0.1043930E+01  0.7957747E-01            NaN
         13   -1    0    0    0    0  0.00000000000E+00  0.00000000000E+00  0.74505805969E-08  0.10566000000E+00  0.10566000000E+00 0. -1.
     999900   -1    0    0    0    0 -0.00000000000E+00 -0.00000000000E+00 -0.74505805969E-08  0.93827000000E+00  0.93827000000E+00 0. -1.
     999902    2    1    2    0    0  0.33741820213E-02 -0.18764212270E-01 -0.14146942402E-01  0.10201893862E+01  0.10199131173E+01 0.  0.
     999903    2    3    3    0    0 -0.17358771158E-01 -0.97812091550E-01  0.83005312816E-01  0.13107916618E+00  0.20575073791E-01 0.  0.
         14    1    1    2    0    0 -0.33741820213E-02  0.18764212270E-01  0.14146942402E-01  0.23740613846E-01  0.00000000000E+00 0. -1.
     999901    1    3    3    0    0  0.20732953179E-01  0.79047879280E-01 -0.97152255219E-01  0.88911021997E+00  0.88000000000E+00 0. -1.
        -11    1    4    4    0    0  0.24610874123E-02 -0.43622364491E-01  0.37838897813E-01  0.57801478733E-01  0.51100000000E-03 0.  1.
         11    1    4    4    0    0 -0.19819858570E-01 -0.54189727059E-01  0.45166415003E-01  0.73277687448E-01  0.51100000000E-03 0. -1.
</event>
<event>
 8    1  0.1132255E+005  0.1043930E+01  0.7957747E-01            NaN
         13   -1    0    0    0    0  0.00000000000E+00  0.00000000000E+00  0.74505805969E-08  0.10566000000E+00  0.10566000000E+00 0.  1.
     999900   -1    0    0    0    0 -0.00000000000E+00 -0.00000000000E+00 -0.74505805969E-08  0.93827000000E+00  0.93827000000E+00 0. -1.
     999902    2    1    2    0    0 -0.42072155423E-02 -0.98099702426E-02 -0.21758455328E-01  0.10196943536E+01  0.10194063018E+01 0.  0.
     999903    2    3    3    0    0 -0.12234208279E+00 -0.33472655513E-01 -0.27876376124E-01  0.13146397892E+00  0.20437258087E-01 0.  0.
         14    1    1    2    0    0  0.42072155423E-02  0.98099702426E-02  0.21758455328E-01  0.24235646413E-01  0.00000000000E+00 0.  1.
     999901    1    3    3    0    0  0.11813486725E+00  0.23662685270E-01  0.61179207956E-02  0.88823037467E+00  0.88000000000E+00 0. -1.
        -11    1    4    4    0    0 -0.51857991698E-01 -0.50747356245E-02 -0.64252890964E-02  0.52502854261E-01  0.51100000000E-03 0. -1.
         11    1    4    4    0    0 -0.70484091092E-01 -0.28397919888E-01 -0.21451087028E-01  0.78961124655E-01  0.51100000000E-03 0.  1.
</event>
<event>
 8    1  0.1132255E+005  0.1043930E+01  0.7957747E-01            NaN
         13   -1    0    0    0    0  0.00000000000E+00  0.00000000000E+00  0.74505805969E-08  0.10566000000E+00  0.10566000000E+00 0.  1.
     999900   -1    0    0    0    0 -0.00000000000E+00 -0.00000000000E+00 -0.74505805969E-08  0.93827000000E+00  0.93827000000E+00 0. -1.
     999902    2    1    2    0    0  0.86056277895E-02  0.11519786558E-01  0.19807479327E-01  0.10194535103E+01  0.10191596347E+01 0.  0.
     999903    2    3    3    0    0  0.94849928168E-02  0.12753812892E+00  0.25029730695E-01  0.13182278697E+00  0.19870086237E-01 0.  0.
         14    1    1    2    0    0 -0.86056277895E-02 -0.11519786558E-01 -0.19807479327E-01  0.24476489726E-01  0.00000000000E+00 0. -1.
     999901    1    3    3    0    0 -0.87936502729E-03 -0.11601834237E+00 -0.52222513683E-02  0.88763072331E+00  0.88000000000E+00 0.  1.
        -11    1    4    4    0    0 -0.23281943948E-02  0.85661074024E-01  0.12987058089E-01  0.86672745952E-01  0.51100000000E-03 0.  1.
         11    1    4    4    0    0  0.11813187212E-01  0.41877054900E-01  0.12042672606E-01  0.45150041015E-01  0.51100000000E-03 0. -1.
</event>
<event>
 8    1  0.1132255E+005  0.1043930E+01  0.7957747E-01            NaN
         13   -1    0    0    0    0  0.00000000000E+00  0.00000000000E+00  0.74505805969E-08  0.10566000000E+00  0.10566000000E+00 0.  1.
     999900   -1    0    0    0    0 -0.00000000000E+00 -0.00000000000E+00 -0.74505805969E-08  0.93827000000E+00  0.93827000000E+00 0. -1.
     999902    2    1    2    0    0  0.14882699725E-01  0.10518596483E-02  0.19172986633E-01  0.10196358736E+01  0.10193464133E+01 0.  0.
     999903    2    3    3    0    0  0.77207457676E-01 -0.98835556213E-01 -0.29688363832E-01  0.13045124551E+00  0.20166056050E-01 0.  0.
         14    1    1    2    0    0 -0.14882699725E-01 -0.10518596483E-02 -0.19172986633E-01  0.24294126374E-01  0.00000000000E+00 0. -1.
     999901    1    3    3    0    0 -0.62324757951E-01  0.99887415861E-01  0.48861350465E-01  0.88918462811E+00  0.88000000000E+00 0.  1.
        -11    1    4    4    0    0  0.34476368161E-01 -0.59911268405E-01 -0.18733003509E-01  0.71618200096E-01  0.51100000000E-03 0.  1.
         11    1    4    4    0    0  0.42731089515E-01 -0.38924287808E-01 -0.10955360323E-01  0.58833045419E-01  0.51100000000E-03 0. -1.
</event>
<event>
 8    1  0.1132255E+005  0.1043930E+01  0.7957747E-01            NaN
         13   -1    0    0    0    0  0.00000000000E+00  0.00000000000E+00  0.74505805969E-08  0.10566000000E+00  0.10566000000E+00 0.  1.
     999900   -1    0    0    0    0 -0.00000000000E+00 -0.00000000000E+00 -0.74505805969E-08  0.93827000000E+00  0.93827000000E+00 0.  1.
     999902    2    1    2    0    0  0.11827227927E-01 -0.19667225151E-01  0.57910568067E-02  0.10202610456E+01  0.10199864615E+01 0.  0.
     999903    2    3    3    0    0  0.74353135656E-01 -0.10615213107E+00 -0.19324315149E-01  0.13345784867E+00  0.25316091804E-01 0.  0.
         14    1    1    2    0    0 -0.11827227927E-01  0.19667225151E-01 -0.57910568067E-02  0.23668954444E-01  0.00000000000E+00 0. -1.
     999901    1    3    3    0    0 -0.62525907729E-01  0.86484905920E-01  0.25115371956E-01  0.88680319688E+00  0.88000000000E+00 0.  1.
        -11    1    4    4    0    0  0.66703435725E-01 -0.84220324655E-01 -0.23174303167E-01  0.10990778349E+00  0.51100000000E-03 0.  1.
         11    1    4    4    0    0  0.76496999313E-02 -0.21931806415E-01  0.38499880172E-02  0.23550065189E-01  0.51100000000E-03 0. -1.
</event>
<event>
 8    1  0.1132255E+005  0.1043930E+01  0.7957747E-01            NaN
         13   -1    0    0    0    0  0.00000000000E+00  0.00000000000E+00  0.74505805969E-08  0.10566000000E+00  0.10566000000E+00 0.  1.
     999900   -1    0    0    0    0 -0.00000000000E+00 -0.00000000000E+00 -0.74505805969E-08  0.93827000000E+00  0.93827000000E+00 0.  1.
     999902    2    1    2    0    0  0.12088127045E-01  0.60177626130E-02 -0.21251351487E-01  0.10187515127E+01  0.10184403215E+01 0.  0.
     999903    2    3    3    0    0  0.91557810928E-01 -0.11700231177E-01 -0.92430857042E-01  0.13213103022E+00  0.19885111547E-01 0.  0.
         14    1    1    2    0    0 -0.12088127045E-01 -0.60177626130E-02  0.21251351487E-01  0.25178487292E-01  0.00000000000E+00 0.  1.
     999901    1    3    3    0    0 -0.79469683883E-01  0.17717993790E-01  0.71179505555E-01  0.88662048249E+00  0.88000000000E+00 0. -1.
        -11    1    4    4    0    0  0.43426967222E-01 -0.12300432957E-01 -0.55015282781E-01  0.71162803441E-01  0.51100000000E-03 0.  1.
         11    1    4    4    0    0  0.48130843706E-01  0.60020177962E-03 -0.37415574260E-01  0.60968226776E-01  0.51100000000E-03 0. -1.
</event>
<event>
 8    1  0.1132255E+005  0.1043930E+01  0.7957747E-01            NaN
         13   -1    0    0    0    0  0.00000000000E+00  0.00000000000E+00  0.74505805969E-08  0.10566000000E+00  0.10566000000E+00 0. -1.
     999900   -1    0    0    0    0 -0.00000000000E+00 -0.00000000000E+00 -0.74505805969E-08  0.93827000000E+00  0.93827000000E+00 0. -1.
     999902    2    1    2    0    0 -0.13738866192E-01  0.12078231873E-01 -0.13007216216E-01  0.10214838911E+01  0.10212372457E+01 0.  0.
     999903    2    3    3    0    0 -0.95887741624E-01  0.87111303851E-01  0.25475475578E-01  0.13364419998E+00  0.20710723796E-01 0.  0.
         14    1    1    2    0    0  0.13738866192E-01 -0.12078231873E-01  0.13007216216E-01  0.22446108863E-01  0.00000000000E+00 0. -1.
     999901    1    3    3    0    0  0.82148875431E-01 -0.75033071978E-01 -0.38482691794E-01  0.88783969116E+00  0.88000000000E+00 0. -1.
        -11    1    4    4    0    0 -0.51028313032E-01  0.32573569944E-01  0.10238285645E-01  0.61400405566E-01  0.51100000000E-03 0. -1.
         11    1    4    4    0    0 -0.44859428592E-01  0.54537733907E-01  0.15237189933E-01  0.72243794414E-01  0.51100000000E-03 0.  1.
</event>
<event>
 8    1  0.1132255E+005  0.1043930E+01  0.7957747E-01            NaN
         13   -1    0    0    0    0  0.00000000000E+00  0.00000000000E+00  0.74505805969E-08  0.10566000000E+00  0.10566000000E+00 0. -1.
     999900   -1    0    0    0    0 -0.00000000000E+00 -0.00000000000E+00 -0.74505805969E-08  0.93827000000E+00  0.93827000000E+00 0.  1.
     999902    2    1    2    0    0 -0.45172153856E-02 -0.18890986780E-01  0.19587622134E-02  0.10244079262E+01  0.10242218939E+01 0.  0.
     999903    2    3    3    0    0  0.60333990841E-01  0.10717756227E+00  0.44000225740E-01  0.13207029801E+00  0.19476227758E-01 0.  0.
         14    1    1    2    0    0  0.45172153856E-02  0.18890986780E-01 -0.19587622134E-02  0.19522073808E-01  0.00000000000E+00 0.  1.
     999901    1    3    3    0    0 -0.64851206227E-01 -0.12606854905E+00 -0.42041463527E-01  0.89233762818E+00  0.88000000000E+00 0.  1.
        -11    1    4    4    0    0  0.12957311651E-01  0.17522494552E-01  0.15465193064E-01  0.26727571122E-01  0.51100000000E-03 0.  1.
         11    1    4    4    0    0  0.47376679190E-01  0.89655067715E-01  0.28535032676E-01  0.10534272689E+00  0.51100000000E-03 0. -1.
</event>
<event>
 8    1  0.1132255E+005  0.1043930E+01  0.7957747E-01            NaN
         13   -1    0    0    0    0  0.00000000000E+00  0.00000000000E+00  0.74505805969E-08  0.10566000000E+00  0.10566000000E+00 0. -1.
     999900   -1    0    0    0    0 -0.00000000000E+00 -0.00000000000E+00 -0.74505805969E-08  0.93827000000E+00  0.93827000000E+00 0.  1.
     999902    2    1    2    0    0  0.55182694373E-02  0.60750332845E-02  0.27887178356E-01  0.10148602211E+01  0.10144437966E+01 0.  0.
     999903    2    3    3    0    0  0.16498916184E-01 -0.79008077947E-01 -0.90422579005E-01  0.12280814355E+00  0.19776418100E-01 0.  0.
         14    1    1    2    0    0 -0.55182694373E-02 -0.60750332845E-02 -0.27887178356E-01  0.29069778871E-01  0.00000000000E+00 0.  1.
     999901    1    3    3    0    0 -0.10980646747E-01  0.85083111231E-01  0.11830975736E+00  0.89205207758E+00  0.88000000000E+00 0. -1.
        -11    1    4    4    0    0  0.19493833672E-01 -0.46140134838E-01 -0.54405375714E-01  0.73953550433E-01  0.51100000000E-03 0. -1.
         11    1    4    4    0    0 -0.29949174880E-02 -0.32867943109E-01 -0.36017203291E-01  0.48854593120E-01  0.51100000000E-03 0.  1.
</event>
<event>
 8    1  0.1132255E+005  0.1043930E+01  0.7957747E-01            NaN
         13   -1    0    0    0    0  0.00000000000E+00  0.00000000000E+00  0.74505805969E-08  0.10566000000E+00  0.10566000000E+00 0. -1.
     999900   -1    0    0    0    0 -0.00000000000E+00 -0.00000000000E+00 -0.74505805969E-08  0.93827000000E+00  0.93827000000E+00 0.  1.
     999902    2    1    2    0    0  0.19821465168E-01 -0.12170454305E-01  0.59458615841E-02  0.10199224239E+01  0.10196398320E+01 0.  0.
     999903    2    3    3    0    0  0.40877711394E-01 -0.12080036313E+00  0.26854482449E-01  0.13274657155E+00  0.25234381507E-01 0.  0.
         14    1    1    2    0    0 -0.19821465168E-01  0.12170454305E-01 -0.59458615841E-02  0.24007576083E-01  0.00000000000E+00 0.  1.
     999901    1    3    3    0    0 -0.21056246225E-01  0.10862990882E+00 -0.20908620865E-01  0.88717585237E+00  0.88000000000E+00 0. -1.
        -11    1    4    4    0    0  0.95509949170E-02 -0.67503756393E-01  0.14230727230E-01  0.69647349910E-01  0.51100000000E-03 0.  1.
         11    1    4    4    0    0  0.31326716477E-01 -0.53296606735E-01  0.12623755219E-01  0.63099221640E-01  0.51100000000E-03 0. -1.
</event>
<event>
 7    1  0.1132255E+005  0.1043930E+01  0.7957747E-01            NaN
         13   -1    0    0    0    0  0.00000000000E+00  0.00000000000E+00  0.74505805969E-08  0.10566000000E+00  0.10566000000E+00 0. -1.
     999900   -1    0    0    0    0 -0.00000000000E+00 -0.00000000000E+00 -0.74505805969E-08  0.93827000000E+00  0.93827000000E+00 0.  1.
     999903    2    1    2    0    0  0.49190180500E-01  0.37705349097E-01  0.61446219201E-01  0.89584686892E-01  0.20209182650E-01 0.  0.
         14    1    1    2    0    0  0.25041437945E-01 -0.64124006942E-01 -0.36719245918E-02  0.68937978726E-01  0.00000000000E+00 0.  1.
     999901    1    1    2    0    0 -0.74231618444E-01  0.26418657845E-01 -0.57774294609E-01  0.88540733438E+00  0.88000000000E+00 0.  1.
        -11    1    3    3    0    0  0.27197199067E-01  0.11030091971E-01  0.19570616041E-01  0.35279182236E-01  0.51100000000E-03 0.  1.
         11    1    3    3    0    0  0.21992981433E-01  0.26675257126E-01  0.41875603159E-01  0.54305504656E-01  0.51100000000E-03 0. -1.
</event>
<event>
 8    1  0.1132255E+005  0.1043930E+01  0.7957747E-01            NaN
         13   -1    0    0    0    0  0.00000000000E+00  0.00000000000E+00  0.74505805969E-08  0.10566000000E+00  0.10566000000E+00 0. -1.
     999900   -1    0    0    0    0 -0.00000000000E+00 -0.00000000000E+00 -0.74505805969E-08  0.93827000000E+00  0.93827000000E+00 0.  1.
     999902    2    1    2    0    0  0.24482212185E-01  0.10904348470E-01 -0.55924976165E-02  0.10165519146E+01  0.10161831703E+01 0.  0.
     999903    2    3    3    0    0 -0.38992700433E-01 -0.52698319192E-01 -0.10612231364E+00  0.12628195120E+00  0.19688631604E-01 0.  0.
         14    1    1    2    0    0 -0.24482212185E-01 -0.10904348470E-01  0.55924976165E-02  0.27378085372E-01  0.00000000000E+00 0. -1.
     999901    1    3    3    0    0  0.63474912619E-01  0.63602667662E-01  0.10052981603E+00  0.89026996342E+00  0.88000000000E+00 0. -1.
        -11    1    4    4    0    0 -0.16794621627E-01 -0.18664079850E-01 -0.58598713174E-01  0.63753254810E-01  0.51100000000E-03 0.  1.
         11    1    4    4    0    0 -0.22198078807E-01 -0.34034239342E-01 -0.47523600468E-01  0.62528696394E-01  0.51100000000E-03 0. -1.
</event>
<event>
 8    1  0.1132255E+005  0.1043930E+01  0.7957747E-01            NaN
         13   -1    0    0    0    0  0.00000000000E+00  0.00000000000E+00  0.74505805969E-08  0.10566000000E+00  0.10566000000E+00 0. -1.
     999900   -1    0    0    0    0 -0.00000000000E+00 -0.00000000000E+00 -0.74505805969E-08  0.93827000000E+00  0.93827000000E+00 0. -1.
     999902    2    1    2    0    0  0.11619662828E-01  0.29151408028E-02  0.20747667256E-01  0.10199721139E+01  0.10196907045E+01 0.  0.
     999903    2    3    3    0    0  0.86671321582E-01 -0.54772067494E-01 -0.76778882338E-01  0.12953851538E+00  0.19321822687E-01 0.  0.
         14    1    1    2    0    0 -0.11619662828E-01 -0.29151408028E-02 -0.20747667256E-01  0.23957886107E-01  0.00000000000E+00 0.  1.
     999901    1    3    3    0    0 -0.75051658754E-01  0.57687208297E-01  0.97526549593E-01  0.89043359851E+00  0.88000000000E+00 0. -1.
        -11    1    4    4    0    0  0.78927121658E-01 -0.45629230490E-01 -0.60894952768E-01  0.10963564020E+00  0.51100000000E-03 0.  1.
         11    1    4    4    0    0  0.77441999237E-02 -0.91428370037E-02 -0.15883929570E-01  0.19902875182E-01  0.51100000000E-03 0. -1.
</event>
<event>
 8    1  0.1132255E+005  0.1043930E+01  0.7957747E-01            NaN
         13   -1    0    0    0    0  0.00000000000E+00  0.00000000000E+00  0.74505805969E-08  0.10566000000E+00  0.10566000000E+00 0. -1.
     999900   -1    0    0    0    0 -0.00000000000E+00 -0.00000000000E+00 -0.74505805969E-08  0.93827000000E+00  0.93827000000E+00 0. -1.
     999902    2    1    2    0    0  0.13531268639E-01  0.17017504628E-01  0.86735880181E-02  0.10205222700E+01  0.10202537830E+01 0.  0.
     999903    2    3    3    0    0 -0.87038165381E-01 -0.13602449393E-01  0.93892687629E-01  0.13017734381E+00  0.19225898926E-01 0.  0.
         14    1    1    2    0    0 -0.13531268639E-01 -0.17017504628E-01 -0.86735880181E-02  0.23407730002E-01  0.00000000000E+00 0. -1.
     999901    1    3    3    0    0  0.10056943402E+00  0.30619954022E-01 -0.85219099611E-01  0.89034492618E+00  0.88000000000E+00 0. -1.
        -11    1    4    4    0    0 -0.24528311577E-01  0.31414663115E-02  0.33647054019E-01  0.41759935878E-01  0.51100000000E-03 0.  1.
         11    1    4    4    0    0 -0.62509853805E-01 -0.16743915705E-01  0.60245633610E-01  0.88417407935E-01  0.51100000000E-03 0. -1.
</event>
<event>
 8    1  0.1132255E+005  0.1043930E+01  0.7957747E-01            NaN
         13   -1    0    0    0    0  0.00000000000E+00  0.00000000000E+00  0.74505805969E-08  0.10566000000E+00  0.10566000000E+00 0. -1.
     999900   -1    0    0    0    0 -0.00000000000E+00 -0.00000000000E+00 -0.74505805969E-08  0.93827000000E+00  0.93827000000E+00 0.  1.
     999902    2    1    2    0    0  0.28082218577E-02 -0.14073012670E-01 -0.19171900231E-01  0.10199821910E+01  0.10197010211E+01 0.  0.
     999903    2    3    3    0    0 -0.27173704539E-01 -0.88195594253E-01 -0.93962313142E-01  0.13319773083E+00  0.19895882542E-01 0.  0.
         14    1    1    2    0    0 -0.28082218577E-02  0.14073012670E-01  0.19171900231E-01  0.23947808962E-01  0.00000000000E+00 0. -1.
     999901    1    3    3    0    0  0.29981926396E-01  0.74122581584E-01  0.74790412911E-01  0.88678446021E+00  0.88000000000E+00 0.  1.
        -11    1    4    4    0    0 -0.19801470252E-01 -0.47616937482E-01 -0.64126493206E-01  0.82291793097E-01  0.51100000000E-03 0.  1.
         11    1    4    4    0    0 -0.73722342863E-02 -0.40578656772E-01 -0.29835819936E-01  0.50905937728E-01  0.51100000000E-03 0. -1.
</event>
<event>
 8    1  0.1132255E+005  0.1043930E+01  0.7957747E-01            NaN
         13   -1    0    0    0    0  0.00000000000E+00  0.00000000000E+00  0.74505805969E-08  0.10566000000E+00  0.10566000000E+00 0.  1.
     999900   -1    0    0    0    0 -0.00000000000E+00 -0.00000000000E+00 -0.74505805969E-08  0.93827000000E+00  0.93827000000E+00 0. -1.
     999902    2    1    2    0    0  0.23646786125E-01  0.32442241145E-02  0.49098399015E-02  0.10195619469E+01  0.10192707008E+01 0.  0.
     999903    2    3    3    0    0  0.53463315611E-01  0.11814562819E+00 -0.98665946280E-02  0.13146865163E+00  0.19233852800E-01 0.  0.
         14    1    1    2    0    0 -0.23646786125E-01 -0.32442241145E-02 -0.49098399015E-02  0.24368053102E-01  0.00000000000E+00 0.  1.
     999901    1    3    3    0    0 -0.29816529486E-01 -0.11490140408E+00  0.14776434529E-01  0.88809329527E+00  0.88000000000E+00 0. -1.
        -11    1    4    4    0    0  0.33551043186E-01  0.56851800724E-01 -0.11444032403E-01  0.67000199575E-01  0.51100000000E-03 0. -1.
         11    1    4    4    0    0  0.19912272425E-01  0.61293827469E-01  0.15774377751E-02  0.64468452051E-01  0.51100000000E-03 0.  1.
</event>
<event>
 8    1  0.1132255E+005  0.1043930E+01  0.7957747E-01            NaN
         13   -1    0    0    0    0  0.00000000000E+00  0.00000000000E+00  0.74505805969E-08  0.10566000000E+00  0.10566000000E+00 0. -1.
     999900   -1    0    0    0    0 -0.00000000000E+00 -0.00000000000E+00 -0.74505805969E-08  0.93827000000E+00  0.93827000000E+00 0.  1.
     999902    2    1    2    0    0  0.95191551410E-02  0.21111884544E-01 -0.68386520768E-03  0.10207611922E+01  0.10204982204E+01 0.  0.
     999903    2    3    3    0    0 -0.56641861415E-01  0.61168085414E-02 -0.11586285659E+00  0.13066662841E+00  0.20096030258E-01 0.  0.
         14    1    1    2    0    0 -0.95191551410E-02 -0.21111884544E-01  0.68386520768E-03  0.23168807807E-01  0.00000000000E+00 0. -1.
     999901    1    3    3    0    0  0.66161016556E-01  0.14995076002E-01  0.11517899138E+00  0.89009456378E+00  0.88000000000E+00 0. -1.
        -11    1    4    4    0    0 -0.20675813604E-01  0.76611464042E-02 -0.27507859525E-01  0.35257990429E-01  0.51100000000E-03 0.  1.
         11    1    4    4    0    0 -0.35966047812E-01 -0.15443378627E-02 -0.88354997064E-01  0.95408637984E-01  0.51100000000E-03 0. -1.
</event>
<event>
 8    1  0.1132255E+005  0.1043930E+01  0.7957747E-01            NaN
         13   -1    0    0    0    0  0.00000000000E+00  0.00000000000E+00  0.74505805969E-08  0.10566000000E+00  0.10566000000E+00 0.  1.
     999900   -1    0    0    0    0 -0.00000000000E+00 -0.00000000000E+00 -0.74505805969E-08  0.93827000000E+00  0.93827000000E+00 0. -1.
     999902    2    1    2    0    0 -0.17073163059E-01  0.12138135730E-01 -0.12533074160E-01  0.10195188308E+01  0.10192265406E+01 0.  0.
     999903    2    3    3    0    0  0.22816577552E-01 -0.11297725678E+00 -0.53503746982E-01  0.12883165286E+00  0.21224680837E-01 0.  0.
         14    1    1    2    0    0  0.17073163059E-01 -0.12138135730E-01  0.12533074160E-01  0.24411169241E-01  0.00000000000E+00 0.  1.
     999901    1    3    3    0    0 -0.39889740611E-01  0.12511539251E+00  0.40970672822E-01  0.89068717790E+00  0.88000000000E+00 0.  1.
        -11    1    4    4    0    0  0.53647254369E-02 -0.67516309262E-01 -0.23808862135E-01  0.71793839098E-01  0.51100000000E-03 0. -1.
         11    1    4    4    0    0  0.17451852115E-01 -0.45460947515E-01 -0.29694884847E-01  0.57037813758E-01  0.51100000000E-03 0.  1.
</event>
<event>
 8    1  0.1132255E+005  0.1043930E+01  0.7957747E-01            NaN
         13   -1    0    0    0    0  0.00000000000E+00  0.00000000000E+00  0.74505805969E-08  0.10566000000E+00  0.10566000000E+00 0.  1.
     999900   -1    0    0    0    0 -0.00000000000E+00 -0.00000000000E+00 -0.74505805969E-08  0.93827000000E+00  0.93827000000E+00 0. -1.
     999902    2    1    2    0    0 -0.33693824242E-02 -0.23262573928E-01 -0.59517233584E-02  0.10196828745E+01  0.10193945465E+01 0.  0.
     999903    2    3    3    0    0  0.59554414730E-01  0.92107657816E-01 -0.63216653784E-01  0.12808376792E+00  0.19456550193E-01 0.  0.
         14    1    1    2    0    0  0.33693824242E-02  0.23262573928E-01  0.59517233584E-02  0.24247125492E-01  0.00000000000E+00 0.  1.
     999901    1    3    3    0    0 -0.62923797154E-01 -0.11537023174E+00  0.57264930426E-01  0.89159910659E+00  0.88000000000E+00 0.  1.
        -11    1    4    4    0    0  0.17326204596E-01  0.34155782056E-01 -0.31857668799E-01  0.49819544316E-01  0.51100000000E-03 0. -1.
         11    1    4    4    0    0  0.42228210134E-01  0.57951875760E-01 -0.31358984986E-01  0.78264223599E-01  0.51100000000E-03 0.  1.
</event>
<event>
 8    1  0.1132255E+005  0.1043930E+01  0.7957747E-01            NaN
         13   -1    0    0    0    0  0.00000000000E+00  0.00000000000E+00  0.74505805969E-08  0.10566000000E+00  0.10566000000E+00 0.  1.
     999900   -1    0    0    0    0 -0.00000000000E+00 -0.00000000000E+00 -0.74505805969E-08  0.93827000000E+00  0.93827000000E+00 0.  1.
     999902    2    1    2    0    0  0.24060177323E-01  0.37379037373E-02  0.10844365888E-02  0.10195570630E+01  0.10192656987E+01 0.  0.
     999903    2    3    3    0    0  0.33035802341E-01  0.48236386994E-01 -0.11523288928E+00  0.13074302327E+00  0.19925011783E-01 0.  0.
         14    1    1    2    0    0 -0.24060177323E-01 -0.37379037373E-02 -0.10844365888E-02  0.24372937038E-01  0.00000000000E+00 0. -1.
     999901    1    3    3    0    0 -0.89756250188E-02 -0.44498483257E-01  0.11631732587E+00  0.88881403969E+00  0.88000000000E+00 0. -1.
        -11    1    4    4    0    0  0.18059257849E-01  0.20331189904E-01 -0.73360407695E-01  0.78240044831E-01  0.51100000000E-03 0. -1.
         11    1    4    4    0    0  0.14976544493E-01  0.27905197090E-01 -0.41872481587E-01  0.52502978438E-01  0.51100000000E-03 0.  1.
</event>
<event>
 8    1  0.1132255E+005  0.1043930E+01  0.7957747E-01            NaN
         13   -1    0    0    0    0  0.00000000000E+00  0.00000000000E+00  0.74505805969E-08  0.10566000000E+00  0.10566000000E+00 0. -1.
     999900   -1    0    0    0    0 -0.00000000000E+00 -0.00000000000E+00 -0.74505805969E-08  0.93827000000E+00  0.93827000000E+00 0.  1.
     999902    2    1    2    0    0  0.20864330951E-01  0.56082081212E-02 -0.79421103646E-02  0.10209115417E+01  0.10206520105E+01 0.  0.
     999903    2    3    3    0    0  0.11706462224E+00 -0.13856326694E-01  0.58227334269E-01  0.13298600455E+00  0.19968259363E-01 0.  0.
         14    1    1    2    0    0 -0.20864330951E-01 -0.56082081212E-02  0.79421103646E-02  0.23018458276E-01  0.00000000000E+00 0.  1.
     999901    1    3    3    0    0 -0.96200291285E-01  0.19464534815E-01 -0.66169444634E-01  0.88792553717E+00  0.88000000000E+00 0.  1.
        -11    1    4    4    0    0  0.87936568454E-01 -0.13648962926E-01  0.34617319307E-01  0.95486931972E-01  0.51100000000E-03 0. -1.
         11    1    4    4    0    0  0.29128053782E-01 -0.20736376775E-03  0.23610014962E-01  0.37499072580E-01  0.51100000000E-03 0.  1.
</event>
<event>
 8    1  0.1132255E+005  0.1043930E+01  0.7957747E-01            NaN
         13   -1    0    0    0    0  0.00000000000E+00  0.00000000000E+00  0.74505805969E-08  0.10566000000E+00  0.10566000000E+00 0. -1.
     999900   -1    0    0    0    0 -0.00000000000E+00 -0.00000000000E+00 -0.74505805969E-08  0.93827000000E+00  0.93827000000E+00 0.  1.
     999902    2    1    2    0    0 -0.93867585126E-02  0.18737935585E-01  0.91913865856E-02  0.10210454407E+01  0.10207889542E+01 0.  0.
     999903    2    3    3    0    0 -0.10622666827E+00  0.58208417635E-01 -0.49178994564E-01  0.13293340475E+00  0.24091319076E-01 0.  0.
         14    1    1    2    0    0  0.93867585126E-02 -0.18737935585E-01 -0.91913865856E-02  0.22884559264E-01  0.00000000000E+00 0.  1.
     999901    1    3    3    0    0  0.96839909761E-01 -0.39470482050E-01  0.58370381150E-01  0.88811203599E+00  0.88000000000E+00 0. -1.
        -11    1    4    4    0    0 -0.66014054964E-01  0.44610621522E-01 -0.41344292667E-01  0.89763994243E-01  0.51100000000E-03 0.  1.
         11    1    4    4    0    0 -0.40212613309E-01  0.13597796113E-01 -0.78347018976E-02  0.43169410502E-01  0.51100000000E-03 0. -1.
</event>
<event>
 8    1  0.1132255E+005  0.1043930E+01  0.7957747E-01            NaN
         13   -1    0    0    0    0  0.00000000000E+00  0.00000000000E+00  0.74505805969E-08  0.10566000000E+00  0.10566000000E+00 0.  1.
     999900   -1    0    0    0    0 -0.00000000000E+00 -0.00000000000E+00 -0.74505805969E-08  0.93827000000E+00  0.93827000000E+00 0.  1.
     999902    2    1    2    0    0  0.11617636035E-01  0.13036832876E-01 -0.15789009325E-01  0.10203880949E+01  0.10201164850E+01 0.  0.
     999903    2    3    3    0    0 -0.87003419413E-01  0.63395596775E-01 -0.73015525427E-01  0.13160409878E+00  0.19994378775E-01 0.  0.
         14    1    1    2    0    0 -0.11617636035E-01 -0.13036832876E-01  0.15789009325E-01  0.23541905062E-01  0.00000000000E+00 0.  1.
     999901    1    3    3    0    0  0.98621055448E-01 -0.50358763900E-01  0.57226516102E-01  0.88878399616E+00  0.88000000000E+00 0. -1.
        -11    1    4    4    0    0 -0.31987099782E-01  0.29111913933E-01 -0.39731044264E-01  0.58732402340E-01  0.51100000000E-03 0.  1.
         11    1    4    4    0    0 -0.55016319631E-01  0.34283682842E-01 -0.33284481163E-01  0.72871696441E-01  0.51100000000E-03 0. -1.
</event>
<event>
 8    1  0.1132255E+005  0.1043930E+01  0.7957747E-01            NaN
         13   -1    0    0    0    0  0.00000000000E+00  0.00000000000E+00  0.74505805969E-08  0.10566000000E+00  0.10566000000E+00 0. -1.
     999900   -1    0    0    0    0 -0.00000000000E+00 -0.00000000000E+00 -0.74505805969E-08  0.93827000000E+00  0.93827000000E+00 0. -1.
     999902    2    1    2    0    0  0.11888251865E-02 -0.23669133709E-01  0.34744751803E-02  0.10199776896E+01  0.10196964127E+01 0.  0.
     999903    2    3    3    0    0 -0.39824390879E-01  0.11622616547E+00  0.28345543558E-01  0.12763731246E+00  0.19832045880E-01 0.  0.
         14    1    1    2    0    0 -0.11888251865E-02  0.23669133709E-01 -0.34744751803E-02  0.23952310403E-01  0.00000000000E+00 0. -1.
     999901    1    3    3    0    0  0.41013216065E-01 -0.13989529918E+00 -0.24871068377E-01  0.89234037714E+00  0.88000000000E+00 0. -1.
        -11    1    4    4    0    0 -0.19204208512E-02  0.32207811406E-01  0.79414097160E-02  0.33231885909E-01  0.51100000000E-03 0. -1.
         11    1    4    4    0    0 -0.37903970028E-01  0.84018354066E-01  0.20404133842E-01  0.94405426553E-01  0.51100000000E-03 0.  1.
</event>
<event>
 8    1  0.1132255E+005  0.1043930E+01  0.7957747E-01            NaN
         13   -1    0    0    0    0  0.00000000000E+00  0.00000000000E+00  0.74505805969E-08  0.10566000000E+00  0.10566000000E+00 0. -1.
     999900   -1    0    0    0    0 -0.00000000000E+00 -0.00000000000E+00 -0.74505805969E-08  0.93827000000E+00  0.93827000000E+00 0. -1.
     999902    2    1    2    0    0 -0.12664361973E-01  0.18647286162E-01 -0.65724535472E-02  0.10204501258E+01  0.10201799620E+01 0.  0.
     999903    2    3    3    0    0 -0.86685454938E-01  0.79763038961E-01  0.59005399377E-01  0.13280452525E+00  0.16700128378E-01 0.  0.
         14    1    1    2    0    0  0.12664361973E-01 -0.18647286162E-01  0.65724535472E-02  0.23479874170E-01  0.00000000000E+00 0. -1.
     999901    1    3    3    0    0  0.74021092965E-01 -0.61115752799E-01 -0.65577852924E-01  0.88764560059E+00  0.88000000000E+00 0. -1.
        -11    1    4    4    0    0 -0.34527097309E-01  0.39443366880E-01  0.19412211029E-01  0.55901652010E-01  0.51100000000E-03 0. -1.
         11    1    4    4    0    0 -0.52158357629E-01  0.40319672081E-01  0.39593188348E-01  0.76902873235E-01  0.51100000000E-03 0.  1.
</event>
<event>
 8    1  0.1132255E+005  0.1043930E+01  0.7957747E-01            NaN
         13   -1    0    0    0    0  0.00000000000E+00  0.00000000000E+00  0.74505805969E-08  0.10566000000E+00  0.10566000000E+00 0.  1.
     999900   -1    0    0    0    0 -0.00000000000E+00 -0.00000000000E+00 -0.74505805969E-08  0.93827000000E+00  0.93827000000E+00 0. -1.
     999902    2    1    2    0    0  0.30854612348E-02  0.30195327081E-02 -0.21878672977E-01  0.10216294623E+01  0.10213860408E+01 0.  0.
     999903    2    3    3    0    0  0.39949776418E-01 -0.14380696023E-01 -0.12607113115E+00  0.13454558015E+00  0.20144328593E-01 0.  0.
         14    1    1    2    0    0 -0.30854612348E-02 -0.30195327081E-02  0.21878672977E-01  0.22300537663E-01  0.00000000000E+00 0.  1.
     999901    1    3    3    0    0 -0.36864315183E-01  0.17400228731E-01  0.10419245817E+00  0.88708388219E+00  0.88000000000E+00 0.  1.
        -11    1    4    4    0    0  0.24313937942E-01 -0.15396226142E-01 -0.58734186457E-01  0.65407775818E-01  0.51100000000E-03 0. -1.
         11    1    4    4    0    0  0.15635838476E-01  0.10155301186E-02 -0.67336944695E-01  0.69137804334E-01  0.51100000000E-03 0.  1.
</event>
<event>
 8    1  0.1132255E+005  0.1043930E+01  0.7957747E-01            NaN
         13   -1    0    0    0    0  0.00000000000E+00  0.00000000000E+00  0.74505805969E-08  0.10566000000E+00  0.10566000000E+00 0.  1.
     999900   -1    0    0    0    0 -0.00000000000E+00 -0.00000000000E+00 -0.74505805969E-08  0.93827000000E+00  0.93827000000E+00 0.  1.
     999902    2    1    2    0    0  0.68721868457E-02 -0.27108257090E-01 -0.61885678036E-02  0.10152876725E+01  0.10148835770E+01 0.  0.
     999903    2    3    3    0    0  0.10348865137E+00  0.51999754845E-01  0.43592335775E-01  0.12507929399E+00  0.18184129891E-01 0.  0.
         14    1    1    2    0    0 -0.68721868457E-02  0.27108257090E-01  0.61885678036E-02  0.28642327523E-01  0.00000000000E+00 0. -1.
     999901    1    3    3    0    0 -0.96616464525E-01 -0.79108011935E-01 -0.49780903579E-01  0.89020837849E+00  0.88000000000E+00 0.  1.
        -11    1    4    4    0    0  0.74041725988E-01  0.43128769633E-01  0.25535774226E-01  0.89412554173E-01  0.51100000000E-03 0.  1.
         11    1    4    4    0    0  0.29446925382E-01  0.88709852124E-02  0.18056561550E-01  0.35666739816E-01  0.51100000000E-03 0. -1.
</event>
<event>
 8    1  0.1132255E+005  0.1043930E+01  0.7957747E-01            NaN
         13   -1    0    0    0    0  0.00000000000E+00  0.00000000000E+00  0.74505805969E-08  0.10566000000E+00  0.10566000000E+00 0. -1.
     999900   -1    0    0    0    0 -0.00000000000E+00 -0.00000000000E+00 -0.74505805969E-08  0.93827000000E+00  0.93827000000E+00 0.  1.
     999902    2    1    2    0    0  0.52784300669E-02 -0.20711010400E-01 -0.13792859667E-01  0.10184928077E+01  0.10181751070E+01 0.  0.
     999903    2    3    3    0    0  0.97480584690E-01  0.79158069798E-01 -0.14688533928E-01  0.12805703080E+00  0.20356465880E-01 0.  0.
         14    1    1    2    0    0 -0.52784300669E-02  0.20711010400E-01  0.13792859667E-01  0.25437192329E-01  0.00000000000E+00 0. -1.
     999901    1    3    3    0    0 -0.92202154623E-01 -0.99869080198E-01  0.89567426046E-03  0.89043577687E+00  0.88000000000E+00 0. -1.
        -11    1    4    4    0    0  0.37279184833E-01  0.42461233396E-01 -0.10098817115E-01  0.57401578301E-01  0.51100000000E-03 0.  1.
         11    1    4    4    0    0  0.60201399857E-01  0.36696836402E-01 -0.45897168133E-02  0.70655452501E-01  0.51100000000E-03 0. -1.
</event>
<event>
 8    1  0.1132255E+005  0.1043930E+01  0.7957747E-01            NaN
         13   -1    0    0    0    0  0.00000000000E+00  0.00000000000E+00  0.74505805969E-08  0.10566000000E+00  0.10566000000E+00 0.  1.
     999900   -1    0    0    0    0 -0.00000000000E+00 -0.00000000000E+00 -0.74505805969E-08  0.93827000000E+00  0.93827000000E+00 0.  1.
     999902    2    1    2    0    0  0.19894817384E-01 -0.11265938839E-01 -0.79976001477E-02  0.10197083827E+01  0.10194206683E+01 0.  0.
     999903    2    3    3    0    0  0.54316046967E-01 -0.81441248426E-01  0.85421569122E-01  0.13131852666E+00  0.19099766217E-01 0.  0.
         14    1    1    2    0    0 -0.19894817384E-01  0.11265938839E-01  0.79976001477E-02  0.24221617303E-01  0.00000000000E+00 0.  1.
     999901    1    3    3    0    0 -0.34421229583E-01  0.70175309587E-01 -0.93419169270E-01  0.88838985604E+00  0.88000000000E+00 0.  1.
        -11    1    4    4    0    0  0.20979151679E-01 -0.43244249549E-01  0.50724476474E-01  0.69881496541E-01  0.51100000000E-03 0. -1.
         11    1    4    4    0    0  0.33336895288E-01 -0.38196998877E-01  0.34697092649E-01  0.61437030119E-01  0.51100000000E-03 0.  1.
</event>
<event>
 8    1  0.1132255E+005  0.1043930E+01  0.7957747E-01            NaN
         13   -1    0    0    0    0  0.00000000000E+00  0.00000000000E+00  0.74505805969E-08  0.10566000000E+00  0.10566000000E+00 0.  1.
     999900   -1    0    0    0    0 -0.00000000000E+00 -0.00000000000E+00 -0.74505805969E-08  0.93827000000E+00  0.93827000000E+00 0. -1.
     999902    2    1    2    0    0 -0.87569973224E-03  0.29857991688E-01 -0.39918461179E-02  0.10137936208E+01  0.10133455996E+01 0.  0.
     999903    2    3    3    0    0  0.78795413251E-01  0.13615771772E-01 -0.94343316943E-01  0.12543857675E+00  0.20977814365E-01 0.  0.
         14    1    1    2    0    0  0.87569973224E-03 -0.29857991688E-01  0.39918461179E-02  0.30136379230E-01  0.00000000000E+00 0. -1.
     999901    1    3    3    0    0 -0.79671112983E-01  0.16242219915E-01  0.90351470825E-01  0.88835504402E+00  0.88000000000E+00 0.  1.
        -11    1    4    4    0    0  0.63241890528E-01  0.16762725106E-01 -0.65895461556E-01  0.92860102548E-01  0.51100000000E-03 0. -1.
         11    1    4    4    0    0  0.15553522723E-01 -0.31469533336E-02 -0.28447855387E-01  0.32578474205E-01  0.51100000000E-03 0.  1.
</event>
<event>
 8    1  0.1132255E+005  0.1043930E+01  0.7957747E-01            NaN
         13   -1    0    0    0    0  0.00000000000E+00  0.00000000000E+00  0.74505805969E-08  0.10566000000E+00  0.10566000000E+00 0. -1.
     999900   -1    0    0    0    0 -0.00000000000E+00 -0.00000000000E+00 -0.74505805969E-08  0.93827000000E+00  0.93827000000E+00 0.  1.
     999902    2    1    2    0    0  0.82024365047E-02 -0.17585689193E-01 -0.18356325579E-01  0.10172187455E+01  0.10168679782E+01 0.  0.
     999903    2    3    3    0    0 -0.38764029987E-02  0.12448482114E+00 -0.10313415262E-01  0.12570620117E+00  0.13571487824E-01 0.  0.
         14    1    1    2    0    0 -0.82024365047E-02  0.17585689193E-01  0.18356325579E-01  0.26711254516E-01  0.00000000000E+00 0. -1.
     999901    1    3    3    0    0  0.12078839503E-01 -0.14207051034E+00 -0.80429103179E-02  0.89151254432E+00  0.88000000000E+00 0. -1.
        -11    1    4    4    0    0 -0.65602927632E-02  0.10662758620E+00 -0.53156659019E-02  0.10696259629E+00  0.51100000000E-03 0.  1.
         11    1    4    4    0    0  0.26838897645E-02  0.17857234948E-01 -0.49977493597E-02  0.18743604880E-01  0.51100000000E-03 0. -1.
</event>
<event>
 8    1  0.1132255E+005  0.1043930E+01  0.7957747E-01            NaN
         13   -1    0    0    0    0  0.00000000000E+00  0.00000000000E+00  0.74505805969E-08  0.10566000000E+00  0.10566000000E+00 0. -1.
     999900   -1    0    0    0    0 -0.00000000000E+00 -0.00000000000E+00 -0.74505805969E-08  0.93827000000E+00  0.93827000000E+00 0. -1.
     999902    2    1    2    0    0 -0.16442050050E-01 -0.14797421920E-01 -0.57033264270E-02  0.10210863436E+01  0.10208307835E+01 0.  0.
     999903    2    3    3    0    0  0.12451167581E+00 -0.29833235256E-01 -0.14867053451E-02  0.12973242488E+00  0.20859348832E-01 0.  0.
         14    1    1    2    0    0  0.16442050050E-01  0.14797421920E-01  0.57033264270E-02  0.22843656399E-01  0.00000000000E+00 0. -1.
     999901    1    3    3    0    0 -0.14095372587E+00  0.15035813336E-01 -0.42166210819E-02  0.89135391872E+00  0.88000000000E+00 0.  1.
        -11    1    4    4    0    0  0.46772498108E-01 -0.21595224709E-01  0.72984639450E-03  0.51524888221E-01  0.51100000000E-03 0. -1.
         11    1    4    4    0    0  0.77739177707E-01 -0.82380105463E-02 -0.22165517396E-02  0.78207536664E-01  0.51100000000E-03 0.  1.
</event>
<event>
 8    1  0.1132255E+005  0.1043930E+01  0.7957747E-01            NaN
         13   -1    0    0    0    0  0.00000000000E+00  0.00000000000E+00  0.74505805969E-08  0.10566000000E+00  0.10566000000E+00 0.  1.
     999900   -1    0    0    0    0 -0.00000000000E+00 -0.00000000000E+00 -0.74505805969E-08  0.93827000000E+00  0.93827000000E+00 0.  1.
     999902    2    1    2    0    0 -0.67494699046E-03 -0.15036720109E-01  0.18332469916E-01  0.10202100093E+01  0.10199342259E+01 0.  0.
     999903    2    3    3    0    0 -0.80129298317E-01 -0.81623886631E-01  0.64094613332E-01  0.13294397341E+00  0.21973103803E-01 0.  0.
         14    1    1    2    0    0  0.67494699046E-03  0.15036720109E-01 -0.18332469916E-01  0.23719990689E-01  0.00000000000E+00 0.  1.
     999901    1    3    3    0    0  0.79454351327E-01  0.66587166522E-01 -0.45762143416E-01  0.88726603590E+00  0.88000000000E+00 0. -1.
        -11    1    4    4    0    0 -0.42655243524E-01 -0.58300774047E-01  0.37233617070E-01  0.81271479719E-01  0.51100000000E-03 0.  1.
         11    1    4    4    0    0 -0.37474054793E-01 -0.23323112584E-01  0.26860996262E-01  0.51672493693E-01  0.51100000000E-03 0. -1.
</event>
<event>
 7    1  0.1132255E+005  0.1043930E+01  0.7957747E-01            NaN
         13   -1    0    0    0    0  0.00000000000E+00  0.00000000000E+00  0.74505805969E-08  0.10566000000E+00  0.10566000000E+00 0.  1.
     999900   -1    0    0    0    0 -0.00000000000E+00 -0.00000000000E+00 -0.74505805969E-08  0.93827000000E+00  0.93827000000E+00 0.  1.
     999903    2    1    2    0    0 -0.70527419227E-01 -0.47626193816E-01 -0.55715098658E-01  0.10368499202E+00  0.20100600781E-01 0.  0.
         14    1    1    2    0    0 -0.14456674606E-01 -0.31965391758E-01 -0.32986310874E-01  0.48154734098E-01  0.00000000000E+00 0. -1.
     999901    1    1    2    0    0  0.84984093833E-01  0.79591585575E-01  0.88701409533E-01  0.89209027388E+00  0.88000000000E+00 0. -1.
        -11    1    3    3    0    0 -0.58975404174E-01 -0.36047017243E-01 -0.35587612464E-01  0.77744614164E-01  0.51100000000E-03 0. -1.
         11    1    3    3    0    0 -0.11552015053E-01 -0.11579176573E-01 -0.20127486194E-01  0.25940377857E-01  0.51100000000E-03 0.  1.
</event>
<event>
 8    1  0.1132255E+005  0.1043930E+01  0.7957747E-01            NaN
         13   -1    0    0    0    0  0.00000000000E+00  0.00000000000E+00  0.74505805969E-08  0.10566000000E+00  0.10566000000E+00 0.  1.
     999900   -1    0    0    0    0 -0.00000000000E+00 -0.00000000000E+00 -0.74505805969E-08  0.93827000000E+00  0.93827000000E+00 0. -1.
     999902    2    1    2    0    0 -0.12472485792E-01  0.19970072694E-01 -0.32637411118E-02  0.10201598778E+01  0.10198829136E+01 0.  0.
     999903    2    3    3    0    0  0.85031907446E-01 -0.67147145949E-01 -0.65668185058E-01  0.12831301248E+00  0.20316351795E-01 0.  0.
         14    1    1    2    0    0  0.12472485792E-01 -0.19970072694E-01  0.32637411118E-02  0.23770122239E-01  0.00000000000E+00 0.  1.
     999901    1    3    3    0    0 -0.97504393238E-01  0.87117218643E-01  0.62404443946E-01  0.89184686528E+00  0.88000000000E+00 0.  1.
        -11    1    4    4    0    0  0.60501842585E-01 -0.46778660847E-01 -0.56648505588E-01  0.95173685298E-01  0.51100000000E-03 0. -1.
         11    1    4    4    0    0  0.24530064861E-01 -0.20368485102E-01 -0.90196794693E-02  0.33139327183E-01  0.51100000000E-03 0.  1.
</event>
<event>
 8    1  0.1132255E+005  0.1043930E+01  0.7957747E-01            NaN
         13   -1    0    0    0    0  0.00000000000E+00  0.00000000000E+00  0.74505805969E-08  0.10566000000E+00  0.10566000000E+00 0.  1.
     999900   -1    0    0    0    0 -0.00000000000E+00 -0.00000000000E+00 -0.74505805969E-08  0.93827000000E+00  0.93827000000E+00 0. -1.
     999902    2    1    2    0    0  0.19533825795E-01 -0.12390893343E-01  0.10298751228E-02  0.10207747580E+01  0.10205120976E+01 0.  0.
     999903    2    3    3    0    0 -0.50090395557E-01  0.19632801674E-01 -0.11636815814E+00  0.12967692532E+00  0.19495181509E-01 0.  0.
         14    1    1    2    0    0 -0.19533825795E-01  0.12390893343E-01 -0.10298751228E-02  0.23155241972E-01  0.00000000000E+00 0.  1.
     999901    1    3    3    0    0  0.69624221353E-01 -0.32023695017E-01  0.11739803327E+00  0.89109783271E+00  0.88000000000E+00 0.  1.
        -11    1    4    4    0    0 -0.32291432374E-01  0.22247415919E-01 -0.78637860357E-01  0.87874104959E-01  0.51100000000E-03 0. -1.
         11    1    4    4    0    0 -0.17798963184E-01 -0.26146142453E-02 -0.37730297786E-01  0.41802820361E-01  0.51100000000E-03 0.  1.
</event>
<event>
 8    1  0.1132255E+005  0.1043930E+01  0.7957747E-01            NaN
         13   -1    0    0    0    0  0.00000000000E+00  0.00000000000E+00  0.74505805969E-08  0.10566000000E+00  0.10566000000E+00 0.  1.
     999900   -1    0    0    0    0 -0.00000000000E+00 -0.00000000000E+00 -0.74505805969E-08  0.93827000000E+00  0.93827000000E+00 0. -1.
     999902    2    1    2    0    0  0.14002991639E-01 -0.15153996851E-01 -0.11774368353E-01  0.10201736715E+01  0.10198970325E+01 0.  0.
     999903    2    3    3    0    0 -0.21381800336E-01  0.10111603374E+00 -0.75401565177E-01  0.12954511606E+00  0.20369275884E-01 0.  0.
         14    1    1    2    0    0 -0.14002991639E-01  0.15153996851E-01  0.11774368353E-01  0.23756328536E-01  0.00000000000E+00 0.  1.
     999901    1    3    3    0    0  0.35384791975E-01 -0.11627003059E+00  0.63627196824E-01  0.89062855540E+00  0.88000000000E+00 0.  1.
        -11    1    4    4    0    0  0.98262192739E-03  0.29592344683E-01 -0.14467284838E-01  0.32958092500E-01  0.51100000000E-03 0.  1.
         11    1    4    4    0    0 -0.22364422264E-01  0.71523689058E-01 -0.60934280338E-01  0.96587023564E-01  0.51100000000E-03 0. -1.
</event>
<event>
 8    1  0.1132255E+005  0.1043930E+01  0.7957747E-01            NaN
         13   -1    0    0    0    0  0.00000000000E+00  0.00000000000E+00  0.74505805969E-08  0.10566000000E+00  0.10566000000E+00 0.  1.
     999900   -1    0    0    0    0 -0.00000000000E+00 -0.00000000000E+00 -0.74505805969E-08  0.93827000000E+00  0.93827000000E+00 0.  1.
     999902    2    1    2    0    0  0.15055175877E-01 -0.55798116176E-02  0.19245876113E-01  0.10188661542E+01  0.10185578255E+01 0.  0.
     999903    2    3    3    0    0 -0.26338183798E-01 -0.23239454647E-01  0.12492601574E+00  0.13140147033E+00  0.20641337635E-01 0.  0.
         14    1    1    2    0    0 -0.15055175877E-01  0.55798116176E-02 -0.19245876113E-01  0.25063845789E-01  0.00000000000E+00 0.  1.
     999901    1    3    3    0    0  0.41393359675E-01  0.17659643030E-01 -0.10568013963E+00  0.88746468388E+00  0.88000000000E+00 0.  1.
        -11    1    4    4    0    0 -0.34656844675E-02 -0.88356020016E-02  0.64589185400E-01  0.65284782478E-01  0.51100000000E-03 0.  1.
         11    1    4    4    0    0 -0.22872499331E-01 -0.14403852645E-01  0.60336830340E-01  0.66116687856E-01  0.51100000000E-03 0. -1.
</event>
<event>
 8    1  0.1132255E+005  0.1043930E+01  0.7957747E-01            NaN
         13   -1    0    0    0    0  0.00000000000E+00  0.00000000000E+00  0.74505805969E-08  0.10566000000E+00  0.10566000000E+00 0. -1.
     999900   -1    0    0    0    0 -0.00000000000E+00 -0.00000000000E+00 -0.74505805969E-08  0.93827000000E+00  0.93827000000E+00 0. -1.
     999902    2    1    2    0    0 -0.22313712013E-01 -0.12438718877E-01  0.59449570305E-02  0.10177008943E+01  0.10173628381E+01 0.  0.
     999903    2    3    3    0    0 -0.10826541025E+00  0.51793540882E-01  0.47146457883E-01  0.13022636437E+00  0.18224915735E-01 0.  0.
         14    1    1    2    0    0  0.22313712013E-01  0.12438718877E-01 -0.59449570305E-02  0.26229105688E-01  0.00000000000E+00 0.  1.
     999901    1    3    3    0    0  0.85951698233E-01 -0.64232259759E-01 -0.41201500853E-01  0.88747452994E+00  0.88000000000E+00 0. -1.
        -11    1    4    4    0    0 -0.47460918201E-01  0.13799572524E-01  0.15048945444E-01  0.51669128484E-01  0.51100000000E-03 0. -1.
         11    1    4    4    0    0 -0.60804492045E-01  0.37993968358E-01  0.32097512439E-01  0.78557235887E-01  0.51100000000E-03 0.  1.
</event>
<event>
 8    1  0.1132255E+005  0.1043930E+01  0.7957747E-01            NaN
         13   -1    0    0    0    0  0.00000000000E+00  0.00000000000E+00  0.74505805969E-08  0.10566000000E+00  0.10566000000E+00 0. -1.
     999900   -1    0    0    0    0 -0.00000000000E+00 -0.00000000000E+00 -0.74505805969E-08  0.93827000000E+00  0.93827000000E+00 0. -1.
     999902    2    1    2    0    0 -0.15669076104E-01 -0.13963451221E-01 -0.94447032187E-02  0.10209147804E+01  0.10206553230E+01 0.  0.
     999903    2    3    3    0    0  0.40880399254E-01  0.11707233970E+00 -0.30289405496E-01  0.12917338104E+00  0.19778132320E-01 0.  0.
         14    1    1    2    0    0  0.15669076104E-01  0.13963451221E-01  0.94447032187E-02  0.23015219635E-01  0.00000000000E+00 0.  1.
     999901    1    3    3    0    0 -0.56549475358E-01 -0.13103579092E+00  0.20844702277E-01  0.89174139933E+00  0.88000000000E+00 0.  1.
        -11    1    4    4    0    0  0.24095806868E-01  0.71857268118E-01 -0.85641235976E-02  0.76273719091E-01  0.51100000000E-03 0.  1.
         11    1    4    4    0    0  0.16784592386E-01  0.45215071577E-01 -0.21725281898E-01  0.52899661944E-01  0.51100000000E-03 0. -1.
</event>
<event>
 8    1  0.1132255E+005  0.1043930E+01  0.7957747E-01            NaN
         13   -1    0    0    0    0  0.00000000000E+00  0.00000000000E+00  0.74505805969E-08  0.10566000000E+00  0.10566000000E+00 0. -1.
     999900   -1    0    0    0    0 -0.00000000000E+00 -0.00000000000E+00 -0.74505805969E-08  0.93827000000E+00  0.93827000000E+00 0.  1.
     999902    2    1    2    0    0  0.21946196770E-01  0.33100071907E-02  0.58750919139E-02  0.10209711585E+01  0.10207129851E+01 0.  0.
     999903    2    3    3    0    0  0.26397110479E-01  0.11589522321E+00 -0.53371327240E-01  0.13181122926E+00  0.19929660885E-01 0.  0.
         14    1    1    2    0    0 -0.21946196770E-01 -0.33100071907E-02 -0.58750919139E-02  0.22958841549E-01  0.00000000000E+00 0. -1.
     999901    1    3    3    0    0 -0.44509137091E-02 -0.11258521602E+00  0.59246419154E-01  0.88915992919E+00  0.88000000000E+00 0. -1.
        -11    1    4    4    0    0  0.22067033364E-01  0.52520209750E-01 -0.26646475473E-01  0.62893737127E-01  0.51100000000E-03 0.  1.
         11    1    4    4    0    0  0.43300771152E-02  0.63375013459E-01 -0.26724851766E-01  0.68917492131E-01  0.51100000000E-03 0. -1.
</event>
<event>
 8    1  0.1132255E+005  0.1043930E+01  0.7957747E-01            NaN
         13   -1    0    0    0    0  0.00000000000E+00  0.00000000000E+00  0.74505805969E-08  0.10566000000E+00  0.10566000000E+00 0. -1.
     999900   -1    0    0    0    0 -0.00000000000E+00 -0.00000000000E+00 -0.74505805969E-08  0.93827000000E+00  0.93827000000E+00 0.  1.
     999902    2    1    2    0    0 -0.98813435591E-03 -0.16375943371E-01  0.16924206018E-01  0.10203593258E+01  0.10200870439E+01 0.  0.
     999903    2    3    3    0    0 -0.90897405087E-01 -0.37999009386E-01  0.86682714270E-01  0.13276849476E+00  0.20182103023E-01 0.  0.
         14    1    1    2    0    0  0.98813435591E-03  0.16375943371E-01 -0.16924206018E-01  0.23570674155E-01  0.00000000000E+00 0.  1.
     999901    1    3    3    0    0  0.89909270731E-01  0.21623066016E-01 -0.69758508252E-01  0.88759083108E+00  0.88000000000E+00 0.  1.
        -11    1    4    4    0    0 -0.68185399822E-01 -0.22824146994E-01  0.71984064310E-01  0.10174555062E+00  0.51100000000E-03 0.  1.
         11    1    4    4    0    0 -0.22712005265E-01 -0.15174862392E-01  0.14698649960E-01  0.31022944145E-01  0.51100000000E-03 0. -1.
</event>
<event>
 8    1  0.1132255E+005  0.1043930E+01  0.7957747E-01            NaN
         13   -1    0    0    0    0  0.00000000000E+00  0.00000000000E+00  0.74505805969E-08  0.10566000000E+00  0.10566000000E+00 0. -1.
     999900   -1    0    0    0    0 -0.00000000000E+00 -0.00000000000E+00 -0.74505805969E-08  0.93827000000E+00  0.93827000000E+00 0. -1.
     999902    2    1    2    0    0  0.10871305826E-01 -0.21016397719E-01  0.46457973248E-02  0.10198165661E+01  0.10195314467E+01 0.  0.
     999903    2    3    3    0    0  0.90388064073E-01 -0.94468483663E-01  0.15315911290E-01  0.13311933752E+00  0.19796069086E-01 0.  0.
         14    1    1    2    0    0 -0.10871305826E-01  0.21016397719E-01 -0.46457973248E-02  0.24113433936E-01  0.00000000000E+00 0.  1.
     999901    1    3    3    0    0 -0.79516758247E-01  0.73452085944E-01 -0.10670113965E-01  0.88669722854E+00  0.88000000000E+00 0. -1.
        -11    1    4    4    0    0  0.33642851029E-01 -0.36887177386E-01 -0.37121230852E-02  0.50065419800E-01  0.51100000000E-03 0. -1.
         11    1    4    4    0    0  0.56745213044E-01 -0.57581306276E-01  0.19028034375E-01  0.83053917722E-01  0.51100000000E-03 0.  1.
</event>
<event>
 8    1  0.1132255E+005  0.1043930E+01  0.7957747E-01            NaN
         13   -1    0    0    0    0  0.00000000000E+00  0.00000000000E+00  0.74505805969E-08  0.10566000000E+00  0.10566000000E+00 0. -1.
     999900   -1    0    0    0    0 -0.00000000000E+00 -0.00000000000E+00 -0.74505805969E-08  0.93827000000E+00  0.93827000000E+00 0. -1.
     999902    2    1    2    0    0 -0.67822559295E-04 -0.15710786862E-01 -0.17796110922E-01  0.10201911081E+01  0.10199148798E+01 0.  0.
     999903    2    3    3    0    0  0.10614522661E-02 -0.83092574588E-01  0.97716497074E-01  0.13008732586E+00  0.21649386081E-01 0.  0.
         14    1    1    2    0    0  0.67822559295E-04  0.15710786862E-01  0.17796110922E-01  0.23738891880E-01  0.00000000000E+00 0. -1.
     999901    1    3    3    0    0 -0.11292748254E-02  0.67381787726E-01 -0.11551260800E+00  0.89010378226E+00  0.88000000000E+00 0. -1.
        -11    1    4    4    0    0 -0.69487355126E-02 -0.13811851219E-01  0.24449371962E-01  0.28932422465E-01  0.51100000000E-03 0. -1.
         11    1    4    4    0    0  0.80101877787E-02 -0.69280723369E-01  0.73267125111E-01  0.10115490340E+00  0.51100000000E-03 0.  1.
</event>
<event>
 8    1  0.1132255E+005  0.1043930E+01  0.7957747E-01            NaN
         13   -1    0    0    0    0  0.00000000000E+00  0.00000000000E+00  0.74505805969E-08  0.10566000000E+00  0.10566000000E+00 0.  1.
     999900   -1    0    0    0    0 -0.00000000000E+00 -0.00000000000E+00 -0.74505805969E-08  0.93827000000E+00  0.93827000000E+00 0.  1.
     999902    2    1    2    0    0 -0.33408116504E-02  0.13588300999E-01 -0.18895814803E-01  0.10204171362E+01  0.10201462038E+01 0.  0.
     999903    2    3    3    0    0  0.11760582444E+00  0.24525933960E-02  0.50177605189E-01  0.12939343837E+00  0.19690725579E-01 0.  0.
         14    1    1    2    0    0  0.33408116504E-02 -0.13588300999E-01  0.18895814803E-01  0.23512863790E-01  0.00000000000E+00 0.  1.
     999901    1    3    3    0    0 -0.12094663609E+00  0.11135707603E-01 -0.69073419992E-01  0.89102369784E+00  0.88000000000E+00 0.  1.
        -11    1    4    4    0    0  0.25844233389E-01 -0.31439982555E-03  0.20235590273E-01  0.32829308269E-01  0.51100000000E-03 0. -1.
         11    1    4    4    0    0  0.91761591052E-01  0.27669932215E-02  0.29942014915E-01  0.96564130100E-01  0.51100000000E-03 0.  1.
</event>
<event>
 8    1  0.1132255E+005  0.1043930E+01  0.7957747E-01            NaN
         13   -1    0    0    0    0  0.00000000000E+00  0.00000000000E+00  0.74505805969E-08  0.10566000000E+00  0.10566000000E+00 0.  1.
     999900   -1    0    0    0    0 -0.00000000000E+00 -0.00000000000E+00 -0.74505805969E-08  0.93827000000E+00  0.93827000000E+00 0. -1.
     999902    2    1    2    0    0 -0.19527349095E-01  0.53162113934E-02  0.11588936541E-01  0.10206087025E+01  0.10203422175E+01 0.  0.
     999903    2    3    3    0    0 -0.12763918645E+00 -0.47658132797E-02 -0.31582464914E-01  0.13288487919E+00  0.18613547037E-01 0.  0.
         14    1    1    2    0    0  0.19527349095E-01 -0.53162113934E-02 -0.11588936541E-01  0.23321297485E-01  0.00000000000E+00 0. -1.
     999901    1    3    3    0    0  0.10811183735E+00  0.10082024673E-01  0.43171401454E-01  0.88772382333E+00  0.88000000000E+00 0.  1.
        -11    1    4    4    0    0 -0.47883086292E-01 -0.52645308006E-02 -0.20518092739E-01  0.52361803713E-01  0.51100000000E-03 0. -1.
         11    1    4    4    0    0 -0.79756100157E-01  0.49871752084E-03 -0.11064372174E-01  0.80523075475E-01  0.51100000000E-03 0.  1.
</event>
<event>
 8    1  0.1132255E+005  0.1043930E+01  0.7957747E-01            NaN
         13   -1    0    0    0    0  0.00000000000E+00  0.00000000000E+00  0.74505805969E-08  0.10566000000E+00  0.10566000000E+00 0.  1.
     999900   -1    0    0    0    0 -0.00000000000E+00 -0.00000000000E+00 -0.74505805969E-08  0.93827000000E+00  0.93827000000E+00 0.  1.
     999902    2    1    2    0    0  0.20057897577E-01  0.88553868607E-02  0.67963526465E-02  0.10209750977E+01  0.10207170139E+01 0.  0.
     999903    2    3    3    0    0  0.39299829888E-01  0.40885001832E-01  0.11878167856E+00  0.13309173742E+00  0.19704400585E-01 0.  0.
         14    1    1    2    0    0 -0.20057897577E-01 -0.88553868607E-02 -0.67963526465E-02  0.22954902330E-01  0.00000000000E+00 0. -1.
     999901    1    3    3    0    0 -0.19241932311E-01 -0.32029614972E-01 -0.11198532592E+00  0.88788336025E+00  0.88000000000E+00 0.  1.
        -11    1    4    4    0    0  0.28256911092E-02  0.72452424138E-02  0.33771306468E-01  0.34658914141E-01  0.51100000000E-03 0. -1.
         11    1    4    4    0    0  0.36474138779E-01  0.33639759418E-01  0.85010372095E-01  0.98432823276E-01  0.51100000000E-03 0.  1.
</event>
<event>
 8    1  0.1132255E+005  0.1043930E+01  0.7957747E-01            NaN
         13   -1    0    0    0    0  0.00000000000E+00  0.00000000000E+00  0.74505805969E-08  0.10566000000E+00  0.10566000000E+00 0. -1.
     999900   -1    0    0    0    0 -0.00000000000E+00 -0.00000000000E+00 -0.74505805969E-08  0.93827000000E+00  0.93827000000E+00 0. -1.
     999902    2    1    2    0    0  0.19217108630E-01  0.15642722942E-02 -0.98282612605E-02  0.10222888602E+01  0.10220597707E+01 0.  0.
     999903    2    3    3    0    0 -0.47272339968E-01  0.12069927397E+00 -0.12337991016E-01  0.13177199112E+00  0.20214914209E-01 0.  0.
         14    1    1    2    0    0 -0.19217108630E-01 -0.15642722942E-02  0.98282612605E-02  0.21641139788E-01  0.00000000000E+00 0. -1.
     999901    1    3    3    0    0  0.66489448598E-01 -0.11913500168E+00  0.25097297553E-02  0.89051686910E+00  0.88000000000E+00 0.  1.
        -11    1    4    4    0    0 -0.41418534203E-01  0.85899278595E-01 -0.14270094359E-01  0.96426540707E-01  0.51100000000E-03 0.  1.
         11    1    4    4    0    0 -0.58538057653E-02  0.34799995380E-01  0.19321033430E-02  0.35345450410E-01  0.51100000000E-03 0. -1.
</event>
<event>
 8    1  0.1132255E+005  0.1043930E+01  0.7957747E-01            NaN
         13   -1    0    0    0    0  0.00000000000E+00  0.00000000000E+00  0.74505805969E-08  0.10566000000E+00  0.10566000000E+00 0.  1.
     999900   -1    0    0    0    0 -0.00000000000E+00 -0.00000000000E+00 -0.74505805969E-08  0.93827000000E+00  0.93827000000E+00 0. -1.
     999902    2    1    2    0    0 -0.21155072796E-01 -0.57644932746E-02 -0.88567225204E-02  0.10202824204E+01  0.10200083379E+01 0.  0.
     999903    2    3    3    0    0 -0.47856851527E-01 -0.54514625785E-01 -0.10842749755E+00  0.13292460099E+00  0.25501071757E-01 0.  0.
         14    1    1    2    0    0  0.21155072796E-01  0.57644932746E-02  0.88567225204E-02  0.23647579613E-01  0.00000000000E+00 0.  1.
     999901    1    3    3    0    0  0.26701778731E-01  0.48750132511E-01  0.99570775029E-01  0.88735781940E+00  0.88000000000E+00 0.  1.
        -11    1    4    4    0    0 -0.43743603933E-01 -0.37342030786E-01 -0.69767000223E-01  0.90419166051E-01  0.51100000000E-03 0. -1.
         11    1    4    4    0    0 -0.41132475947E-02 -0.17172595000E-01 -0.38660497326E-01  0.42505434938E-01  0.51100000000E-03 0.  1.
</event>
<event>
 8    1  0.1132255E+005  0.1043930E+01  0.7957747E-01            NaN
         13   -1    0    0    0    0  0.00000000000E+00  0.00000000000E+00  0.74505805969E-08  0.10566000000E+00  0.10566000000E+00 0.  1.
     999900   -1    0    0    0    0 -0.00000000000E+00 -0.00000000000E+00 -0.74505805969E-08  0.93827000000E+00  0.93827000000E+00 0. -1.
     999902    2    1    2    0    0 -0.73898829232E-02  0.10217048330E-01 -0.23504926530E-01  0.10172564172E+01  0.10169066518E+01 0.  0.
     999903    2    3    3    0    0 -0.93717620432E-01  0.41176626062E-01 -0.79046739283E-01  0.13074873725E+00  0.19192143895E-01 0.  0.
         14    1    1    2    0    0  0.73898829232E-02 -0.10217048330E-01  0.23504926530E-01  0.26673582762E-01  0.00000000000E+00 0.  1.
     999901    1    3    3    0    0  0.86327737509E-01 -0.30959577732E-01  0.55541812753E-01  0.88650767999E+00  0.88000000000E+00 0.  1.
        -11    1    4    4    0    0 -0.29529407477E-01  0.41355932837E-02 -0.18948143833E-01  0.35332454111E-01  0.51100000000E-03 0. -1.
         11    1    4    4    0    0 -0.64188212955E-01  0.37041032779E-01 -0.60098595450E-01  0.95416283137E-01  0.51100000000E-03 0.  1.
</event>
<event>
 8    1  0.1132255E+005  0.1043930E+01  0.7957747E-01            NaN
         13   -1    0    0    0    0  0.00000000000E+00  0.00000000000E+00  0.74505805969E-08  0.10566000000E+00  0.10566000000E+00 0.  1.
     999900   -1    0    0    0    0 -0.00000000000E+00 -0.00000000000E+00 -0.74505805969E-08  0.93827000000E+00  0.93827000000E+00 0. -1.
     999902    2    1    2    0    0  0.12080749733E-01  0.15154519332E-01  0.24784583820E-02  0.10243916601E+01  0.10242053146E+01 0.  0.
     999903    2    3    3    0    0  0.12665710447E-01  0.99165168342E-01 -0.89299584946E-01  0.13563897202E+00  0.20721100968E-01 0.  0.
         14    1    1    2    0    0 -0.12080749733E-01 -0.15154519332E-01 -0.24784583820E-02  0.19538339904E-01  0.00000000000E+00 0.  1.
     999901    1    3    3    0    0 -0.58496071491E-03 -0.84010649011E-01  0.91778043328E-01  0.88875268808E+00  0.88000000000E+00 0.  1.
        -11    1    4    4    0    0  0.13096946458E-01  0.71184202052E-01 -0.52553635718E-01  0.89447562161E-01  0.51100000000E-03 0. -1.
         11    1    4    4    0    0 -0.43123601018E-03  0.27980966290E-01 -0.36745949228E-01  0.46191409858E-01  0.51100000000E-03 0.  1.
</event>
<event>
 8    1  0.1132255E+005  0.1043930E+01  0.7957747E-01            NaN
         13   -1    0    0    0    0  0.00000000000E+00  0.00000000000E+00  0.74505805969E-08  0.10566000000E+00  0.10566000000E+00 0.  1.
     999900   -1    0    0    0    0 -0.00000000000E+00 -0.00000000000E+00 -0.74505805969E-08  0.93827000000E+00  0.93827000000E+00 0. -1.
     999902    2    1    2    0    0 -0.21790068157E-01  0.72938106526E-02  0.55505775951E-02  0.10202907180E+01  0.10200168300E+01 0.  0.
     999903    2    3    3    0    0 -0.81833274633E-01 -0.99118730880E-01  0.20093018236E-01  0.13172991631E+00  0.20684144172E-01 0.  0.
         14    1    1    2    0    0  0.21790068157E-01 -0.72938106526E-02 -0.55505775951E-02  0.23639282048E-01  0.00000000000E+00 0. -1.
     999901    1    3    3    0    0  0.60043206476E-01  0.10641254153E+00 -0.14542440641E-01  0.88856080164E+00  0.88000000000E+00 0.  1.
        -11    1    4    4    0    0 -0.53229167200E-01 -0.78806660014E-01  0.14361042005E-01  0.96178659545E-01  0.51100000000E-03 0. -1.
         11    1    4    4    0    0 -0.28604107433E-01 -0.20312070866E-01  0.57319762307E-02  0.35551256763E-01  0.51100000000E-03 0.  1.
</event>
<event>
 8    1  0.1132255E+005  0.1043930E+01  0.7957747E-01            NaN
         13   -1    0    0    0    0  0.00000000000E+00  0.00000000000E+00  0.74505805969E-08  0.10566000000E+00  0.10566000000E+00 0.  1.
     999900   -1    0    0    0    0 -0.00000000000E+00 -0.00000000000E+00 -0.74505805969E-08  0.93827000000E+00  0.93827000000E+00 0.  1.
     999902    2    1    2    0    0  0.22352747123E-02 -0.15772435684E-01 -0.18442798800E-01  0.10195598747E+01  0.10192685785E+01 0.  0.
     999903    2    3    3    0    0  0.11234158114E+00 -0.59736996964E-01 -0.29305415591E-01  0.13154282653E+00  0.15986499572E-01 0.  0.
         14    1    1    2    0    0 -0.22352747123E-02  0.15772435684E-01  0.18442798800E-01  0.24370125318E-01  0.00000000000E+00 0.  1.
     999901    1    3    3    0    0 -0.11010630643E+00  0.43964561281E-01  0.10862616791E-01  0.88801704815E+00  0.88000000000E+00 0.  1.
        -11    1    4    4    0    0  0.63636706670E-01 -0.38447577166E-01 -0.23965991740E-01  0.78118349361E-01  0.51100000000E-03 0.  1.
         11    1    4    4    0    0  0.48704874473E-01 -0.21289419798E-01 -0.53394238509E-02  0.53424477170E-01  0.51100000000E-03 0. -1.
</event>
<event>
 8    1  0.1132255E+005  0.1043930E+01  0.7957747E-01            NaN
         13   -1    0    0    0    0  0.00000000000E+00  0.00000000000E+00  0.74505805969E-08  0.10566000000E+00  0.10566000000E+00 0. -1.
     999900   -1    0    0    0    0 -0.00000000000E+00 -0.00000000000E+00 -0.74505805969E-08  0.93827000000E+00  0.93827000000E+00 0.  1.
     999902    2    1    2    0    0  0.17847755327E-01  0.78816455070E-02 -0.14046543469E-01  0.10198890331E+01  0.10196056452E+01 0.  0.
     999903    2    3    3    0    0  0.97197267626E-01  0.19801837446E-01 -0.86772870655E-01  0.13325068814E+00  0.19667058979E-01 0.  0.
         14    1    1    2    0    0 -0.17847755327E-01 -0.78816455070E-02  0.14046543469E-01  0.24040966901E-01  0.00000000000E+00 0. -1.
     999901    1    3    3    0    0 -0.79349512299E-01 -0.11920191939E-01  0.72726327187E-01  0.88663834495E+00  0.88000000000E+00 0. -1.
        -11    1    4    4    0    0  0.51231166087E-01  0.36659274989E-02 -0.54043543275E-01  0.74558950461E-01  0.51100000000E-03 0.  1.
         11    1    4    4    0    0  0.45966101540E-01  0.16135909947E-01 -0.32729327380E-01  0.58691737684E-01  0.51100000000E-03 0. -1.
</event>
<event>
 8    1  0.1132255E+005  0.1043930E+01  0.7957747E-01            NaN
         13   -1    0    0    0    0  0.00000000000E+00  0.00000000000E+00  0.74505805969E-08  0.10566000000E+00  0.10566000000E+00 0.  1.
     999900   -1    0    0    0    0 -0.00000000000E+00 -0.00000000000E+00 -0.74505805969E-08  0.93827000000E+00  0.93827000000E+00 0. -1.
     999902    2    1    2    0    0  0.31557096310E-02  0.20023377703E-02  0.26825506091E-01  0.10168453985E+01  0.10164846230E+01 0.  0.
     999903    2    3    3    0    0 -0.85847912854E-01  0.22915845456E-01  0.92397128324E-01  0.12968213438E+00  0.19627188784E-01 0.  0.
         14    1    1    2    0    0 -0.31557096310E-02 -0.20023377703E-02 -0.26825506091E-01  0.27084601471E-01  0.00000000000E+00 0. -1.
     999901    1    3    3    0    0  0.89003622485E-01 -0.20913507686E-01 -0.65571622233E-01  0.88716326415E+00  0.88000000000E+00 0.  1.
        -11    1    4    4    0    0 -0.20433469420E-01  0.25677657315E-02  0.33549240147E-01  0.39369185016E-01  0.51100000000E-03 0. -1.
         11    1    4    4    0    0 -0.65414443434E-01  0.20348079724E-01  0.58847888176E-01  0.90312949360E-01  0.51100000000E-03 0.  1.
</event>
<event>
 8    1  0.1132255E+005  0.1043930E+01  0.7957747E-01            NaN
         13   -1    0    0    0    0  0.00000000000E+00  0.00000000000E+00  0.74505805969E-08  0.10566000000E+00  0.10566000000E+00 0.  1.
     999900   -1    0    0    0    0 -0.00000000000E+00 -0.00000000000E+00 -0.74505805969E-08  0.93827000000E+00  0.93827000000E+00 0.  1.
     999902    2    1    2    0    0 -0.17147406071E-01  0.73409816586E-02 -0.15053355285E-01  0.10199607061E+01  0.10196790254E+01 0.  0.
     999903    2    3    3    0    0 -0.41160462715E-01 -0.11084673728E+00 -0.52332617267E-01  0.13095299677E+00  0.20707527035E-01 0.  0.
         14    1    1    2    0    0  0.17147406071E-01 -0.73409816586E-02  0.15053355285E-01  0.23969293940E-01  0.00000000000E+00 0.  1.
     999901    1    3    3    0    0  0.24013056645E-01  0.11818771894E+00  0.37279261982E-01  0.88900770929E+00  0.88000000000E+00 0. -1.
        -11    1    4    4    0    0 -0.25762411145E-02 -0.32419387358E-01 -0.11725050349E-01  0.34574435955E-01  0.51100000000E-03 0.  1.
         11    1    4    4    0    0 -0.38584221601E-01 -0.78427349927E-01 -0.40607566918E-01  0.96378560817E-01  0.51100000000E-03 0. -1.
</event>
<event>
 8    1  0.1132255E+005  0.1043930E+01  0.7957747E-01            NaN
         13   -1    0    0    0    0  0.00000000000E+00  0.00000000000E+00  0.74505805969E-08  0.10566000000E+00  0.10566000000E+00 0.  1.
     999900   -1    0    0    0    0 -0.00000000000E+00 -0.00000000000E+00 -0.74505805969E-08  0.93827000000E+00  0.93827000000E+00 0.  1.
     999902    2    1    2    0    0  0.92478621191E-02  0.16806410323E-01  0.13830208036E-01  0.10202814686E+01  0.10200073638E+01 0.  0.
     999903    2    3    3    0    0 -0.26732290434E-01  0.12804058710E+00  0.57951043355E-02  0.13251338160E+00  0.20425615538E-01 0.  0.
         14    1    1    2    0    0 -0.92478621191E-02 -0.16806410323E-01 -0.13830208036E-01  0.23648531372E-01  0.00000000000E+00 0. -1.
     999901    1    3    3    0    0  0.35980152553E-01 -0.11123417678E+00  0.80351037009E-02  0.88776808703E+00  0.88000000000E+00 0.  1.
        -11    1    4    4    0    0 -0.13802084847E-01  0.73558714332E-01  0.13295108133E-01  0.76015807709E-01  0.51100000000E-03 0. -1.
         11    1    4    4    0    0 -0.12930205587E-01  0.54481872771E-01 -0.75000037979E-02  0.56497573887E-01  0.51100000000E-03 0.  1.
</event>
<event>
 8    1  0.1132255E+005  0.1043930E+01  0.7957747E-01            NaN
         13   -1    0    0    0    0  0.00000000000E+00  0.00000000000E+00  0.74505805969E-08  0.10566000000E+00  0.10566000000E+00 0.  1.
     999900   -1    0    0    0    0 -0.00000000000E+00 -0.00000000000E+00 -0.74505805969E-08  0.93827000000E+00  0.93827000000E+00 0. -1.
     999902    2    1    2    0    0 -0.96968684574E-02 -0.12109692826E-01 -0.17206028309E-01  0.10207627531E+01  0.10204998172E+01 0.  0.
     999903    2    3    3    0    0 -0.15566095865E-01  0.11955678585E+00  0.41714555043E-01  0.12899925051E+00  0.19093824792E-01 0.  0.
         14    1    1    2    0    0  0.96968684574E-02  0.12109692826E-01  0.17206028309E-01  0.23167246888E-01  0.00000000000E+00 0.  1.
     999901    1    3    3    0    0  0.58692274080E-02 -0.13166647868E+00 -0.58920583352E-01  0.89176350261E+00  0.88000000000E+00 0. -1.
        -11    1    4    4    0    0 -0.60439002056E-03  0.27206973088E-01  0.17507462623E-01  0.32362896045E-01  0.51100000000E-03 0.  1.
         11    1    4    4    0    0 -0.14961705845E-01  0.92349812762E-01  0.24207092420E-01  0.96636354461E-01  0.51100000000E-03 0. -1.
</event>
<event>
 8    1  0.1132255E+005  0.1043930E+01  0.7957747E-01            NaN
         13   -1    0    0    0    0  0.00000000000E+00  0.00000000000E+00  0.74505805969E-08  0.10566000000E+00  0.10566000000E+00 0.  1.
     999900   -1    0    0    0    0 -0.00000000000E+00 -0.00000000000E+00 -0.74505805969E-08  0.93827000000E+00  0.93827000000E+00 0.  1.
     999902    2    1    2    0    0  0.22360922247E-02 -0.51413810139E-02  0.15952020231E-01  0.10270213970E+01  0.10268821982E+01 0.  0.
     999903    2    3    3    0    0  0.78653955891E-01  0.10640951775E+00  0.28550834475E-01  0.13660462768E+00  0.18336954744E-01 0.  0.
         14    1    1    2    0    0 -0.22360922247E-02  0.51413810139E-02 -0.15952020231E-01  0.16908603035E-01  0.00000000000E+00 0. -1.
     999901    1    3    3    0    0 -0.76417863666E-01 -0.11155089876E+00 -0.12598814244E-01  0.89041676928E+00  0.88000000000E+00 0. -1.
        -11    1    4    4    0    0  0.16049678159E-01  0.33213165755E-01  0.33451867864E-02  0.37042650339E-01  0.51100000000E-03 0. -1.
         11    1    4    4    0    0  0.62604277732E-01  0.73196351996E-01  0.25205647688E-01  0.99561977342E-01  0.51100000000E-03 0.  1.
</event>
<event>
 8    1  0.1132255E+005  0.1043930E+01  0.7957747E-01            NaN
         13   -1    0    0    0    0  0.00000000000E+00  0.00000000000E+00  0.74505805969E-08  0.10566000000E+00  0.10566000000E+00 0.  1.
     999900   -1    0    0    0    0 -0.00000000000E+00 -0.00000000000E+00 -0.74505805969E-08  0.93827000000E+00  0.93827000000E+00 0. -1.
     999902    2    1    2    0    0  0.16693630532E-01 -0.80391675028E-02  0.50675156133E-02  0.10247210118E+01  0.10245409541E+01 0.  0.
     999903    2    3    3    0    0 -0.13823181857E-01  0.18504493427E-01  0.13120262223E+00  0.13480758514E+00  0.20626688950E-01 0.  0.
         14    1    1    2    0    0 -0.16693630532E-01  0.80391675028E-02 -0.50675156133E-02  0.19208988234E-01  0.00000000000E+00 0. -1.
     999901    1    3    3    0    0  0.30516812389E-01 -0.26543660930E-01 -0.12613510662E+00  0.88991342663E+00  0.88000000000E+00 0. -1.
        -11    1    4    4    0    0 -0.13851155377E-01  0.19660123936E-01  0.78801336987E-01  0.82391060258E-01  0.51100000000E-03 0.  1.
         11    1    4    4    0    0  0.27973519754E-04 -0.11556305096E-02  0.52401285242E-01  0.52416524879E-01  0.51100000000E-03 0. -1.
</event>
<event>
 8    1  0.1132255E+005  0.1043930E+01  0.7957747E-01            NaN
         13   -1    0    0    0    0  0.00000000000E+00  0.00000000000E+00  0.74505805969E-08  0.10566000000E+00  0.10566000000E+00 0. -1.
     999900   -1    0    0    0    0 -0.00000000000E+00 -0.00000000000E+00 -0.74505805969E-08  0.93827000000E+00  0.93827000000E+00 0. -1.
     999902    2    1    2    0    0 -0.17630067648E-01  0.13814299507E-01 -0.77827509387E-02  0.10202187080E+01  0.10199431292E+01 0.  0.
     999903    2    3    3    0    0 -0.11963652458E+00  0.47641405065E-01  0.24804407068E-01  0.13308201436E+00  0.22648674286E-01 0.  0.
         14    1    1    2    0    0  0.17630067648E-01 -0.13814299507E-01  0.77827509387E-02  0.23711292001E-01  0.00000000000E+00 0.  1.
     999901    1    3    3    0    0  0.10200645693E+00 -0.33827105558E-01 -0.32587158007E-01  0.88713669363E+00  0.88000000000E+00 0.  1.
        -11    1    4    4    0    0 -0.34105393264E-01  0.24731214398E-01  0.10045868295E-01  0.43312716448E-01  0.51100000000E-03 0.  1.
         11    1    4    4    0    0 -0.85531131317E-01  0.22910190668E-01  0.14758538773E-01  0.89769297917E-01  0.51100000000E-03 0. -1.
</event>
<event>
 7    1  0.1132255E+005  0.1043930E+01  0.7957747E-01            NaN
         13   -1    0    0    0    0  0.00000000000E+00  0.00000000000E+00  0.74505805969E-08  0.10566000000E+00  0.10566000000E+00 0. -1.
     999900   -1    0    0    0    0 -0.00000000000E+00 -0.00000000000E+00 -0.74505805969E-08  0.93827000000E+00  0.93827000000E+00 0. -1.
     999903    2    1    2    0    0 -0.12512540008E-01 -0.20585026914E-01 -0.68714606391E-02  0.32483205978E-01  0.20679330472E-01 0.  0.
         14    1    1    2    0    0 -0.64730504266E-01  0.10318192112E+00  0.23513541610E-01  0.12405415619E+00  0.00000000000E+00 0. -1.
     999901    1    1    2    0    0  0.77243044274E-01 -0.82596894207E-01 -0.16642080971E-01  0.88739263783E+00  0.88000000000E+00 0.  1.
        -11    1    3    3    0    0  0.30453207230E-02 -0.78438145261E-02 -0.89083028458E-02  0.12264517325E-01  0.51100000000E-03 0. -1.
         11    1    3    3    0    0 -0.15557860731E-01 -0.12741212388E-01  0.20368422067E-02  0.20218688652E-01  0.51100000000E-03 0.  1.
</event>
<event>
 8    1  0.1132255E+005  0.1043930E+01  0.7957747E-01            NaN
         13   -1    0    0    0    0  0.00000000000E+00  0.00000000000E+00  0.74505805969E-08  0.10566000000E+00  0.10566000000E+00 0.  1.
     999900   -1    0    0    0    0 -0.00000000000E+00 -0.00000000000E+00 -0.74505805969E-08  0.93827000000E+00  0.93827000000E+00 0. -1.
     999902    2    1    2    0    0 -0.12598298398E-01 -0.93555028859E-02 -0.15924031455E-01  0.10215734051E+01  0.10213287447E+01 0.  0.
     999903    2    3    3    0    0  0.12822036314E-01 -0.32272241971E-01 -0.12756558211E+00  0.13385993436E+00  0.20966689510E-01 0.  0.
         14    1    1    2    0    0  0.12598298398E-01  0.93555028859E-02  0.15924031455E-01  0.22356594878E-01  0.00000000000E+00 0.  1.
     999901    1    3    3    0    0 -0.25420334712E-01  0.22916739086E-01  0.11164155066E+00  0.88771347077E+00  0.88000000000E+00 0.  1.
        -11    1    4    4    0    0  0.91091656361E-02 -0.32198370967E-01 -0.88521236372E-01  0.94636052334E-01  0.51100000000E-03 0. -1.
         11    1    4    4    0    0  0.37128706775E-02 -0.73871004546E-04 -0.39044345739E-01  0.39223882021E-01  0.51100000000E-03 0.  1.
</event>
<event>
 8    1  0.1132255E+005  0.1043930E+01  0.7957747E-01            NaN
         13   -1    0    0    0    0  0.00000000000E+00  0.00000000000E+00  0.74505805969E-08  0.10566000000E+00  0.10566000000E+00 0.  1.
     999900   -1    0    0    0    0 -0.00000000000E+00 -0.00000000000E+00 -0.74505805969E-08  0.93827000000E+00  0.93827000000E+00 0.  1.
     999902    2    1    2    0    0 -0.12352411961E-01  0.74985847176E-02 -0.17274691062E-01  0.10214083259E+01  0.10211599984E+01 0.  0.
     999903    2    3    3    0    0 -0.11393918417E+00  0.67521563318E-01 -0.28017029046E-03  0.13337035147E+00  0.15693086208E-01 0.  0.
         14    1    1    2    0    0  0.12352411961E-01 -0.74985847176E-02  0.17274691062E-01  0.22521674123E-01  0.00000000000E+00 0.  1.
     999901    1    3    3    0    0  0.10158677221E+00 -0.60022978601E-01 -0.16994520772E-01  0.88803797440E+00  0.88000000000E+00 0. -1.
        -11    1    4    4    0    0 -0.96991856055E-01  0.52276805977E-01 -0.40573540742E-02  0.11025882199E+00  0.51100000000E-03 0. -1.
         11    1    4    4    0    0 -0.16947328113E-01  0.15244757341E-01  0.37771837837E-02  0.23111529480E-01  0.51100000000E-03 0.  1.
</event>
<event>
 8    1  0.1132255E+005  0.1043930E+01  0.7957747E-01            NaN
         13   -1    0    0    0    0  0.00000000000E+00  0.00000000000E+00  0.74505805969E-08  0.10566000000E+00  0.10566000000E+00 0. -1.
     999900   -1    0    0    0    0 -0.00000000000E+00 -0.00000000000E+00 -0.74505805969E-08  0.93827000000E+00  0.93827000000E+00 0.  1.
     999902    2    1    2    0    0  0.28655684607E-02  0.16314965310E-01 -0.17357941703E-01  0.10199365068E+01  0.10196542503E+01 0.  0.
     999903    2    3    3    0    0 -0.12106819661E+00  0.31904242739E-01 -0.31561995083E-01  0.13100211168E+00  0.22136051977E-01 0.  0.
         14    1    1    2    0    0 -0.28655684607E-02 -0.16314965310E-01  0.17357941703E-01  0.23993493198E-01  0.00000000000E+00 0.  1.
     999901    1    3    3    0    0  0.12393376507E+00 -0.15589277430E-01  0.14204053380E-01  0.88893439512E+00  0.88000000000E+00 0. -1.
        -11    1    4    4    0    0 -0.58680254022E-01  0.25954638888E-01 -0.11438460354E-01  0.65177565068E-01  0.51100000000E-03 0. -1.
         11    1    4    4    0    0 -0.62387942585E-01  0.59496038512E-02 -0.20123534730E-01  0.65824546615E-01  0.51100000000E-03 0.  1.
</event>
<event>
 8    1  0.1132255E+005  0.1043930E+01  0.7957747E-01            NaN
         13   -1    0    0    0    0  0.00000000000E+00  0.00000000000E+00  0.74505805969E-08  0.10566000000E+00  0.10566000000E+00 0.  1.
     999900   -1    0    0    0    0 -0.00000000000E+00 -0.00000000000E+00 -0.74505805969E-08  0.93827000000E+00  0.93827000000E+00 0.  1.
     999902    2    1    2    0    0  0.17890140838E-01 -0.14432557635E-01  0.18824411273E-02  0.10208670547E+01  0.10206065079E+01 0.  0.
     999903    2    3    3    0    0 -0.11976243580E+00 -0.28444602087E-02  0.41084517333E-01  0.12922849645E+00  0.25708651253E-01 0.  0.
         14    1    1    2    0    0 -0.17890140838E-01  0.14432557635E-01 -0.18824411273E-02  0.23062945252E-01  0.00000000000E+00 0. -1.
     999901    1    3    3    0    0  0.13765257664E+00 -0.11588097427E-01 -0.39202076205E-01  0.89163855829E+00  0.88000000000E+00 0.  1.
        -11    1    4    4    0    0 -0.28456483535E-01  0.55782757590E-02  0.63896355585E-03  0.29009619285E-01  0.51100000000E-03 0.  1.
         11    1    4    4    0    0 -0.91305952263E-01 -0.84227359677E-02  0.40445553777E-01  0.10021887717E+00  0.51100000000E-03 0. -1.
</event>
<event>
 8    1  0.1132255E+005  0.1043930E+01  0.7957747E-01            NaN
         13   -1    0    0    0    0  0.00000000000E+00  0.00000000000E+00  0.74505805969E-08  0.10566000000E+00  0.10566000000E+00 0.  1.
     999900   -1    0    0    0    0 -0.00000000000E+00 -0.00000000000E+00 -0.74505805969E-08  0.93827000000E+00  0.93827000000E+00 0.  1.
     999902    2    1    2    0    0 -0.56127514588E-02  0.19727994531E-01  0.11574115604E-01  0.10203788451E+01  0.10201070192E+01 0.  0.
     999903    2    3    3    0    0 -0.11977509330E+00  0.41816859431E-01 -0.27868967447E-01  0.13185382287E+00  0.22672197767E-01 0.  0.
         14    1    1    2    0    0  0.56127514588E-02 -0.19727994531E-01 -0.11574115604E-01  0.23551154944E-01  0.00000000000E+00 0. -1.
     999901    1    3    3    0    0  0.11416234184E+00 -0.22088864900E-01  0.39443083051E-01  0.88852502218E+00  0.88000000000E+00 0. -1.
        -11    1    4    4    0    0 -0.79855978761E-01  0.23197864267E-01 -0.80418521940E-02  0.83546698069E-01  0.51100000000E-03 0. -1.
         11    1    4    4    0    0 -0.39919114539E-01  0.18618995164E-01 -0.19827115253E-01  0.48307124803E-01  0.51100000000E-03 0.  1.
</event>
<event>
 8    1  0.1132255E+005  0.1043930E+01  0.7957747E-01            NaN
         13   -1    0    0    0    0  0.00000000000E+00  0.00000000000E+00  0.74505805969E-08  0.10566000000E+00  0.10566000000E+00 0.  1.
     999900   -1    0    0    0    0 -0.00000000000E+00 -0.00000000000E+00 -0.74505805969E-08  0.93827000000E+00  0.93827000000E+00 0.  1.
     999902    2    1    2    0    0  0.99169272417E-02  0.13887665976E-01 -0.15003865273E-01  0.10212071330E+01  0.10209542986E+01 0.  0.
     999903    2    3    3    0    0  0.10134737129E+00  0.84652362191E-01 -0.78477326939E-02  0.13361579765E+00  0.18822390421E-01 0.  0.
         14    1    1    2    0    0 -0.99169272417E-02 -0.13887665976E-01  0.15003865273E-01  0.22722867013E-01  0.00000000000E+00 0. -1.
     999901    1    3    3    0    0 -0.91430444050E-01 -0.70764696214E-01 -0.71561325787E-02  0.88759133534E+00  0.88000000000E+00 0. -1.
        -11    1    4    4    0    0  0.71515236545E-01  0.63663889798E-01 -0.13519527236E-01  0.96698286748E-01  0.51100000000E-03 0. -1.
         11    1    4    4    0    0  0.29832134747E-01  0.20988472393E-01  0.56717945419E-02  0.36917510903E-01  0.51100000000E-03 0.  1.
</event>
<event>
 8    1  0.1132255E+005  0.1043930E+01  0.7957747E-01            NaN
         13   -1    0    0    0    0  0.00000000000E+00  0.00000000000E+00  0.74505805969E-08  0.10566000000E+00  0.10566000000E+00 0.  1.
     999900   -1    0    0    0    0 -0.00000000000E+00 -0.00000000000E+00 -0.74505805969E-08  0.93827000000E+00  0.93827000000E+00 0.  1.
     999902    2    1    2    0    0  0.16799686979E-01 -0.16426919525E-01 -0.70960670267E-02  0.10193856048E+01  0.10190900765E+01 0.  0.
     999903    2    3    3    0    0 -0.91826246627E-01  0.72802076637E-01 -0.45877147129E-01  0.12738483162E+00  0.19747930678E-01 0.  0.
         14    1    1    2    0    0 -0.16799686979E-01  0.16426919525E-01  0.70960670267E-02  0.24544395184E-01  0.00000000000E+00 0.  1.
     999901    1    3    3    0    0  0.10862593361E+00 -0.89228996162E-01  0.38781080102E-01  0.89200077320E+00  0.88000000000E+00 0. -1.
        -11    1    4    4    0    0 -0.28844478319E-01  0.20265687638E-01 -0.23495074432E-01  0.42367223989E-01  0.51100000000E-03 0.  1.
         11    1    4    4    0    0 -0.62981768308E-01  0.52536388999E-01 -0.22382072697E-01  0.85017607632E-01  0.51100000000E-03 0. -1.
</event>
<event>
 8    1  0.1132255E+005  0.1043930E+01  0.7957747E-01            NaN
         13   -1    0    0    0    0  0.00000000000E+00  0.00000000000E+00  0.74505805969E-08  0.10566000000E+00  0.10566000000E+00 0. -1.
     999900   -1    0    0    0    0 -0.00000000000E+00 -0.00000000000E+00 -0.74505805969E-08  0.93827000000E+00  0.93827000000E+00 0.  1.
     999902    2    1    2    0    0 -0.85883551580E-02 -0.97440684985E-02 -0.20081661394E-01  0.10200139000E+01  0.10197334830E+01 0.  0.
     999903    2    3    3    0    0  0.34940046152E-01  0.44352231863E-01 -0.11755753215E+00  0.13191329938E+00  0.19834764713E-01 0.  0.
         14    1    1    2    0    0  0.85883551580E-02  0.97440684985E-02  0.20081661394E-01  0.23916100007E-01  0.00000000000E+00 0. -1.
     999901    1    3    3    0    0 -0.43528401310E-01 -0.54096300361E-01  0.97475870756E-01  0.88810060062E+00  0.88000000000E+00 0. -1.
        -11    1    4    4    0    0  0.13251244323E-01  0.27624997827E-01 -0.45812646355E-01  0.55116201503E-01  0.51100000000E-03 0.  1.
         11    1    4    4    0    0  0.21688801829E-01  0.16727234036E-01 -0.71744885795E-01  0.76797097875E-01  0.51100000000E-03 0. -1.
</event>
<event>
 8    1  0.1132255E+005  0.1043930E+01  0.7957747E-01            NaN
         13   -1    0    0    0    0  0.00000000000E+00  0.00000000000E+00  0.74505805969E-08  0.10566000000E+00  0.10566000000E+00 0.  1.
     999900   -1    0    0    0    0 -0.00000000000E+00 -0.00000000000E+00 -0.74505805969E-08  0.93827000000E+00  0.93827000000E+00 0. -1.
     999902    2    1    2    0    0 -0.13043484990E-01  0.16931279336E-01  0.96317278093E-02  0.10204870714E+01  0.10202177669E+01 0.  0.
     999903    2    3    3    0    0 -0.26544946551E-02  0.44420244085E-01 -0.12067882409E+00  0.13040594351E+00  0.21497141490E-01 0.  0.
         14    1    1    2    0    0  0.13043484990E-01 -0.16931279336E-01 -0.96317278093E-02  0.23442928597E-01  0.00000000000E+00 0. -1.
     999901    1    3    3    0    0 -0.10388990335E-01 -0.27488964749E-01  0.13031055190E+00  0.89008112790E+00  0.88000000000E+00 0.  1.
        -11    1    4    4    0    0 -0.97493470824E-02  0.26975749704E-01 -0.89418506524E-01  0.93907780671E-01  0.51100000000E-03 0. -1.
         11    1    4    4    0    0  0.70948524274E-02  0.17444494381E-01 -0.31260317562E-01  0.36498162834E-01  0.51100000000E-03 0.  1.
</event>
<event>
 8    1  0.1132255E+005  0.1043930E+01  0.7957747E-01            NaN
         13   -1    0    0    0    0  0.00000000000E+00  0.00000000000E+00  0.74505805969E-08  0.10566000000E+00  0.10566000000E+00 0.  1.
     999900   -1    0    0    0    0 -0.00000000000E+00 -0.00000000000E+00 -0.74505805969E-08  0.93827000000E+00  0.93827000000E+00 0.  1.
     999902    2    1    2    0    0  0.23629897313E-02  0.15093621779E-01  0.18387641476E-01  0.10200237979E+01  0.10197436157E+01 0.  0.
     999903    2    3    3    0    0  0.91432137387E-01  0.80748858555E-01 -0.43138961888E-01  0.13096280670E+00  0.20250254363E-01 0.  0.
         14    1    1    2    0    0 -0.23629897313E-02 -0.15093621779E-01 -0.18387641476E-01  0.23906202081E-01  0.00000000000E+00 0. -1.
     999901    1    3    3    0    0 -0.89069147656E-01 -0.65655236776E-01  0.61526603364E-01  0.88906099122E+00  0.88000000000E+00 0.  1.
        -11    1    4    4    0    0  0.81713908441E-01  0.62561162445E-01 -0.33828753420E-01  0.10833147077E+00  0.51100000000E-03 0.  1.
         11    1    4    4    0    0  0.97182289460E-02  0.18187696110E-01 -0.93102084678E-02  0.22631335938E-01  0.51100000000E-03 0. -1.
</event>
<event>
 8    1  0.1132255E+005  0.1043930E+01  0.7957747E-01            NaN
         13   -1    0    0    0    0  0.00000000000E+00  0.00000000000E+00  0.74505805969E-08  0.10566000000E+00  0.10566000000E+00 0. -1.
     999900   -1    0    0    0    0 -0.00000000000E+00 -0.00000000000E+00 -0.74505805969E-08  0.93827000000E+00  0.93827000000E+00 0.  1.
     999902    2    1    2    0    0  0.12621710629E-01  0.18619127013E-01 -0.93150358948E-02  0.10195835554E+01  0.10192928319E+01 0.  0.
     999903    2    3    3    0    0 -0.73107997789E-01 -0.36673203820E-01 -0.98179874837E-01  0.12924441534E+00  0.19368217658E-01 0.  0.
         14    1    1    2    0    0 -0.12621710629E-01 -0.18619127013E-01  0.93150358948E-02  0.24346444579E-01  0.00000000000E+00 0. -1.
     999901    1    3    3    0    0  0.85729708418E-01  0.55292330833E-01  0.88864838943E-01  0.89033914008E+00  0.88000000000E+00 0. -1.
        -11    1    4    4    0    0 -0.17879609060E-01 -0.20794956668E-02 -0.14133917749E-01  0.22891777438E-01  0.51100000000E-03 0. -1.
         11    1    4    4    0    0 -0.55228388729E-01 -0.34593708153E-01 -0.84045957089E-01  0.10635263790E+00  0.51100000000E-03 0.  1.
</event>
<event>
 8    1  0.1132255E+005  0.1043930E+01  0.7957747E-01            NaN
         13   -1    0    0    0    0  0.00000000000E+00  0.00000000000E+00  0.74505805969E-08  0.10566000000E+00  0.10566000000E+00 0.  1.
     999900   -1    0    0    0    0 -0.00000000000E+00 -0.00000000000E+00 -0.74505805969E-08  0.93827000000E+00  0.93827000000E+00 0.  1.
     999902    2    1    2    0    0 -0.50847977115E-02  0.16747491021E-01 -0.16180430507E-01  0.10200943134E+01  0.10198158012E+01 0.  0.
     999903    2    3    3    0    0 -0.90205500920E-01 -0.31327860823E-01 -0.86118808653E-01  0.13192307413E+00  0.29475091581E-01 0.  0.
         14    1    1    2    0    0  0.50847977115E-02 -0.16747491021E-01  0.16180430507E-01  0.23835686578E-01  0.00000000000E+00 0.  1.
     999901    1    3    3    0    0  0.85120703209E-01  0.48075351844E-01  0.69938378147E-01  0.88817123929E+00  0.88000000000E+00 0. -1.
        -11    1    4    4    0    0 -0.26907973039E-01 -0.20909430005E-01 -0.41891145060E-01  0.54003448331E-01  0.51100000000E-03 0.  1.
         11    1    4    4    0    0 -0.63297527881E-01 -0.10418430818E-01 -0.44227663594E-01  0.77919625798E-01  0.51100000000E-03 0. -1.
</event>
<event>
 8    1  0.1132255E+005  0.1043930E+01  0.7957747E-01            NaN
         13   -1    0    0    0    0  0.00000000000E+00  0.00000000000E+00  0.74505805969E-08  0.10566000000E+00  0.10566000000E+00 0.  1.
     999900   -1    0    0    0    0 -0.00000000000E+00 -0.00000000000E+00 -0.74505805969E-08  0.93827000000E+00  0.93827000000E+00 0.  1.
     999902    2    1    2    0    0 -0.37548986227E-02 -0.21595606362E-01 -0.76009276747E-02  0.10207299229E+01  0.10204662326E+01 0.  0.
     999903    2    3    3    0    0 -0.12147164177E+00  0.41334278232E-01 -0.15541279491E-01  0.13062855157E+00  0.18931582170E-01 0.  0.
         14    1    1    2    0    0  0.37548986227E-02  0.21595606362E-01  0.76009276747E-02  0.23200077140E-01  0.00000000000E+00 0. -1.
     999901    1    3    3    0    0  0.11771674315E+00 -0.62929884593E-01  0.79403518168E-02  0.89010137129E+00  0.88000000000E+00 0. -1.
        -11    1    4    4    0    0 -0.76387027724E-01  0.16949943855E-01 -0.12888329091E-01  0.79301000933E-01  0.51100000000E-03 0. -1.
         11    1    4    4    0    0 -0.45084614051E-01  0.24384334377E-01 -0.26529504001E-02  0.51327550633E-01  0.51100000000E-03 0.  1.
</event>
<event>
 8    1  0.1132255E+005  0.1043930E+01  0.7957747E-01            NaN
         13   -1    0    0    0    0  0.00000000000E+00  0.00000000000E+00  0.74505805969E-08  0.10566000000E+00  0.10566000000E+00 0.  1.
     999900   -1    0    0    0    0 -0.00000000000E+00 -0.00000000000E+00 -0.74505805969E-08  0.93827000000E+00  0.93827000000E+00 0.  1.
     999902    2    1    2    0    0  0.14471848637E-01  0.53509579890E-02  0.16225762676E-01  0.10215393205E+01  0.10212939052E+01 0.  0.
     999903    2    3    3    0    0  0.79289208722E-01  0.99045758563E-01 -0.34553934734E-01  0.13274317767E+00  0.18164137856E-01 0.  0.
         14    1    1    2    0    0 -0.14471848637E-01 -0.53509579890E-02 -0.16225762676E-01  0.22390679507E-01  0.00000000000E+00 0. -1.
     999901    1    3    3    0    0 -0.64817360085E-01 -0.93694800574E-01  0.50779697410E-01  0.88879614282E+00  0.88000000000E+00 0. -1.
        -11    1    4    4    0    0  0.48536466507E-01  0.67770712889E-01 -0.30203200502E-01  0.88663140865E-01  0.51100000000E-03 0. -1.
         11    1    4    4    0    0  0.30752742215E-01  0.31275045674E-01 -0.43507342320E-02  0.44080036808E-01  0.51100000000E-03 0.  1.
</event>
<event>
 8    1  0.1132255E+005  0.1043930E+01  0.7957747E-01            NaN
         13   -1    0    0    0    0  0.00000000000E+00  0.00000000000E+00  0.74505805969E-08  0.10566000000E+00  0.10566000000E+00 0.  1.
     999900   -1    0    0    0    0 -0.00000000000E+00 -0.00000000000E+00 -0.74505805969E-08  0.93827000000E+00  0.93827000000E+00 0. -1.
     999902    2    1    2    0    0 -0.86075990156E-02 -0.23666114054E-01 -0.64967437039E-02  0.10179226281E+01  0.10175903367E+01 0.  0.
     999903    2    3    3    0    0  0.84846305053E-01 -0.29449796557E-01 -0.90411944993E-01  0.12898571009E+00  0.19920030398E-01 0.  0.
         14    1    1    2    0    0  0.86075990156E-02  0.23666114054E-01  0.64967437039E-02  0.26007371916E-01  0.00000000000E+00 0.  1.
     999901    1    3    3    0    0 -0.93453904069E-01  0.57836825026E-02  0.83915201289E-01  0.88893691800E+00  0.88000000000E+00 0.  1.
        -11    1    4    4    0    0  0.14460072104E-01  0.18284220270E-02 -0.10319346699E-01  0.17865801120E-01  0.51100000000E-03 0.  1.
         11    1    4    4    0    0  0.70386232949E-01 -0.31278218584E-01 -0.80092598294E-01  0.11111990897E+00  0.51100000000E-03 0. -1.
</event>
<event>
 8    1  0.1132255E+005  0.1043930E+01  0.7957747E-01            NaN
         13   -1    0    0    0    0  0.00000000000E+00  0.00000000000E+00  0.74505805969E-08  0.10566000000E+00  0.10566000000E+00 0.  1.
     999900   -1    0    0    0    0 -0.00000000000E+00 -0.00000000000E+00 -0.74505805969E-08  0.93827000000E+00  0.93827000000E+00 0. -1.
     999902    2    1    2    0    0  0.16509830351E-01 -0.15245380451E-01  0.10043811021E-01  0.10193154867E+01  0.10190182468E+01 0.  0.
     999903    2    3    3    0    0  0.55629081054E-01 -0.11501894148E+00  0.29086498092E-01  0.13260938933E+00  0.20378277856E-01 0.  0.
         14    1    1    2    0    0 -0.16509830351E-01  0.15245380451E-01 -0.10043811021E-01  0.24614513262E-01  0.00000000000E+00 0. -1.
     999901    1    3    3    0    0 -0.39119250702E-01  0.99773561028E-01 -0.19042687071E-01  0.88670609741E+00  0.88000000000E+00 0.  1.
        -11    1    4    4    0    0  0.41761221814E-01 -0.67011964577E-01  0.12426524798E-01  0.79932988706E-01  0.51100000000E-03 0. -1.
         11    1    4    4    0    0  0.13867859239E-01 -0.48006976902E-01  0.16659973294E-01  0.52676400620E-01  0.51100000000E-03 0.  1.
</event>
<event>
 8    1  0.1132255E+005  0.1043930E+01  0.7957747E-01            NaN
         13   -1    0    0    0    0  0.00000000000E+00  0.00000000000E+00  0.74505805969E-08  0.10566000000E+00  0.10566000000E+00 0.  1.
     999900   -1    0    0    0    0 -0.00000000000E+00 -0.00000000000E+00 -0.74505805969E-08  0.93827000000E+00  0.93827000000E+00 0.  1.
     999902    2    1    2    0    0 -0.51682354530E-02  0.14726289992E-01 -0.17512454626E-01  0.10204723714E+01  0.10202027251E+01 0.  0.
     999903    2    3    3    0    0  0.86136762933E-01  0.59550668156E-01 -0.78665799127E-01  0.13250527785E+00  0.20087725076E-01 0.  0.
         14    1    1    2    0    0  0.51682354530E-02 -0.14726289992E-01  0.17512454626E-01  0.23457628645E-01  0.00000000000E+00 0.  1.
     999901    1    3    3    0    0 -0.91304998386E-01 -0.44824378164E-01  0.61153344501E-01  0.88796709351E+00  0.88000000000E+00 0. -1.
        -11    1    4    4    0    0  0.56879355036E-01  0.31226293222E-01 -0.57035371194E-01  0.86392344024E-01  0.51100000000E-03 0.  1.
         11    1    4    4    0    0  0.29257407897E-01  0.28324374934E-01 -0.21630427933E-01  0.46112933824E-01  0.51100000000E-03 0. -1.
</event>
<event>
 8    1  0.1132255E+005  0.1043930E+01  0.7957747E-01            NaN
         13   -1    0    0    0    0  0.00000000000E+00  0.00000000000E+00  0.74505805969E-08  0.10566000000E+00  0.10566000000E+00 0.  1.
     999900   -1    0    0    0    0 -0.00000000000E+00 -0.00000000000E+00 -0.74505805969E-08  0.93827000000E+00  0.93827000000E+00 0. -1.
     999902    2    1    2    0    0 -0.23331405369E-02 -0.49747524831E-02 -0.23645946572E-01  0.10196540346E+01  0.10193650120E+01 0.  0.
     999903    2    3    3    0    0 -0.85749780326E-01  0.84264834419E-02  0.92558041426E-01  0.12800315239E+00  0.19844030315E-01 0.  0.
         14    1    1    2    0    0  0.23331405369E-02  0.49747524831E-02  0.23645946572E-01  0.24275965405E-01  0.00000000000E+00 0. -1.
     999901    1    3    3    0    0  0.83416639789E-01 -0.13401235925E-01 -0.11620398800E+00  0.89165088221E+00  0.88000000000E+00 0. -1.
        -11    1    4    4    0    0 -0.20606394153E-01  0.75872973286E-02  0.14456203325E-01  0.26295123052E-01  0.51100000000E-03 0.  1.
         11    1    4    4    0    0 -0.65143386173E-01  0.83918611326E-03  0.78101838100E-01  0.10170802933E+00  0.51100000000E-03 0. -1.
</event>
<event>
 8    1  0.1132255E+005  0.1043930E+01  0.7957747E-01            NaN
         13   -1    0    0    0    0  0.00000000000E+00  0.00000000000E+00  0.74505805969E-08  0.10566000000E+00  0.10566000000E+00 0.  1.
     999900   -1    0    0    0    0 -0.00000000000E+00 -0.00000000000E+00 -0.74505805969E-08  0.93827000000E+00  0.93827000000E+00 0. -1.
     999902    2    1    2    0    0  0.29081589705E-02  0.13046782378E-01 -0.20015355346E-01  0.10198615483E+01  0.10195775043E+01 0.  0.
     999903    2    3    3    0    0 -0.97846607690E-01 -0.72704585023E-01 -0.39212837215E-01  0.12976415847E+00  0.21004163911E-01 0.  0.
         14    1    1    2    0    0 -0.29081589705E-02 -0.13046782378E-01  0.20015355346E-01  0.24068451729E-01  0.00000000000E+00 0.  1.
     999901    1    3    3    0    0  0.10075476666E+00  0.85751367401E-01  0.19197481869E-01  0.89009738980E+00  0.88000000000E+00 0.  1.
        -11    1    4    4    0    0 -0.17534294580E-01 -0.16479127066E-01 -0.16345109254E-01  0.29093587486E-01  0.51100000000E-03 0. -1.
         11    1    4    4    0    0 -0.80312313110E-01 -0.56225457957E-01 -0.22867727962E-01  0.10067057099E+00  0.51100000000E-03 0.  1.
</event>
<event>
 8    1  0.1132255E+005  0.1043930E+01  0.7957747E-01            NaN
         13   -1    0    0    0    0  0.00000000000E+00  0.00000000000E+00  0.74505805969E-08  0.10566000000E+00  0.10566000000E+00 0. -1.
     999900   -1    0    0    0    0 -0.00000000000E+00 -0.00000000000E+00 -0.74505805969E-08  0.93827000000E+00  0.93827000000E+00 0. -1.
     999902    2    1    2    0    0 -0.16957628569E-01  0.58756208843E-02 -0.15394193800E-01  0.10202854385E+01  0.10200114267E+01 0.  0.
     999903    2    3    3    0    0 -0.89591944513E-01  0.82078560950E-01 -0.51103168408E-01  0.13329177288E+00  0.19787779199E-01 0.  0.
         14    1    1    2    0    0  0.16957628569E-01 -0.58756208843E-02  0.15394193800E-01  0.23644561536E-01  0.00000000000E+00 0.  1.
     999901    1    3    3    0    0  0.72634315944E-01 -0.76202940066E-01  0.35708974608E-01  0.88699366559E+00  0.88000000000E+00 0.  1.
        -11    1    4    4    0    0 -0.14295178313E-01  0.20934264120E-01 -0.16763303470E-01  0.30395147663E-01  0.51100000000E-03 0.  1.
         11    1    4    4    0    0 -0.75296766200E-01  0.61144296830E-01 -0.34339864938E-01  0.10289662521E+00  0.51100000000E-03 0. -1.
</event>
<event>
 8    1  0.1132255E+005  0.1043930E+01  0.7957747E-01            NaN
         13   -1    0    0    0    0  0.00000000000E+00  0.00000000000E+00  0.74505805969E-08  0.10566000000E+00  0.10566000000E+00 0. -1.
     999900   -1    0    0    0    0 -0.00000000000E+00 -0.00000000000E+00 -0.74505805969E-08  0.93827000000E+00  0.93827000000E+00 0.  1.
     999902    2    1    2    0    0  0.52273698166E-02 -0.22428083554E-01  0.47626755485E-02  0.10204134653E+01  0.10201424473E+01 0.  0.
     999903    2    3    3    0    0 -0.25580714618E-01 -0.12701735250E+00 -0.21941339631E-01  0.13328260814E+00  0.22249729238E-01 0.  0.
         14    1    1    2    0    0 -0.52273698166E-02  0.22428083554E-01 -0.47626755485E-02  0.23516534726E-01  0.00000000000E+00 0.  1.
     999901    1    3    3    0    0  0.30808084435E-01  0.10458926895E+00  0.26704015179E-01  0.88713085713E+00  0.88000000000E+00 0.  1.
        -11    1    4    4    0    0  0.13851967498E-02 -0.16309690269E-01  0.29753977970E-02  0.16644484965E-01  0.51100000000E-03 0. -1.
         11    1    4    4    0    0 -0.26965911368E-01 -0.11070766224E+00 -0.24916737428E-01  0.11663812318E+00  0.51100000000E-03 0.  1.
</event>
<event>
 8    1  0.1132255E+005  0.1043930E+01  0.7957747E-01            NaN
         13   -1    0    0    0    0  0.00000000000E+00  0.00000000000E+00  0.74505805969E-08  0.10566000000E+00  0.10566000000E+00 0. -1.
     999900   -1    0    0    0    0 -0.00000000000E+00 -0.00000000000E+00 -0.74505805969E-08  0.93827000000E+00  0.93827000000E+00 0.  1.
     999902    2    1    2    0    0 -0.61434759676E-02 -0.23699145757E-02 -0.23781620635E-01  0.10192536090E+01  0.10189548544E+01 0.  0.
     999903    2    3    3    0    0  0.68912803092E-03  0.12099941976E+00 -0.44496240181E-01  0.13038029262E+00  0.19436327679E-01 0.  0.
         14    1    1    2    0    0  0.61434759676E-02  0.23699145757E-02  0.23781620635E-01  0.24676390986E-01  0.00000000000E+00 0. -1.
     999901    1    3    3    0    0 -0.68326039985E-02 -0.12336933434E+00  0.20714619546E-01  0.88887331639E+00  0.88000000000E+00 0.  1.
        -11    1    4    4    0    0  0.47146864974E-02  0.52786333570E-01 -0.28594866052E-01  0.60220866533E-01  0.51100000000E-03 0.  1.
         11    1    4    4    0    0 -0.40255584664E-02  0.68213086191E-01 -0.15901374130E-01  0.70159426088E-01  0.51100000000E-03 0. -1.
</event>
<event>
 7    1  0.1132255E+005  0.1043930E+01  0.7957747E-01            NaN
         13   -1    0    0    0    0  0.00000000000E+00  0.00000000000E+00  0.74505805969E-08  0.10566000000E+00  0.10566000000E+00 0. -1.
     999900   -1    0    0    0    0 -0.00000000000E+00 -0.00000000000E+00 -0.74505805969E-08  0.93827000000E+00  0.93827000000E+00 0.  1.
     999902    2    1    2    0    0  0.80171754199E-02 -0.21424403099E-01  0.69023179932E-02  0.10200360229E+01  0.10197561305E+01 0.  0.
         14    1    1    2    0    0 -0.80171754199E-02  0.21424403099E-01 -0.69023179932E-02  0.23893977140E-01  0.00000000000E+00 0.  1.
     999901    1    3    3    0    0  0.12577493621E+00 -0.41097982568E-01 -0.51785360549E-02  0.88990740866E+00  0.88000000000E+00 0. -1.
        -11    1    3    3    0    0 -0.75921415587E-01  0.32203453651E-01  0.21971926520E-01  0.85347234564E-01  0.51100000000E-03 0. -1.
         11    1    3    3    0    0 -0.41836345199E-01 -0.12529874183E-01 -0.98910724720E-02  0.44781379638E-01  0.51100000000E-03 0.  1.
</event>
<event>
 8    1  0.1132255E+005  0.1043930E+01  0.7957747E-01            NaN
         13   -1    0    0    0    0  0.00000000000E+00  0.00000000000E+00  0.74505805969E-08  0.10566000000E+00  0.10566000000E+00 0.  1.
     999900   -1    0    0    0    0 -0.00000000000E+00 -0.00000000000E+00 -0.74505805969E-08  0.93827000000E+00  0.93827000000E+00 0.  1.
     999902    2    1    2    0    0  0.16993567169E-01 -0.16396434806E-01 -0.14229970835E-02  0.10202730915E+01  0.10199987901E+01 0.  0.
     999903    2    3    3    0    0 -0.83032938447E-03 -0.58745415855E-01  0.11580781813E+00  0.13131066736E+00  0.19476326424E-01 0.  0.
         14    1    1    2    0    0 -0.16993567169E-01  0.16396434806E-01  0.14229970835E-02  0.23656908508E-01  0.00000000000E+00 0.  1.
     999901    1    3    3    0    0  0.17823896553E-01  0.42348981049E-01 -0.11723081522E+00  0.88896242413E+00  0.88000000000E+00 0.  1.
        -11    1    4    4    0    0 -0.69316869476E-02 -0.75795347996E-02  0.16869996322E-01  0.19757417053E-01  0.51100000000E-03 0. -1.
         11    1    4    4    0    0  0.61013575631E-02 -0.51165881056E-01  0.98937821810E-01  0.11155325031E+00  0.51100000000E-03 0.  1.
</event>
<event>
 8    1  0.1132255E+005  0.1043930E+01  0.7957747E-01            NaN
         13   -1    0    0    0    0  0.00000000000E+00  0.00000000000E+00  0.74505805969E-08  0.10566000000E+00  0.10566000000E+00 0. -1.
     999900   -1    0    0    0    0 -0.00000000000E+00 -0.00000000000E+00 -0.74505805969E-08  0.93827000000E+00  0.93827000000E+00 0. -1.
     999902    2    1    2    0    0 -0.18393829801E-01  0.98442593994E-02 -0.33787925974E-02  0.10227956995E+01  0.10225773243E+01 0.  0.
     999903    2    3    3    0    0  0.73673037420E-01  0.75246747982E-01 -0.77729300272E-01  0.13246891032E+00  0.20405356068E-01 0.  0.
         14    1    1    2    0    0  0.18393829801E-01 -0.98442593994E-02  0.33787925974E-02  0.21134300492E-01  0.00000000000E+00 0.  1.
     999901    1    3    3    0    0 -0.92066867221E-01 -0.65402488583E-01  0.74350507674E-01  0.89032678919E+00  0.88000000000E+00 0.  1.
        -11    1    4    4    0    0  0.30090412741E-01  0.44702758295E-01 -0.35544371659E-01  0.64555658279E-01  0.51100000000E-03 0.  1.
         11    1    4    4    0    0  0.43582624679E-01  0.30543989687E-01 -0.42184928612E-01  0.67913252042E-01  0.51100000000E-03 0. -1.
</event>
<event>
 8    1  0.1132255E+005  0.1043930E+01  0.7957747E-01            NaN
         13   -1    0    0    0    0  0.00000000000E+00  0.00000000000E+00  0.74505805969E-08  0.10566000000E+00  0.10566000000E+00 0. -1.
     999900   -1    0    0    0    0 -0.00000000000E+00 -0.00000000000E+00 -0.74505805969E-08  0.93827000000E+00  0.93827000000E+00 0. -1.
     999902    2    1    2    0    0  0.11956792713E-01  0.10128202387E-01 -0.16817924796E-01  0.10209433089E+01  0.10206845017E+01 0.  0.
     999903    2    3    3    0    0 -0.50435213852E-02 -0.11835277938E+00  0.47096858357E-01  0.12915775567E+00  0.20755584499E-01 0.  0.
         14    1    1    2    0    0 -0.11956792713E-01 -0.10128202387E-01  0.16817924796E-01  0.22986691150E-01  0.00000000000E+00 0.  1.
     999901    1    3    3    0    0  0.17000314098E-01  0.12848098177E+00 -0.63914783153E-01  0.89178555318E+00  0.88000000000E+00 0.  1.
        -11    1    4    4    0    0  0.65502117863E-03 -0.96266875935E-01  0.30646921314E-01  0.10103086341E+00  0.51100000000E-03 0.  1.
         11    1    4    4    0    0 -0.56985425638E-02 -0.22085903445E-01  0.16449937043E-01  0.28126892257E-01  0.51100000000E-03 0. -1.
</event>
<event>
 8    1  0.1132255E+005  0.1043930E+01  0.7957747E-01            NaN
         13   -1    0    0    0    0  0.00000000000E+00  0.00000000000E+00  0.74505805969E-08  0.10566000000E+00  0.10566000000E+00 0.  1.
     999900   -1    0    0    0    0 -0.00000000000E+00 -0.00000000000E+00 -0.74505805969E-08  0.93827000000E+00  0.93827000000E+00 0.  1.
     999902    2    1    2    0    0  0.18426989546E-01 -0.14287965054E-01 -0.50712644878E-02  0.10200675271E+01  0.10197883811E+01 0.  0.
     999903    2    3    3    0    0  0.97701606780E-01  0.44085922149E-01  0.72243447043E-01  0.13120896678E+00  0.22527867712E-01 0.  0.
         14    1    1    2    0    0 -0.18426989546E-01  0.14287965054E-01  0.50712644878E-02  0.23862472894E-01  0.00000000000E+00 0.  1.
     999901    1    3    3    0    0 -0.79274617234E-01 -0.58373887204E-01 -0.77314711530E-01  0.88885856033E+00  0.88000000000E+00 0.  1.
        -11    1    4    4    0    0  0.32105711508E-01  0.26240261703E-01  0.29807726994E-01  0.51069460103E-01  0.51100000000E-03 0. -1.
         11    1    4    4    0    0  0.65595895272E-01  0.17845660446E-01  0.42435720049E-01  0.80139506677E-01  0.51100000000E-03 0.  1.
</event>
<event>
 8    1  0.1132255E+005  0.1043930E+01  0.7957747E-01            NaN
         13   -1    0    0    0    0  0.00000000000E+00  0.00000000000E+00  0.74505805969E-08  0.10566000000E+00  0.10566000000E+00 0. -1.
     999900   -1    0    0    0    0 -0.00000000000E+00 -0.00000000000E+00 -0.74505805969E-08  0.93827000000E+00  0.93827000000E+00 0. -1.
     999902    2    1    2    0    0  0.83725541017E-02 -0.25307597626E-02  0.22164241328E-01  0.10201023270E+01  0.10198240042E+01 0.  0.
     999903    2    3    3    0    0  0.10178265146E+00  0.78348589843E-01 -0.13310361390E-01  0.13076248030E+00  0.20577921802E-01 0.  0.
         14    1    1    2    0    0 -0.83725541017E-02  0.25307597626E-02 -0.22164241328E-01  0.23827673004E-01  0.00000000000E+00 0.  1.
     999901    1    3    3    0    0 -0.93410097358E-01 -0.80879349605E-01  0.35474602717E-01  0.88933984669E+00  0.88000000000E+00 0.  1.
        -11    1    4    4    0    0  0.40981967673E-01  0.21453957754E-01  0.99844104470E-03  0.46271502928E-01  0.51100000000E-03 0.  1.
         11    1    4    4    0    0  0.60800683787E-01  0.56894632088E-01 -0.14308802434E-01  0.84490977374E-01  0.51100000000E-03 0. -1.
</event>
<event>
 8    1  0.1132255E+005  0.1043930E+01  0.7957747E-01            NaN
         13   -1    0    0    0    0  0.00000000000E+00  0.00000000000E+00  0.74505805969E-08  0.10566000000E+00  0.10566000000E+00 0. -1.
     999900   -1    0    0    0    0 -0.00000000000E+00 -0.00000000000E+00 -0.74505805969E-08  0.93827000000E+00  0.93827000000E+00 0. -1.
     999902    2    1    2    0    0  0.11981111338E-01 -0.13963482207E-01 -0.11311794232E-01  0.10223317928E+01  0.10221036210E+01 0.  0.
     999903    2    3    3    0    0  0.10095955662E+00 -0.24783558329E-01  0.80611446924E-01  0.13301513379E+00  0.19691714159E-01 0.  0.
         14    1    1    2    0    0 -0.11981111338E-01  0.13963482207E-01  0.11311794232E-01  0.21598207171E-01  0.00000000000E+00 0. -1.
     999901    1    3    3    0    0 -0.88978445283E-01  0.10820076122E-01 -0.91923241155E-01  0.88931665903E+00  0.88000000000E+00 0.  1.
        -11    1    4    4    0    0  0.64653058693E-01 -0.25444970230E-01  0.52180831054E-01  0.86893985746E-01  0.51100000000E-03 0. -1.
         11    1    4    4    0    0  0.36306497929E-01  0.66141190113E-03  0.28430615869E-01  0.46121148048E-01  0.51100000000E-03 0.  1.
</event>
<event>
 8    1  0.1132255E+005  0.1043930E+01  0.7957747E-01            NaN
         13   -1    0    0    0    0  0.00000000000E+00  0.00000000000E+00  0.74505805969E-08  0.10566000000E+00  0.10566000000E+00 0. -1.
     999900   -1    0    0    0    0 -0.00000000000E+00 -0.00000000000E+00 -0.74505805969E-08  0.93827000000E+00  0.93827000000E+00 0.  1.
     999902    2    1    2    0    0  0.69161893574E-02 -0.21104052846E-01 -0.80233175964E-02  0.10203166913E+01  0.10200434119E+01 0.  0.
     999903    2    3    3    0    0 -0.74660745542E-02 -0.12847282290E-01 -0.12939976320E+00  0.13183075146E+00  0.20353215559E-01 0.  0.
         14    1    1    2    0    0 -0.69161893574E-02  0.21104052846E-01  0.80233175964E-02  0.23613308684E-01  0.00000000000E+00 0. -1.
     999901    1    3    3    0    0  0.14382263912E-01 -0.82567705566E-02  0.12137644560E+00  0.88848593986E+00  0.88000000000E+00 0. -1.
        -11    1    4    4    0    0 -0.87958083362E-02  0.18938804353E-02 -0.29703409997E-01  0.31040404537E-01  0.51100000000E-03 0.  1.
         11    1    4    4    0    0  0.13297337820E-02 -0.14741162725E-01 -0.99696353200E-01  0.10079034692E+00  0.51100000000E-03 0. -1.
</event>
<event>
 8    1  0.1132255E+005  0.1043930E+01  0.7957747E-01            NaN
         13   -1    0    0    0    0  0.00000000000E+00  0.00000000000E+00  0.74505805969E-08  0.10566000000E+00  0.10566000000E+00 0.  1.
     999900   -1    0    0    0    0 -0.00000000000E+00 -0.00000000000E+00 -0.74505805969E-08  0.93827000000E+00  0.93827000000E+00 0.  1.
     999902    2    1    2    0    0  0.16936660817E-01 -0.92493924544E-02 -0.12798150251E-01  0.10207741284E+01  0.10205114535E+01 0.  0.
     999903    2    3    3    0    0  0.12691829623E+00  0.27962994267E-01 -0.20079182557E-01  0.13311781241E+00  0.20663868029E-01 0.  0.
         14    1    1    2    0    0 -0.16936660817E-01  0.92493924544E-02  0.12798150251E-01  0.23155871615E-01  0.00000000000E+00 0.  1.
     999901    1    3    3    0    0 -0.10998163542E+00 -0.37212386721E-01  0.72810323062E-02  0.88765631597E+00  0.88000000000E+00 0.  1.
        -11    1    4    4    0    0  0.11111934169E+00  0.19353823437E-01 -0.12139017053E-01  0.11344468007E+00  0.51100000000E-03 0.  1.
         11    1    4    4    0    0  0.15798954542E-01  0.86091708295E-02 -0.79401655045E-02  0.19673132344E-01  0.51100000000E-03 0. -1.
</event>
<event>
 8    1  0.1132255E+005  0.1043930E+01  0.7957747E-01            NaN
         13   -1    0    0    0    0  0.00000000000E+00  0.00000000000E+00  0.74505805969E-08  0.10566000000E+00  0.10566000000E+00 0.  1.
     999900   -1    0    0    0    0 -0.00000000000E+00 -0.00000000000E+00 -0.74505805969E-08  0.93827000000E+00  0.93827000000E+00 0. -1.
     999902    2    1    2    0    0 -0.69828588371E-02  0.69383027327E-02  0.14753107537E-01  0.10261943144E+01  0.10260410403E+01 0.  0.
     999903    2    3    3    0    0  0.12176608922E+00 -0.53883108082E-01  0.83727770475E-02  0.13472572590E+00  0.18722927187E-01 0.  0.
         14    1    1    2    0    0  0.69828588371E-02 -0.69383027327E-02 -0.14753107537E-01  0.17735685618E-01  0.00000000000E+00 0. -1.
     999901    1    3    3    0    0 -0.12874894806E+00  0.60821410815E-01  0.63803304892E-02  0.89146858849E+00  0.88000000000E+00 0. -1.
        -11    1    4    4    0    0  0.87600977461E-01 -0.43363995303E-01  0.13255125427E-01  0.98642418928E-01  0.51100000000E-03 0.  1.
         11    1    4    4    0    0  0.34165111758E-01 -0.10519112779E-01 -0.48823483792E-02  0.36083306969E-01  0.51100000000E-03 0. -1.
</event>
<event>
 8    1  0.1132255E+005  0.1043930E+01  0.7957747E-01            NaN
         13   -1    0    0    0    0  0.00000000000E+00  0.00000000000E+00  0.74505805969E-08  0.10566000000E+00  0.10566000000E+00 0.  1.
     999900   -1    0    0    0    0 -0.00000000000E+00 -0.00000000000E+00 -0.74505805969E-08  0.93827000000E+00  0.93827000000E+00 0.  1.
     999902    2    1    2    0    0 -0.75378407776E-03 -0.23519967956E-01 -0.48878334979E-03  0.10203928805E+01  0.10201213823E+01 0.  0.
     999903    2    3    3    0    0 -0.11814044638E+00 -0.33292095990E-01  0.42569002241E-01  0.13150081968E+00  0.20367054238E-01 0.  0.
         14    1    1    2    0    0  0.75378407776E-03  0.23519967956E-01  0.48878334979E-03  0.23537119455E-01  0.00000000000E+00 0. -1.
     999901    1    3    3    0    0  0.11738666230E+00  0.97721280347E-02 -0.43057785590E-01  0.88889206087E+00  0.88000000000E+00 0.  1.
        -11    1    4    4    0    0 -0.72515552591E-01 -0.30254239760E-01  0.24161474244E-01  0.82206218437E-01  0.51100000000E-03 0. -1.
         11    1    4    4    0    0 -0.45624893787E-01 -0.30378562300E-02  0.18407527996E-01  0.49294601241E-01  0.51100000000E-03 0.  1.
</event>
<event>
 8    1  0.1132255E+005  0.1043930E+01  0.7957747E-01            NaN
         13   -1    0    0    0    0  0.00000000000E+00  0.00000000000E+00  0.74505805969E-08  0.10566000000E+00  0.10566000000E+00 0.  1.
     999900   -1    0    0    0    0 -0.00000000000E+00 -0.00000000000E+00 -0.74505805969E-08  0.93827000000E+00  0.93827000000E+00 0. -1.
     999902    2    1    2    0    0 -0.15019805764E-01 -0.13189986277E-01  0.12742671234E-01  0.10202246003E+01  0.10199491601E+01 0.  0.
     999903    2    3    3    0    0 -0.44651046492E-01  0.43836137322E-01  0.11438870280E+00  0.13204561785E+00  0.20879343256E-01 0.  0.
         14    1    1    2    0    0  0.15019805764E-01  0.13189986277E-01 -0.12742671234E-01  0.23705399666E-01  0.00000000000E+00 0. -1.
     999901    1    3    3    0    0  0.29631240729E-01 -0.57026123599E-01 -0.10164603157E+00  0.88817898249E+00  0.88000000000E+00 0. -1.
        -11    1    4    4    0    0 -0.34544194774E-01  0.43867921236E-01  0.96207300122E-01  0.11123759088E+00  0.51100000000E-03 0. -1.
         11    1    4    4    0    0 -0.10106851719E-01 -0.31783913592E-04  0.18181402682E-01  0.20808026970E-01  0.51100000000E-03 0.  1.
</event>
<event>
 8    1  0.1132255E+005  0.1043930E+01  0.7957747E-01            NaN
         13   -1    0    0    0    0  0.00000000000E+00  0.00000000000E+00  0.74505805969E-08  0.10566000000E+00  0.10566000000E+00 0. -1.
     999900   -1    0    0    0    0 -0.00000000000E+00 -0.00000000000E+00 -0.74505805969E-08  0.93827000000E+00  0.93827000000E+00 0.  1.
     999902    2    1    2    0    0  0.20524911537E-01  0.30426595882E-02 -0.10662804029E-01  0.10206013661E+01  0.10203347114E+01 0.  0.
     999903    2    3    3    0    0  0.95188065784E-01 -0.89101033926E-01  0.11554321570E-01  0.13236792405E+00  0.19697788125E-01 0.  0.
         14    1    1    2    0    0 -0.20524911537E-01 -0.30426595882E-02  0.10662804029E-01  0.23328633924E-01  0.00000000000E+00 0.  1.
     999901    1    3    3    0    0 -0.74663154247E-01  0.92143693514E-01 -0.22217125599E-01  0.88823344202E+00  0.88000000000E+00 0.  1.
        -11    1    4    4    0    0  0.15207691887E-01 -0.25090721058E-01  0.70478900726E-03  0.29352615289E-01  0.51100000000E-03 0.  1.
         11    1    4    4    0    0  0.79980373897E-01 -0.64010312868E-01  0.10849532563E-01  0.10301530877E+00  0.51100000000E-03 0. -1.
</event>
<event>
 8    1  0.1132255E+005  0.1043930E+01  0.7957747E-01            NaN
         13   -1    0    0    0    0  0.00000000000E+00  0.00000000000E+00  0.74505805969E-08  0.10566000000E+00  0.10566000000E+00 0.  1.
     999900   -1    0    0    0    0 -0.00000000000E+00 -0.00000000000E+00 -0.74505805969E-08  0.93827000000E+00  0.93827000000E+00 0. -1.
     999902    2    1    2    0    0  0.73080550884E-02  0.16522789637E-01  0.14833021736E-01  0.10205541839E+01  0.10202864369E+01 0.  0.
     999903    2    3    3    0    0 -0.12697505188E+00 -0.11852501489E-01 -0.14507654923E-01  0.12943242715E+00  0.16707350334E-01 0.  0.
         14    1    1    2    0    0 -0.73080550884E-02 -0.16522789637E-01 -0.14833021736E-01  0.23375816144E-01  0.00000000000E+00 0. -1.
     999901    1    3    3    0    0  0.13428310697E+00  0.28375291126E-01  0.29340676659E-01  0.89112175670E+00  0.88000000000E+00 0.  1.
        -11    1    4    4    0    0 -0.43451926922E-01  0.36861825186E-02 -0.65972746896E-02  0.44107176844E-01  0.51100000000E-03 0.  1.
         11    1    4    4    0    0 -0.83523124960E-01 -0.15538684008E-01 -0.79103802337E-02  0.85325250309E-01  0.51100000000E-03 0. -1.
</event>
<event>
 8    1  0.1132255E+005  0.1043930E+01  0.7957747E-01            NaN
         13   -1    0    0    0    0  0.00000000000E+00  0.00000000000E+00  0.74505805969E-08  0.10566000000E+00  0.10566000000E+00 0. -1.
     999900   -1    0    0    0    0 -0.00000000000E+00 -0.00000000000E+00 -0.74505805969E-08  0.93827000000E+00  0.93827000000E+00 0. -1.
     999902    2    1    2    0    0  0.38041787928E-02  0.64615750113E-02  0.21215869651E-01  0.10214280700E+01  0.10211801826E+01 0.  0.
     999903    2    3    3    0    0  0.10192962149E-01  0.12609438188E+00 -0.31091190220E-01  0.13177147697E+00  0.19833567865E-01 0.  0.
         14    1    1    2    0    0 -0.38041787928E-02 -0.64615750113E-02 -0.21215869651E-01  0.22501929983E-01  0.00000000000E+00 0.  1.
     999901    1    3    3    0    0 -0.63887833557E-02 -0.11963280687E+00  0.52307059872E-01  0.88965659304E+00  0.88000000000E+00 0.  1.
        -11    1    4    4    0    0  0.66444430770E-02  0.99536070864E-01 -0.32543588427E-01  0.10493295143E+00  0.51100000000E-03 0.  1.
         11    1    4    4    0    0  0.35485190715E-02  0.26558311020E-01  0.14523982066E-02  0.26838525545E-01  0.51100000000E-03 0. -1.
</event>
<event>
 8    1  0.1132255E+005  0.1043930E+01  0.7957747E-01            NaN
         13   -1    0    0    0    0  0.00000000000E+00  0.00000000000E+00  0.74505805969E-08  0.10566000000E+00  0.10566000000E+00 0.  1.
     999900   -1    0    0    0    0 -0.00000000000E+00 -0.00000000000E+00 -0.74505805969E-08  0.93827000000E+00  0.93827000000E+00 0. -1.
     999902    2    1    2    0    0  0.42444240406E-02  0.97900867191E-02 -0.21548138576E-01  0.10198845595E+01  0.10196010649E+01 0.  0.
     999903    2    3    3    0    0  0.46708400212E-01  0.47990292112E-01  0.10799736392E+00  0.12856840784E+00  0.19536173993E-01 0.  0.
         14    1    1    2    0    0 -0.42444240406E-02 -0.97900867191E-02  0.21548138576E-01  0.24045440513E-01  0.00000000000E+00 0.  1.
     999901    1    3    3    0    0 -0.42463976171E-01 -0.38200205393E-01 -0.12954550250E+00  0.89131615164E+00  0.88000000000E+00 0. -1.
        -11    1    4    4    0    0  0.11643444026E-01  0.25513618778E-01  0.46016428045E-01  0.53891439978E-01  0.51100000000E-03 0. -1.
         11    1    4    4    0    0  0.35064956186E-01  0.22476673334E-01  0.61980935875E-01  0.74676967865E-01  0.51100000000E-03 0.  1.
</event>
<event>
 8    1  0.1132255E+005  0.1043930E+01  0.7957747E-01            NaN
         13   -1    0    0    0    0  0.00000000000E+00  0.00000000000E+00  0.74505805969E-08  0.10566000000E+00  0.10566000000E+00 0.  1.
     999900   -1    0    0    0    0 -0.00000000000E+00 -0.00000000000E+00 -0.74505805969E-08  0.93827000000E+00  0.93827000000E+00 0.  1.
     999902    2    1    2    0    0 -0.32626427074E-02  0.60024880537E-02  0.23510265539E-01  0.10194472043E+01  0.10191531755E+01 0.  0.
     999903    2    3    3    0    0  0.42564515190E-01  0.89794219896E-01 -0.78612734514E-01  0.12840832193E+00  0.20832552253E-01 0.  0.
         14    1    1    2    0    0  0.32626427074E-02 -0.60024880537E-02 -0.23510265539E-01  0.24482795715E-01  0.00000000000E+00 0. -1.
     999901    1    3    3    0    0 -0.45827157898E-01 -0.83791731842E-01  0.10212300005E+00  0.89103888235E+00  0.88000000000E+00 0. -1.
        -11    1    4    4    0    0  0.30604986180E-01  0.56390337978E-01 -0.38387445579E-01  0.74768927339E-01  0.51100000000E-03 0. -1.
         11    1    4    4    0    0  0.11959529011E-01  0.33403881918E-01 -0.40225288935E-01  0.53639394593E-01  0.51100000000E-03 0.  1.
</event>
<event>
 8    1  0.1132255E+005  0.1043930E+01  0.7957747E-01            NaN
         13   -1    0    0    0    0  0.00000000000E+00  0.00000000000E+00  0.74505805969E-08  0.10566000000E+00  0.10566000000E+00 0.  1.
     999900   -1    0    0    0    0 -0.00000000000E+00 -0.00000000000E+00 -0.74505805969E-08  0.93827000000E+00  0.93827000000E+00 0. -1.
     999902    2    1    2    0    0 -0.54032430989E-02  0.18969141359E-01  0.13014523283E-01  0.10202994863E+01  0.10200258039E+01 0.  0.
     999903    2    3    3    0    0 -0.11195220615E+00 -0.28436441026E-01 -0.56207803121E-01  0.12991097493E+00  0.19380831657E-01 0.  0.
         14    1    1    2    0    0  0.54032430989E-02 -0.18969141359E-01 -0.13014523283E-01  0.23630513667E-01  0.00000000000E+00 0. -1.
     999901    1    3    3    0    0  0.10654896305E+00  0.47405582385E-01  0.69222326404E-01  0.89038851140E+00  0.88000000000E+00 0. -1.
        -11    1    4    4    0    0 -0.73046558194E-01 -0.91360165747E-02 -0.33148509990E-01  0.80736307188E-01  0.51100000000E-03 0. -1.
         11    1    4    4    0    0 -0.38905647953E-01 -0.19300424451E-01 -0.23059293131E-01  0.49174667740E-01  0.51100000000E-03 0.  1.
</event>
<event>
 8    1  0.1132255E+005  0.1043930E+01  0.7957747E-01            NaN
         13   -1    0    0    0    0  0.00000000000E+00  0.00000000000E+00  0.74505805969E-08  0.10566000000E+00  0.10566000000E+00 0. -1.
     999900   -1    0    0    0    0 -0.00000000000E+00 -0.00000000000E+00 -0.74505805969E-08  0.93827000000E+00  0.93827000000E+00 0. -1.
     999902    2    1    2    0    0  0.17624367802E-01  0.12190888517E-01 -0.97322191485E-02  0.10203938110E+01  0.10201223345E+01 0.  0.
     999903    2    3    3    0    0 -0.67347808557E-01 -0.74810998315E-01 -0.76738961833E-01  0.12950689189E+00  0.27399890471E-01 0.  0.
         14    1    1    2    0    0 -0.17624367802E-01 -0.12190888517E-01  0.97322191485E-02  0.23536189003E-01  0.00000000000E+00 0.  1.
     999901    1    3    3    0    0  0.84972176358E-01  0.87001886832E-01  0.67006742685E-01  0.89088691911E+00  0.88000000000E+00 0.  1.
        -11    1    4    4    0    0 -0.14160446509E-01 -0.11739315249E-01 -0.28529447184E-01  0.33948788571E-01  0.51100000000E-03 0. -1.
         11    1    4    4    0    0 -0.53187362048E-01 -0.63071683066E-01 -0.48209514649E-01  0.95558103320E-01  0.51100000000E-03 0.  1.
</event>
<event>
 8    1  0.1132255E+005  0.1043930E+01  0.7957747E-01            NaN
         13   -1    0    0    0    0  0.00000000000E+00  0.00000000000E+00  0.74505805969E-08  0.10566000000E+00  0.10566000000E+00 0. -1.
     999900   -1    0    0    0    0 -0.00000000000E+00 -0.00000000000E+00 -0.74505805969E-08  0.93827000000E+00  0.93827000000E+00 0. -1.
     999902    2    1    2    0    0 -0.19356153459E-01  0.17117513138E-02 -0.15173169153E-01  0.10192760788E+01  0.10189778746E+01 0.  0.
     999903    2    3    3    0    0 -0.11082632657E+00 -0.38669360693E-01  0.54416142518E-01  0.13088421757E+00  0.19793123121E-01 0.  0.
         14    1    1    2    0    0  0.19356153459E-01 -0.17117513138E-02  0.15173169153E-01  0.24653921218E-01  0.00000000000E+00 0.  1.
     999901    1    3    3    0    0  0.91470173115E-01  0.40381112007E-01 -0.69589311672E-01  0.88839186122E+00  0.88000000000E+00 0. -1.
        -11    1    4    4    0    0 -0.42993060923E-01 -0.18917017485E-01  0.31701724631E-01  0.56670250605E-01  0.51100000000E-03 0.  1.
         11    1    4    4    0    0 -0.67833265651E-01 -0.19752343208E-01  0.22714417888E-01  0.74213966960E-01  0.51100000000E-03 0. -1.
</event>
<event>
 8    1  0.1132255E+005  0.1043930E+01  0.7957747E-01            NaN
         13   -1    0    0    0    0  0.00000000000E+00  0.00000000000E+00  0.74505805969E-08  0.10566000000E+00  0.10566000000E+00 0. -1.
     999900   -1    0    0    0    0 -0.00000000000E+00 -0.00000000000E+00 -0.74505805969E-08  0.93827000000E+00  0.93827000000E+00 0.  1.
     999902    2    1    2    0    0 -0.57183900132E-03 -0.92339593021E-02  0.31283432826E-01  0.10113072139E+01  0.10107809034E+01 0.  0.
     999903    2    3    3    0    0  0.81004099129E-01 -0.40267226929E-01  0.85021458904E-01  0.12535830293E+00  0.17405229087E-01 0.  0.
         14    1    1    2    0    0  0.57183900132E-03  0.92339593021E-02 -0.31283432826E-01  0.32622786110E-01  0.00000000000E+00 0.  1.
     999901    1    3    3    0    0 -0.81575938130E-01  0.31033267627E-01 -0.53738026078E-01  0.88594891096E+00  0.88000000000E+00 0.  1.
        -11    1    4    4    0    0  0.61349420183E-01 -0.33547888459E-01  0.74105106494E-01  0.10188738934E+00  0.51100000000E-03 0.  1.
         11    1    4    4    0    0  0.19654678946E-01 -0.67193384704E-02  0.10916352409E-01  0.23470913592E-01  0.51100000000E-03 0. -1.
</event>
<event>
 8    1  0.1132255E+005  0.1043930E+01  0.7957747E-01            NaN
         13   -1    0    0    0    0  0.00000000000E+00  0.00000000000E+00  0.74505805969E-08  0.10566000000E+00  0.10566000000E+00 0. -1.
     999900   -1    0    0    0    0 -0.00000000000E+00 -0.00000000000E+00 -0.74505805969E-08  0.93827000000E+00  0.93827000000E+00 0.  1.
     999902    2    1    2    0    0  0.11767087486E-01  0.19803715909E-01  0.29675065275E-02  0.10207037733E+01  0.10204394814E+01 0.  0.
     999903    2    3    3    0    0 -0.77745188727E-01  0.87615689268E-01 -0.56404619368E-01  0.13158288126E+00  0.20291628309E-01 0.  0.
         14    1    1    2    0    0 -0.11767087486E-01 -0.19803715909E-01 -0.29675065275E-02  0.23226226700E-01  0.00000000000E+00 0.  1.
     999901    1    3    3    0    0  0.89512276212E-01 -0.67811973358E-01  0.59372125896E-01  0.88912089204E+00  0.88000000000E+00 0. -1.
        -11    1    4    4    0    0 -0.69113347223E-01  0.70071305054E-01 -0.40726909330E-01  0.10651565529E+00  0.51100000000E-03 0. -1.
         11    1    4    4    0    0 -0.86318415042E-02  0.17544384214E-01 -0.15677710038E-01  0.25067225978E-01  0.51100000000E-03 0.  1.
</event>
<event>
 8    1  0.1220081E+005  0.1043930E+01  0.7957747E-01            NaN
         13   -1    0    0    0    0  0.00000000000E+00  0.00000000000E+00  0.74505805969E-08  0.10566000000E+00  0.10566000000E+00 0. -1.
     999900   -1    0    0    0    0 -0.00000000000E+00 -0.00000000000E+00 -0.74505805969E-08  0.93827000000E+00  0.93827000000E+00 0. -1.
     999902    2    1    2    0    0 -0.38168487181E-02  0.11885402151E-01  0.19777202641E-01  0.10205426345E+01  0.10202746199E+01 0.  0.
     999903    2    3    3    0    0  0.90175068990E-01  0.31837046056E-01  0.90895037477E-01  0.13246026499E+00  0.11775966828E-01 0.  0.
         14    1    1    2    0    0  0.38168487181E-02 -0.11885402151E-01 -0.19777202641E-01  0.23387365450E-01  0.00000000000E+00 0.  1.
     999901    1    3    3    0    0 -0.93991917708E-01 -0.19951643905E-01 -0.71117834836E-01  0.88808236956E+00  0.88000000000E+00 0. -1.
        -11    1    4    4    0    0  0.38365470182E-01  0.89592392856E-02  0.42594198445E-01  0.58023306809E-01  0.51100000000E-03 0. -1.
         11    1    4    4    0    0  0.51809598808E-01  0.22877806770E-01  0.48300839032E-01  0.74436958182E-01  0.51100000000E-03 0.  1.
</event>
<event>
 8    1  0.1132255E+005  0.1043930E+01  0.7957747E-01            NaN
         13   -1    0    0    0    0  0.00000000000E+00  0.00000000000E+00  0.74505805969E-08  0.10566000000E+00  0.10566000000E+00 0.  1.
     999900   -1    0    0    0    0 -0.00000000000E+00 -0.00000000000E+00 -0.74505805969E-08  0.93827000000E+00  0.93827000000E+00 0. -1.
     999902    2    1    2    0    0 -0.85541931139E-02  0.60751053566E-02  0.22743005430E-01  0.10188835348E+01  0.10185756388E+01 0.  0.
     999903    2    3    3    0    0 -0.12717221301E+00  0.60462156082E-02  0.22696844118E-01  0.13092506861E+00  0.20418089382E-01 0.  0.
         14    1    1    2    0    0  0.85541931139E-02 -0.60751053566E-02 -0.22743005430E-01  0.25046465238E-01  0.00000000000E+00 0. -1.
     999901    1    3    3    0    0  0.11861801989E+00  0.28889748412E-04  0.46161312308E-04  0.88795846615E+00  0.88000000000E+00 0. -1.
        -11    1    4    4    0    0 -0.12168024952E+00  0.36055830441E-02  0.17544550396E-01  0.12299250271E+00  0.51100000000E-03 0. -1.
         11    1    4    4    0    0 -0.54919634862E-02  0.24406325641E-02  0.51522937222E-02  0.79325659056E-02  0.51100000000E-03 0.  1.
</event>
<event>
 8    1  0.1132255E+005  0.1043930E+01  0.7957747E-01            NaN
         13   -1    0    0    0    0  0.00000000000E+00  0.00000000000E+00  0.74505805969E-08  0.10566000000E+00  0.10566000000E+00 0. -1.
     999900   -1    0    0    0    0 -0.00000000000E+00 -0.00000000000E+00 -0.74505805969E-08  0.93827000000E+00  0.93827000000E+00 0. -1.
     999902    2    1    2    0    0  0.12013538683E-01 -0.18374659378E-02  0.19083812974E-01  0.10213049407E+01  0.10210543024E+01 0.  0.
     999903    2    3    3    0    0  0.11272641143E+00 -0.63439847076E-01  0.25536233460E-01  0.13339753004E+00  0.20271748085E-01 0.  0.
         14    1    1    2    0    0 -0.12013538683E-01  0.18374659378E-02 -0.19083812974E-01  0.22625059345E-01  0.00000000000E+00 0.  1.
     999901    1    3    3    0    0 -0.10071287274E+00  0.61602381138E-01 -0.64524204859E-02  0.88790741062E+00  0.88000000000E+00 0. -1.
        -11    1    4    4    0    0  0.91554632770E-01 -0.48411057246E-01  0.12434080567E-01  0.10431082746E+00  0.51100000000E-03 0. -1.
         11    1    4    4    0    0  0.21171778658E-01 -0.15028789830E-01  0.13102152892E-01  0.29086702575E-01  0.51100000000E-03 0.  1.
</event>
<event>
 8    1  0.1132255E+005  0.1043930E+01  0.7957747E-01            NaN
         13   -1    0    0    0    0  0.00000000000E+00  0.00000000000E+00  0.74505805969E-08  0.10566000000E+00  0.10566000000E+00 0.  1.
     999900   -1    0    0    0    0 -0.00000000000E+00 -0.00000000000E+00 -0.74505805969E-08  0.93827000000E+00  0.93827000000E+00 0.  1.
     999902    2    1    2    0    0 -0.15241569485E-01 -0.71372529581E-02 -0.15322524715E-01  0.10211698246E+01  0.10209161499E+01 0.  0.
     999903    2    3    3    0    0 -0.85325238051E-02 -0.23081726804E-01 -0.12963979750E+00  0.13360705139E+00  0.20947482216E-01 0.  0.
         14    1    1    2    0    0  0.15241569485E-01  0.71372529581E-02  0.15322524715E-01  0.22760175390E-01  0.00000000000E+00 0.  1.
     999901    1    3    3    0    0 -0.67090456794E-02  0.15944473846E-01  0.11431727279E+00  0.88756277322E+00  0.88000000000E+00 0. -1.
        -11    1    4    4    0    0 -0.35025380917E-02 -0.16633520006E-01 -0.38364787990E-01  0.41964983491E-01  0.51100000000E-03 0. -1.
         11    1    4    4    0    0 -0.50299857134E-02 -0.64482067975E-02 -0.91275009512E-01  0.91642067904E-01  0.51100000000E-03 0.  1.
</event>
<event>
 7    1  0.1132255E+005  0.1043930E+01  0.7957747E-01            NaN
         13   -1    0    0    0    0  0.00000000000E+00  0.00000000000E+00  0.74505805969E-08  0.10566000000E+00  0.10566000000E+00 0.  1.
     999900   -1    0    0    0    0 -0.00000000000E+00 -0.00000000000E+00 -0.74505805969E-08  0.93827000000E+00  0.93827000000E+00 0.  1.
     999903    2    1    2    0    0  0.50426940421E-01 -0.95294260228E-01 -0.46461326758E-02  0.11039961737E+00  0.23294132627E-01 0.  0.
         14    1    1    2    0    0  0.40485108301E-01 -0.74167097860E-02 -0.11579340041E-01  0.42756668415E-01  0.00000000000E+00 0. -1.
     999901    1    1    2    0    0 -0.90912048721E-01  0.10271097001E+00  0.16225472717E-01  0.89077371421E+00  0.88000000000E+00 0.  1.
        -11    1    3    3    0    0  0.24823372716E-01 -0.55585639400E-01 -0.13423476717E-01  0.62341109941E-01  0.51100000000E-03 0. -1.
         11    1    3    3    0    0  0.25603567704E-01 -0.39708620829E-01  0.87773440407E-02  0.48058507433E-01  0.51100000000E-03 0.  1.
</event>
<event>
 8    1  0.1132255E+005  0.1043930E+01  0.7957747E-01            NaN
         13   -1    0    0    0    0  0.00000000000E+00  0.00000000000E+00  0.74505805969E-08  0.10566000000E+00  0.10566000000E+00 0. -1.
     999900   -1    0    0    0    0 -0.00000000000E+00 -0.00000000000E+00 -0.74505805969E-08  0.93827000000E+00  0.93827000000E+00 0.  1.
     999902    2    1    2    0    0 -0.42538984263E-03  0.10872199815E-01 -0.20451227583E-01  0.10207645431E+01  0.10205016482E+01 0.  0.
     999903    2    3    3    0    0 -0.19311318086E-01  0.11977494713E+00 -0.51567565346E-01  0.13330484644E+00  0.19799073795E-01 0.  0.
         14    1    1    2    0    0  0.42538984263E-03 -0.10872199815E-01  0.20451227583E-01  0.23165456935E-01  0.00000000000E+00 0. -1.
     999901    1    3    3    0    0  0.18885928243E-01 -0.10890274731E+00  0.31116337763E-01  0.88745969662E+00  0.88000000000E+00 0.  1.
        -11    1    4    4    0    0 -0.16960622214E-01  0.52560696856E-01 -0.17678344704E-01  0.57992021454E-01  0.51100000000E-03 0. -1.
         11    1    4    4    0    0 -0.23506958713E-02  0.67214250272E-01 -0.33889220642E-01  0.75312824986E-01  0.51100000000E-03 0.  1.
</event>
<event>
 8    1  0.1132255E+005  0.1043930E+01  0.7957747E-01            NaN
         13   -1    0    0    0    0  0.00000000000E+00  0.00000000000E+00  0.74505805969E-08  0.10566000000E+00  0.10566000000E+00 0. -1.
     999900   -1    0    0    0    0 -0.00000000000E+00 -0.00000000000E+00 -0.74505805969E-08  0.93827000000E+00  0.93827000000E+00 0. -1.
     999902    2    1    2    0    0  0.23630012855E-01 -0.14167739364E-01 -0.38417985754E-02  0.10161116290E+01  0.10157307620E+01 0.  0.
     999903    2    3    3    0    0 -0.10598755895E+00 -0.55668815270E-01  0.28155246460E-01  0.12507466847E+00  0.22772245017E-01 0.  0.
         14    1    1    2    0    0 -0.23630012855E-01  0.14167739364E-01  0.38417985754E-02  0.27818370953E-01  0.00000000000E+00 0. -1.
     999901    1    3    3    0    0  0.12961757181E+00  0.41501075906E-01 -0.31997045036E-01  0.89103696058E+00  0.88000000000E+00 0. -1.
        -11    1    4    4    0    0 -0.36450542696E-01 -0.28534439181E-01  0.33465515132E-02  0.46414618497E-01  0.51100000000E-03 0.  1.
         11    1    4    4    0    0 -0.69537016257E-01 -0.27134376089E-01  0.24808694947E-01  0.78660049973E-01  0.51100000000E-03 0. -1.
</event>
<event>
 8    1  0.1132255E+005  0.1043930E+01  0.7957747E-01            NaN
         13   -1    0    0    0    0  0.00000000000E+00  0.00000000000E+00  0.74505805969E-08  0.10566000000E+00  0.10566000000E+00 0.  1.
     999900   -1    0    0    0    0 -0.00000000000E+00 -0.00000000000E+00 -0.74505805969E-08  0.93827000000E+00  0.93827000000E+00 0. -1.
     999902    2    1    2    0    0  0.21992099022E-01 -0.24583814452E-02  0.83318872769E-02  0.10202843576E+01  0.10200103205E+01 0.  0.
     999903    2    3    3    0    0  0.45930158204E-01 -0.12182856577E+00  0.33193034274E-03  0.13186651059E+00  0.20901855606E-01 0.  0.
         14    1    1    2    0    0 -0.21992099022E-01  0.24583814452E-02 -0.83318872769E-02  0.23645642396E-01  0.00000000000E+00 0.  1.
     999901    1    3    3    0    0 -0.23938059182E-01  0.11937018432E+00  0.79999569341E-02  0.88841784701E+00  0.88000000000E+00 0.  1.
        -11    1    4    4    0    0  0.12262528037E-01 -0.61479956097E-01 -0.19324135724E-02  0.62722802383E-01  0.51100000000E-03 0.  1.
         11    1    4    4    0    0  0.33667630167E-01 -0.60348609670E-01  0.22643439151E-02  0.69143708207E-01  0.51100000000E-03 0. -1.
</event>
<event>
 8    1  0.1132255E+005  0.1043930E+01  0.7957747E-01            NaN
         13   -1    0    0    0    0  0.00000000000E+00  0.00000000000E+00  0.74505805969E-08  0.10566000000E+00  0.10566000000E+00 0.  1.
     999900   -1    0    0    0    0 -0.00000000000E+00 -0.00000000000E+00 -0.74505805969E-08  0.93827000000E+00  0.93827000000E+00 0.  1.
     999902    2    1    2    0    0  0.85579554910E-02  0.21414702561E-01 -0.49251100972E-02  0.10203485497E+01  0.10200760158E+01 0.  0.
     999903    2    3    3    0    0  0.37925354704E-01 -0.12297817091E-03 -0.12442529241E+00  0.13152538992E+00  0.19466051175E-01 0.  0.
         14    1    1    2    0    0 -0.85579554910E-02 -0.21414702561E-01  0.49251100972E-02  0.23581450283E-01  0.00000000000E+00 0.  1.
     999901    1    3    3    0    0 -0.29367399213E-01  0.21537680732E-01  0.11950018231E+00  0.88882315980E+00  0.88000000000E+00 0. -1.
        -11    1    4    4    0    0  0.16381813736E-01  0.46660130831E-02 -0.29511370732E-01  0.34078110612E-01  0.51100000000E-03 0.  1.
         11    1    4    4    0    0  0.21543540968E-01 -0.47889912541E-02 -0.94913921676E-01  0.97447279303E-01  0.51100000000E-03 0. -1.
</event>
<event>
 8    1  0.1132255E+005  0.1043930E+01  0.7957747E-01            NaN
         13   -1    0    0    0    0  0.00000000000E+00  0.00000000000E+00  0.74505805969E-08  0.10566000000E+00  0.10566000000E+00 0.  1.
     999900   -1    0    0    0    0 -0.00000000000E+00 -0.00000000000E+00 -0.74505805969E-08  0.93827000000E+00  0.93827000000E+00 0.  1.
     999902    2    1    2    0    0  0.19199325024E-01  0.96276594424E-02  0.11507538629E-01  0.10195634378E+01  0.10192722278E+01 0.  0.
     999903    2    3    3    0    0  0.11997917863E+00  0.52712323115E-01 -0.30268441185E-02  0.13264511270E+00  0.20297089042E-01 0.  0.
         14    1    1    2    0    0 -0.19199325024E-01 -0.96276594424E-02 -0.11507538629E-01  0.24366562191E-01  0.00000000000E+00 0. -1.
     999901    1    3    3    0    0 -0.10077985361E+00 -0.43084663673E-01  0.14534382748E-01  0.88691832511E+00  0.88000000000E+00 0. -1.
        -11    1    4    4    0    0  0.57120823899E-01  0.32032439687E-01  0.63955515731E-02  0.65802962822E-01  0.51100000000E-03 0.  1.
         11    1    4    4    0    0  0.62858354733E-01  0.20679883429E-01 -0.94223956916E-02  0.66842149875E-01  0.51100000000E-03 0. -1.
</event>
<event>
 8    1  0.1132255E+005  0.1043930E+01  0.7957747E-01            NaN
         13   -1    0    0    0    0  0.00000000000E+00  0.00000000000E+00  0.74505805969E-08  0.10566000000E+00  0.10566000000E+00 0.  1.
     999900   -1    0    0    0    0 -0.00000000000E+00 -0.00000000000E+00 -0.74505805969E-08  0.93827000000E+00  0.93827000000E+00 0.  1.
     999902    2    1    2    0    0  0.19511385893E-01  0.19674124141E-02 -0.15457908535E-01  0.10189597812E+01  0.10186537802E+01 0.  0.
     999903    2    3    3    0    0  0.98759913801E-01 -0.82928991390E-01  0.11275569359E-01  0.13092689475E+00  0.19595283066E-01 0.  0.
         14    1    1    2    0    0 -0.19511385893E-01 -0.19674124141E-02  0.15457908535E-01  0.24970218809E-01  0.00000000000E+00 0.  1.
     999901    1    3    3    0    0 -0.79248527908E-01  0.84896403804E-01 -0.26733477894E-01  0.88803288644E+00  0.88000000000E+00 0.  1.
        -11    1    4    4    0    0  0.83030974388E-01 -0.59608170518E-01  0.10874563789E-01  0.10279004796E+00  0.51100000000E-03 0.  1.
         11    1    4    4    0    0  0.15728939413E-01 -0.23320820872E-01  0.40100557041E-03  0.28136846797E-01  0.51100000000E-03 0. -1.
</event>
<event>
 8    1  0.1132255E+005  0.1043930E+01  0.7957747E-01            NaN
         13   -1    0    0    0    0  0.00000000000E+00  0.00000000000E+00  0.74505805969E-08  0.10566000000E+00  0.10566000000E+00 0. -1.
     999900   -1    0    0    0    0 -0.00000000000E+00 -0.00000000000E+00 -0.74505805969E-08  0.93827000000E+00  0.93827000000E+00 0. -1.
     999902    2    1    2    0    0 -0.14477416098E-01 -0.64544650413E-02  0.17700567475E-01  0.10201694069E+01  0.10198926674E+01 0.  0.
     999903    2    3    3    0    0 -0.60937216261E-01  0.78357522510E-01  0.85018624589E-01  0.13231620558E+00  0.20643790187E-01 0.  0.
         14    1    1    2    0    0  0.14477416098E-01  0.64544650413E-02 -0.17700567475E-01  0.23760593107E-01  0.00000000000E+00 0.  1.
     999901    1    3    3    0    0  0.46459800162E-01 -0.84811987551E-01 -0.67318057114E-01  0.88785320131E+00  0.88000000000E+00 0. -1.
        -11    1    4    4    0    0 -0.42188432743E-01  0.50007778206E-01  0.67761622652E-01  0.94194163109E-01  0.51100000000E-03 0.  1.
         11    1    4    4    0    0 -0.18748783518E-01  0.28349744304E-01  0.17257001938E-01  0.38122042474E-01  0.51100000000E-03 0. -1.
</event>
<event>
 8    1  0.1132255E+005  0.1043930E+01  0.7957747E-01            NaN
         13   -1    0    0    0    0  0.00000000000E+00  0.00000000000E+00  0.74505805969E-08  0.10566000000E+00  0.10566000000E+00 0. -1.
     999900   -1    0    0    0    0 -0.00000000000E+00 -0.00000000000E+00 -0.74505805969E-08  0.93827000000E+00  0.93827000000E+00 0. -1.
     999902    2    1    2    0    0 -0.19369585313E-01 -0.12764951282E-01 -0.90796777584E-02  0.10190188506E+01  0.10187143135E+01 0.  0.
     999903    2    3    3    0    0 -0.33294015023E-01 -0.19075386711E-02 -0.12518115916E+00  0.13121744987E+00  0.20870227635E-01 0.  0.
         14    1    1    2    0    0  0.19369585313E-01  0.12764951282E-01  0.90796777584E-02  0.24911149404E-01  0.00000000000E+00 0. -1.
     999901    1    3    3    0    0  0.13924429710E-01 -0.10857412610E-01  0.11610148140E+00  0.88780140073E+00  0.88000000000E+00 0.  1.
        -11    1    4    4    0    0 -0.21908109513E-01 -0.70227987320E-02 -0.10492453350E+00  0.10741835884E+00  0.51100000000E-03 0. -1.
         11    1    4    4    0    0 -0.11385905510E-01  0.51152600609E-02 -0.20256625662E-01  0.23799091032E-01  0.51100000000E-03 0.  1.
</event>
<event>
 8    1  0.1132255E+005  0.1043930E+01  0.7957747E-01            NaN
         13   -1    0    0    0    0  0.00000000000E+00  0.00000000000E+00  0.74505805969E-08  0.10566000000E+00  0.10566000000E+00 0.  1.
     999900   -1    0    0    0    0 -0.00000000000E+00 -0.00000000000E+00 -0.74505805969E-08  0.93827000000E+00  0.93827000000E+00 0.  1.
     999902    2    1    2    0    0 -0.20518714236E-01 -0.12178011299E-01  0.79976225709E-03  0.10200561396E+01  0.10197767239E+01 0.  0.
     999903    2    3    3    0    0  0.11104165012E+00 -0.24337432526E-01  0.56170495913E-01  0.12847221241E+00  0.20674285148E-01 0.  0.
         14    1    1    2    0    0  0.20518714236E-01  0.12178011299E-01 -0.79976225709E-03  0.23873860449E-01  0.00000000000E+00 0. -1.
     999901    1    3    3    0    0 -0.13156036436E+00  0.12159421227E-01 -0.55370733656E-01  0.89158392714E+00  0.88000000000E+00 0.  1.
        -11    1    4    4    0    0  0.60636791353E-01 -0.15740683751E-01  0.41949312965E-01  0.75396257001E-01  0.51100000000E-03 0.  1.
         11    1    4    4    0    0  0.50404858768E-01 -0.85967487749E-02  0.14221182948E-01  0.53075955406E-01  0.51100000000E-03 0. -1.
</event>
<event>
 8    1  0.1132255E+005  0.1043930E+01  0.7957747E-01            NaN
         13   -1    0    0    0    0  0.00000000000E+00  0.00000000000E+00  0.74505805969E-08  0.10566000000E+00  0.10566000000E+00 0. -1.
     999900   -1    0    0    0    0 -0.00000000000E+00 -0.00000000000E+00 -0.74505805969E-08  0.93827000000E+00  0.93827000000E+00 0.  1.
     999902    2    1    2    0    0 -0.20612043290E-01  0.16629395138E-01  0.16911935631E-01  0.10125069722E+01  0.10120192498E+01 0.  0.
     999903    2    3    3    0    0 -0.72358208602E-01 -0.93080932194E-01 -0.28779969067E-01  0.12301173795E+00  0.20095540879E-01 0.  0.
         14    1    1    2    0    0  0.20612043290E-01 -0.16629395138E-01 -0.16911935631E-01  0.31423027831E-01  0.00000000000E+00 0.  1.
     999901    1    3    3    0    0  0.51746165311E-01  0.10971032733E+00  0.45691904698E-01  0.88949523422E+00  0.88000000000E+00 0.  1.
        -11    1    4    4    0    0 -0.15583695691E-01 -0.87320757523E-02 -0.55710055607E-02  0.18718919368E-01  0.51100000000E-03 0.  1.
         11    1    4    4    0    0 -0.56774512910E-01 -0.84348856442E-01 -0.23208963506E-01  0.10429281858E+00  0.51100000000E-03 0. -1.
</event>
<event>
 8    1  0.1132255E+005  0.1043930E+01  0.7957747E-01            NaN
         13   -1    0    0    0    0  0.00000000000E+00  0.00000000000E+00  0.74505805969E-08  0.10566000000E+00  0.10566000000E+00 0.  1.
     999900   -1    0    0    0    0 -0.00000000000E+00 -0.00000000000E+00 -0.74505805969E-08  0.93827000000E+00  0.93827000000E+00 0.  1.
     999902    2    1    2    0    0 -0.31803111028E-02  0.22162234900E-01 -0.70313723489E-02  0.10204625921E+01  0.10201927184E+01 0.  0.
     999903    2    3    3    0    0 -0.17209539262E-01  0.11352353580E+00  0.65021641983E-01  0.13269272139E+00  0.13992246464E-01 0.  0.
         14    1    1    2    0    0  0.31803111028E-02 -0.22162234900E-01  0.70313723489E-02  0.23467407858E-01  0.00000000000E+00 0.  1.
     999901    1    3    3    0    0  0.14029228159E-01 -0.91361300900E-01 -0.72053014332E-01  0.88776987075E+00  0.88000000000E+00 0. -1.
        -11    1    4    4    0    0 -0.11545425130E-01  0.53521147212E-01  0.37952456012E-01  0.66621768804E-01  0.51100000000E-03 0. -1.
         11    1    4    4    0    0 -0.56641141319E-02  0.60002388588E-01  0.27069185971E-01  0.66070952584E-01  0.51100000000E-03 0.  1.
</event>
<event>
 8    1  0.1132255E+005  0.1043930E+01  0.7957747E-01            NaN
         13   -1    0    0    0    0  0.00000000000E+00  0.00000000000E+00  0.74505805969E-08  0.10566000000E+00  0.10566000000E+00 0.  1.
     999900   -1    0    0    0    0 -0.00000000000E+00 -0.00000000000E+00 -0.74505805969E-08  0.93827000000E+00  0.93827000000E+00 0.  1.
     999902    2    1    2    0    0  0.11087948750E-01  0.20492419120E-01  0.15556650982E-03  0.10206296556E+01  0.10203636547E+01 0.  0.
     999903    2    3    3    0    0 -0.12274675916E-01  0.52088026849E-01 -0.11908579444E+00  0.13171875070E+00  0.17452009607E-01 0.  0.
         14    1    1    2    0    0 -0.11087948750E-01 -0.20492419120E-01 -0.15556650982E-03  0.23300344414E-01  0.00000000000E+00 0. -1.
     999901    1    3    3    0    0  0.23362624666E-01 -0.31595607730E-01  0.11924136095E+00  0.88891090488E+00  0.88000000000E+00 0. -1.
        -11    1    4    4    0    0 -0.10543819899E-01  0.19171709128E-01 -0.62618758370E-01  0.66333223876E-01  0.51100000000E-03 0.  1.
         11    1    4    4    0    0 -0.17308560167E-02  0.32916317721E-01 -0.56467036070E-01  0.65385526827E-01  0.51100000000E-03 0. -1.
</event>
<event>
 8    1  0.1132255E+005  0.1043930E+01  0.7957747E-01            NaN
         13   -1    0    0    0    0  0.00000000000E+00  0.00000000000E+00  0.74505805969E-08  0.10566000000E+00  0.10566000000E+00 0.  1.
     999900   -1    0    0    0    0 -0.00000000000E+00 -0.00000000000E+00 -0.74505805969E-08  0.93827000000E+00  0.93827000000E+00 0. -1.
     999902    2    1    2    0    0  0.53740534950E-02  0.19165994991E-01 -0.12954750230E-01  0.10201804449E+01  0.10199039655E+01 0.  0.
     999903    2    3    3    0    0  0.94534488602E-01  0.83713534255E-01 -0.36667274221E-01  0.13300613742E+00  0.20035424648E-01 0.  0.
         14    1    1    2    0    0 -0.53740534950E-02 -0.19165994991E-01  0.12954750230E-01  0.23749555122E-01  0.00000000000E+00 0. -1.
     999901    1    3    3    0    0 -0.89160435107E-01 -0.64547539264E-01  0.23712523991E-01  0.88717430745E+00  0.88000000000E+00 0.  1.
        -11    1    4    4    0    0  0.45073298993E-01  0.47521984776E-01 -0.27481917713E-01  0.71031389128E-01  0.51100000000E-03 0. -1.
         11    1    4    4    0    0  0.49461189608E-01  0.36191549479E-01 -0.91853565083E-02  0.61974748296E-01  0.51100000000E-03 0.  1.
</event>
<event>
 8    1  0.1132255E+005  0.1043930E+01  0.7957747E-01            NaN
         13   -1    0    0    0    0  0.00000000000E+00  0.00000000000E+00  0.74505805969E-08  0.10566000000E+00  0.10566000000E+00 0.  1.
     999900   -1    0    0    0    0 -0.00000000000E+00 -0.00000000000E+00 -0.74505805969E-08  0.93827000000E+00  0.93827000000E+00 0. -1.
     999902    2    1    2    0    0  0.13849435359E-01 -0.14118455009E-01  0.29734276462E-01  0.10082191497E+01  0.10075865169E+01 0.  0.
     999903    2    3    3    0    0  0.44832056593E-01  0.10768488593E+00 -0.15322332081E-01  0.11814832407E+00  0.10876794727E-01 0.  0.
         14    1    1    2    0    0 -0.13849435359E-01  0.14118455009E-01 -0.29734276462E-01  0.35710850288E-01  0.00000000000E+00 0. -1.
     999901    1    3    3    0    0 -0.30982621234E-01 -0.12180334094E+00  0.45056608543E-01  0.89007082564E+00  0.88000000000E+00 0. -1.
        -11    1    4    4    0    0  0.35121786681E-01  0.86970397307E-01 -0.16494742363E-01  0.95235117231E-01  0.51100000000E-03 0. -1.
         11    1    4    4    0    0  0.97102699125E-02  0.20714488627E-01  0.11724102818E-02  0.22913206840E-01  0.51100000000E-03 0.  1.
</event>
<event>
 7    1  0.1132255E+005  0.1043930E+01  0.7957747E-01            NaN
         13   -1    0    0    0    0  0.00000000000E+00  0.00000000000E+00  0.74505805969E-08  0.10566000000E+00  0.10566000000E+00 0.  1.
     999900   -1    0    0    0    0 -0.00000000000E+00 -0.00000000000E+00 -0.74505805969E-08  0.93827000000E+00  0.93827000000E+00 0.  1.
     999903    2    1    2    0    0  0.58189177076E-01  0.89874342403E-01  0.17372720974E-01  0.11059611559E+00  0.21594249188E-01 0.  0.
         14    1    1    2    0    0  0.12537585623E-01  0.37841799796E-01  0.91914715367E-02  0.40910585599E-01  0.00000000000E+00 0. -1.
     999901    1    1    2    0    0 -0.70726762699E-01 -0.12771614220E+00 -0.26564192511E-01  0.89242329881E+00  0.88000000000E+00 0.  1.
        -11    1    3    3    0    0  0.54920326384E-01  0.71190380908E-01  0.17597642174E-01  0.91620143610E-01  0.51100000000E-03 0.  1.
         11    1    3    3    0    0  0.32688506923E-02  0.18683961495E-01 -0.22492119981E-03  0.18975971979E-01  0.51100000000E-03 0. -1.
</event>
<event>
 8    1  0.1132255E+005  0.1043930E+01  0.7957747E-01            NaN
         13   -1    0    0    0    0  0.00000000000E+00  0.00000000000E+00  0.74505805969E-08  0.10566000000E+00  0.10566000000E+00 0.  1.
     999900   -1    0    0    0    0 -0.00000000000E+00 -0.00000000000E+00 -0.74505805969E-08  0.93827000000E+00  0.93827000000E+00 0.  1.
     999902    2    1    2    0    0  0.15100928231E-01  0.41549412091E-02 -0.15483743881E-01  0.10219061971E+01  0.10216688445E+01 0.  0.
     999903    2    3    3    0    0  0.12754497079E+00 -0.22335368782E-01  0.25256138721E-01  0.13342145481E+00  0.19920436487E-01 0.  0.
         14    1    1    2    0    0 -0.15100928231E-01 -0.41549412091E-02  0.15483743881E-01  0.22023802907E-01  0.00000000000E+00 0.  1.
     999901    1    3    3    0    0 -0.11244404256E+00  0.26490309991E-01 -0.40739882602E-01  0.88848474228E+00  0.88000000000E+00 0.  1.
        -11    1    4    4    0    0  0.95144362716E-01 -0.17173734506E-01  0.98874472171E-02  0.97187497380E-01  0.51100000000E-03 0.  1.
         11    1    4    4    0    0  0.32400608071E-01 -0.51616342761E-02  0.15368691504E-01  0.36233957434E-01  0.51100000000E-03 0. -1.
</event>
<event>
 8    1  0.1132255E+005  0.1043930E+01  0.7957747E-01            NaN
         13   -1    0    0    0    0  0.00000000000E+00  0.00000000000E+00  0.74505805969E-08  0.10566000000E+00  0.10566000000E+00 0. -1.
     999900   -1    0    0    0    0 -0.00000000000E+00 -0.00000000000E+00 -0.74505805969E-08  0.93827000000E+00  0.93827000000E+00 0. -1.
     999902    2    1    2    0    0 -0.10968991392E-02  0.20675478794E-01  0.10636072365E-01  0.10206533025E+01  0.10203878475E+01 0.  0.
     999903    2    3    3    0    0 -0.17752405432E-01 -0.56857051494E-01  0.11597253266E+00  0.13083058476E+00  0.10915190096E-01 0.  0.
         14    1    1    2    0    0  0.10968991392E-02 -0.20675478794E-01 -0.10636072365E-01  0.23276697498E-01  0.00000000000E+00 0.  1.
     999901    1    3    3    0    0  0.16655506293E-01  0.77532530288E-01 -0.10533646029E+00  0.88982271774E+00  0.88000000000E+00 0. -1.
        -11    1    4    4    0    0 -0.15098645822E-01 -0.36500641945E-01  0.67891565731E-01  0.78548022168E-01  0.51100000000E-03 0.  1.
         11    1    4    4    0    0 -0.26537596096E-02 -0.20356409549E-01  0.48080966925E-01  0.52282562592E-01  0.51100000000E-03 0. -1.
</event>
<event>
 8    1  0.1132255E+005  0.1043930E+01  0.7957747E-01            NaN
         13   -1    0    0    0    0  0.00000000000E+00  0.00000000000E+00  0.74505805969E-08  0.10566000000E+00  0.10566000000E+00 0. -1.
     999900   -1    0    0    0    0 -0.00000000000E+00 -0.00000000000E+00 -0.74505805969E-08  0.93827000000E+00  0.93827000000E+00 0. -1.
     999902    2    1    2    0    0 -0.16997469994E-01 -0.14494327531E-01 -0.90894604688E-02  0.10198132463E+01  0.10195280475E+01 0.  0.
     999903    2    3    3    0    0 -0.73595213200E-01 -0.60659431770E-01 -0.90502956534E-01  0.13304231832E+00  0.20338418198E-01 0.  0.
         14    1    1    2    0    0  0.16997469994E-01  0.14494327531E-01  0.90894604688E-02  0.24116753687E-01  0.00000000000E+00 0.  1.
     999901    1    3    3    0    0  0.56597743206E-01  0.46165104239E-01  0.81413496065E-01  0.88677092799E+00  0.88000000000E+00 0.  1.
        -11    1    4    4    0    0 -0.19962614909E-01 -0.63572822955E-02 -0.15819014269E-01  0.26256872731E-01  0.51100000000E-03 0. -1.
         11    1    4    4    0    0 -0.53632598292E-01 -0.54302149474E-01 -0.74683942265E-01  0.10678544559E+00  0.51100000000E-03 0.  1.
</event>
<event>
 8    1  0.1132255E+005  0.1043930E+01  0.7957747E-01            NaN
         13   -1    0    0    0    0  0.00000000000E+00  0.00000000000E+00  0.74505805969E-08  0.10566000000E+00  0.10566000000E+00 0.  1.
     999900   -1    0    0    0    0 -0.00000000000E+00 -0.00000000000E+00 -0.74505805969E-08  0.93827000000E+00  0.93827000000E+00 0. -1.
     999902    2    1    2    0    0 -0.27216718906E-02  0.12392253243E-01 -0.19213368626E-01  0.10209054702E+01  0.10206458005E+01 0.  0.
     999903    2    3    3    0    0 -0.12521065167E+00 -0.69190757981E-02 -0.36081122328E-01  0.13205171468E+00  0.20254062791E-01 0.  0.
         14    1    1    2    0    0  0.27216718906E-02 -0.12392253243E-01  0.19213368626E-01  0.23024529795E-01  0.00000000000E+00 0.  1.
     999901    1    3    3    0    0  0.12248897978E+00  0.19311329041E-01  0.16867753703E-01  0.88885375553E+00  0.88000000000E+00 0.  1.
        -11    1    4    4    0    0 -0.10398812315E+00 -0.12687836873E-01 -0.26519525553E-01  0.10806506058E+00  0.51100000000E-03 0. -1.
         11    1    4    4    0    0 -0.21222528520E-01  0.57687610752E-02 -0.95615967757E-02  0.23986654103E-01  0.51100000000E-03 0.  1.
</event>
<event>
 8    1  0.1132255E+005  0.1043930E+01  0.7957747E-01            NaN
         13   -1    0    0    0    0  0.00000000000E+00  0.00000000000E+00  0.74505805969E-08  0.10566000000E+00  0.10566000000E+00 0. -1.
     999900   -1    0    0    0    0 -0.00000000000E+00 -0.00000000000E+00 -0.74505805969E-08  0.93827000000E+00  0.93827000000E+00 0.  1.
     999902    2    1    2    0    0 -0.28048522830E-02  0.17430067814E-01  0.17282773426E-01  0.10192243586E+01  0.10189248865E+01 0.  0.
     999903    2    3    3    0    0 -0.85420254171E-01  0.93621306534E-01 -0.26948675613E-01  0.13097505205E+00  0.19148479875E-01 0.  0.
         14    1    1    2    0    0  0.28048522830E-02 -0.17430067814E-01 -0.17282773426E-01  0.24705641413E-01  0.00000000000E+00 0. -1.
     999901    1    3    3    0    0  0.82615401888E-01 -0.76191238720E-01  0.44231449039E-01  0.88824930654E+00  0.88000000000E+00 0.  1.
        -11    1    4    4    0    0 -0.45531721033E-01  0.42388395225E-01 -0.21473893194E-01  0.65812634652E-01  0.51100000000E-03 0.  1.
         11    1    4    4    0    0 -0.39888533137E-01  0.51232911309E-01 -0.54747824186E-02  0.65162417394E-01  0.51100000000E-03 0. -1.
</event>
<event>
 8    1  0.1132255E+005  0.1043930E+01  0.7957747E-01            NaN
         13   -1    0    0    0    0  0.00000000000E+00  0.00000000000E+00  0.74505805969E-08  0.10566000000E+00  0.10566000000E+00 0.  1.
     999900   -1    0    0    0    0 -0.00000000000E+00 -0.00000000000E+00 -0.74505805969E-08  0.93827000000E+00  0.93827000000E+00 0. -1.
     999902    2    1    2    0    0 -0.15642257287E-01  0.17666873356E-02  0.18001881196E-01  0.10200162148E+01  0.10197358527E+01 0.  0.
     999903    2    3    3    0    0  0.92928886401E-01  0.78614310804E-01  0.40397268772E-01  0.12973827848E+00  0.19598310820E-01 0.  0.
         14    1    1    2    0    0  0.15642257287E-01 -0.17666873356E-02 -0.18001881196E-01  0.23913785225E-01  0.00000000000E+00 0.  1.
     999901    1    3    3    0    0 -0.10857114369E+00 -0.76847623469E-01 -0.22395387575E-01  0.89027793630E+00  0.88000000000E+00 0. -1.
        -11    1    4    4    0    0  0.27208346132E-01  0.24115137685E-01  0.21673561612E-01  0.42330111727E-01  0.51100000000E-03 0.  1.
         11    1    4    4    0    0  0.65720540269E-01  0.54499173119E-01  0.18723707160E-01  0.87408166750E-01  0.51100000000E-03 0. -1.
</event>
<event>
 8    1  0.1132255E+005  0.1043930E+01  0.7957747E-01            NaN
         13   -1    0    0    0    0  0.00000000000E+00  0.00000000000E+00  0.74505805969E-08  0.10566000000E+00  0.10566000000E+00 0.  1.
     999900   -1    0    0    0    0 -0.00000000000E+00 -0.00000000000E+00 -0.74505805969E-08  0.93827000000E+00  0.93827000000E+00 0.  1.
     999902    2    1    2    0    0  0.21699534262E-01  0.42035447156E-02  0.15847589112E-01  0.10167328374E+01  0.10163690161E+01 0.  0.
     999903    2    3    3    0    0 -0.11699427502E+00  0.17355062265E-01  0.37990965652E-01  0.12549815206E+00  0.17821731806E-01 0.  0.
         14    1    1    2    0    0 -0.21699534262E-01 -0.42035447156E-02 -0.15847589112E-01  0.27197162647E-01  0.00000000000E+00 0. -1.
     999901    1    3    3    0    0  0.13869380928E+00 -0.13151517550E-01 -0.22143376540E-01  0.89123468529E+00  0.88000000000E+00 0.  1.
        -11    1    4    4    0    0 -0.65538049475E-01  0.16922984618E-01  0.27006934936E-01  0.72878384951E-01  0.51100000000E-03 0. -1.
         11    1    4    4    0    0 -0.51456225548E-01  0.43207764735E-03  0.10984030717E-01  0.52619767108E-01  0.51100000000E-03 0.  1.
</event>
<event>
 8    1  0.1132255E+005  0.1043930E+01  0.7957747E-01            NaN
         13   -1    0    0    0    0  0.00000000000E+00  0.00000000000E+00  0.74505805969E-08  0.10566000000E+00  0.10566000000E+00 0. -1.
     999900   -1    0    0    0    0 -0.00000000000E+00 -0.00000000000E+00 -0.74505805969E-08  0.93827000000E+00  0.93827000000E+00 0.  1.
     999902    2    1    2    0    0  0.36122780667E-02  0.23034174400E-01  0.49777351783E-02  0.10200888677E+01  0.10198102266E+01 0.  0.
     999903    2    3    3    0    0 -0.88361645975E-01 -0.20008921718E-01 -0.89868589634E-01  0.12918610297E+00  0.20113387827E-01 0.  0.
         14    1    1    2    0    0 -0.36122780667E-02 -0.23034174400E-01 -0.49777351783E-02  0.23841132327E-01  0.00000000000E+00 0.  1.
     999901    1    3    3    0    0  0.91973924041E-01  0.43043096118E-01  0.94846324812E-01  0.89090276470E+00  0.88000000000E+00 0. -1.
        -11    1    4    4    0    0 -0.48509126793E-01 -0.21054021877E-01 -0.53362832794E-01  0.75128292036E-01  0.51100000000E-03 0. -1.
         11    1    4    4    0    0 -0.39852519182E-01  0.10451001583E-02 -0.36505756839E-01  0.54057810933E-01  0.51100000000E-03 0.  1.
</event>
<event>
 8    1  0.1132255E+005  0.1043930E+01  0.7957747E-01            NaN
         13   -1    0    0    0    0  0.00000000000E+00  0.00000000000E+00  0.74505805969E-08  0.10566000000E+00  0.10566000000E+00 0.  1.
     999900   -1    0    0    0    0 -0.00000000000E+00 -0.00000000000E+00 -0.74505805969E-08  0.93827000000E+00  0.93827000000E+00 0. -1.
     999902    2    1    2    0    0  0.44241968318E-02  0.16451184131E-01 -0.16636650967E-01  0.10201183824E+01  0.10198404390E+01 0.  0.
     999903    2    3    3    0    0  0.25341290882E-01  0.81124077358E-02  0.12427408400E+00  0.12862362906E+00  0.19798934693E-01 0.  0.
         14    1    1    2    0    0 -0.44241968318E-02 -0.16451184131E-01  0.16636650967E-01  0.23811617592E-01  0.00000000000E+00 0. -1.
     999901    1    3    3    0    0 -0.20917094051E-01  0.83387763954E-02 -0.14091073497E+00  0.89149475335E+00  0.88000000000E+00 0. -1.
        -11    1    4    4    0    0  0.20200841302E-01  0.54142564356E-03  0.10860963074E+00  0.11047479415E+00  0.51100000000E-03 0. -1.
         11    1    4    4    0    0  0.51404495807E-02  0.75709820923E-02  0.15664453264E-01  0.18148834915E-01  0.51100000000E-03 0.  1.
</event>
<event>
 8    1  0.1132255E+005  0.1043930E+01  0.7957747E-01            NaN
         13   -1    0    0    0    0  0.00000000000E+00  0.00000000000E+00  0.74505805969E-08  0.10566000000E+00  0.10566000000E+00 0.  1.
     999900   -1    0    0    0    0 -0.00000000000E+00 -0.00000000000E+00 -0.74505805969E-08  0.93827000000E+00  0.93827000000E+00 0. -1.
     999902    2    1    2    0    0 -0.17162427257E-01 -0.15977152080E-01  0.22273774238E-02  0.10203762422E+01  0.10201043555E+01 0.  0.
     999903    2    3    3    0    0  0.37893930516E-01  0.69480202797E-01 -0.99452751273E-01  0.12870757578E+00  0.20281562510E-01 0.  0.
         14    1    1    2    0    0  0.17162427257E-01  0.15977152080E-01 -0.22273774238E-02  0.23553757835E-01  0.00000000000E+00 0. -1.
     999901    1    3    3    0    0 -0.55056357773E-01 -0.85457354878E-01  0.10168012870E+00  0.89166866638E+00  0.88000000000E+00 0. -1.
        -11    1    4    4    0    0  0.34763251947E-01  0.53064637332E-01 -0.67423360351E-01  0.92577049332E-01  0.51100000000E-03 0.  1.
         11    1    4    4    0    0  0.31306785685E-02  0.16415565466E-01 -0.32029390922E-01  0.36130526452E-01  0.51100000000E-03 0. -1.
</event>
<event>
 8    1  0.1132255E+005  0.1043930E+01  0.7957747E-01            NaN
         13   -1    0    0    0    0  0.00000000000E+00  0.00000000000E+00  0.74505805969E-08  0.10566000000E+00  0.10566000000E+00 0. -1.
     999900   -1    0    0    0    0 -0.00000000000E+00 -0.00000000000E+00 -0.74505805969E-08  0.93827000000E+00  0.93827000000E+00 0. -1.
     999902    2    1    2    0    0 -0.19460737679E-01  0.31546305037E-02 -0.89012102890E-02  0.10222989217E+01  0.10220700474E+01 0.  0.
     999903    2    3    3    0    0  0.35641433100E-01  0.10749887688E+00  0.60338089253E-01  0.13172716625E+00  0.29749639117E-01 0.  0.
         14    1    1    2    0    0  0.19460737679E-01 -0.31546305037E-02  0.89012102890E-02  0.21631078319E-01  0.00000000000E+00 0. -1.
     999901    1    3    3    0    0 -0.55102170779E-01 -0.10434424638E+00 -0.69239299542E-01  0.89057175543E+00  0.88000000000E+00 0.  1.
        -11    1    4    4    0    0  0.72611228194E-02  0.55966521950E-01  0.17981278420E-01  0.59233123997E-01  0.51100000000E-03 0. -1.
         11    1    4    4    0    0  0.28380310280E-01  0.51532354935E-01  0.42356810833E-01  0.72494042249E-01  0.51100000000E-03 0.  1.
</event>
<event>
 8    1  0.1132255E+005  0.1043930E+01  0.7957747E-01            NaN
         13   -1    0    0    0    0  0.00000000000E+00  0.00000000000E+00  0.74505805969E-08  0.10566000000E+00  0.10566000000E+00 0. -1.
     999900   -1    0    0    0    0 -0.00000000000E+00 -0.00000000000E+00 -0.74505805969E-08  0.93827000000E+00  0.93827000000E+00 0. -1.
     999902    2    1    2    0    0  0.22033937430E-01 -0.86419780454E-02  0.18793222467E-02  0.10201874215E+01  0.10199111064E+01 0.  0.
     999903    2    3    3    0    0 -0.75548766711E-01  0.84794199230E-01  0.56125462737E-01  0.12822590485E+00  0.19853028295E-01 0.  0.
         14    1    1    2    0    0 -0.22033937430E-01  0.86419780454E-02 -0.18793222467E-02  0.23742578531E-01  0.00000000000E+00 0.  1.
     999901    1    3    3    0    0  0.97582704141E-01 -0.93436177276E-01 -0.54246140490E-01  0.89196151662E+00  0.88000000000E+00 0. -1.
        -11    1    4    4    0    0 -0.28137215281E-01  0.29172488821E-01  0.30677488992E-01  0.50834107051E-01  0.51100000000E-03 0.  1.
         11    1    4    4    0    0 -0.47411551431E-01  0.55621710409E-01  0.25447973745E-01  0.77391797799E-01  0.51100000000E-03 0. -1.
</event>
<event>
 8    1  0.1132255E+005  0.1043930E+01  0.7957747E-01            NaN
         13   -1    0    0    0    0  0.00000000000E+00  0.00000000000E+00  0.74505805969E-08  0.10566000000E+00  0.10566000000E+00 0. -1.
     999900   -1    0    0    0    0 -0.00000000000E+00 -0.00000000000E+00 -0.74505805969E-08  0.93827000000E+00  0.93827000000E+00 0. -1.
     999902    2    1    2    0    0  0.18606866471E-01 -0.30919342443E-02 -0.13910440822E-01  0.10204933641E+01  0.10202242059E+01 0.  0.
     999903    2    3    3    0    0  0.50282323006E-03  0.10038577996E+00 -0.82801244678E-01  0.13157191845E+00  0.19431056468E-01 0.  0.
         14    1    1    2    0    0 -0.18606866471E-01  0.30919342443E-02  0.13910440822E-01  0.23436635874E-01  0.00000000000E+00 0. -1.
     999901    1    3    3    0    0  0.18104043241E-01 -0.10347771421E+00  0.68890803856E-01  0.88892144567E+00  0.88000000000E+00 0. -1.
        -11    1    4    4    0    0  0.89685680435E-02  0.41969315345E-01 -0.39882234228E-01  0.58589353737E-01  0.51100000000E-03 0. -1.
         11    1    4    4    0    0 -0.84657448134E-02  0.58416464617E-01 -0.42919010450E-01  0.72982564717E-01  0.51100000000E-03 0.  1.
</event>
<event>
 8    1  0.1132255E+005  0.1043930E+01  0.7957747E-01            NaN
         13   -1    0    0    0    0  0.00000000000E+00  0.00000000000E+00  0.74505805969E-08  0.10566000000E+00  0.10566000000E+00 0.  1.
     999900   -1    0    0    0    0 -0.00000000000E+00 -0.00000000000E+00 -0.74505805969E-08  0.93827000000E+00  0.93827000000E+00 0.  1.
     999902    2    1    2    0    0 -0.83441337645E-02 -0.18962058701E-01 -0.12634714821E-01  0.10196643812E+01  0.10193756079E+01 0.  0.
     999903    2    3    3    0    0  0.46925877216E-01 -0.99793156337E-01 -0.70573529672E-01  0.13233955523E+00  0.19298258607E-01 0.  0.
         14    1    1    2    0    0  0.83441337645E-02  0.18962058701E-01  0.12634714821E-01  0.24265618827E-01  0.00000000000E+00 0.  1.
     999901    1    3    3    0    0 -0.55270010980E-01  0.80831097636E-01  0.57938814851E-01  0.88732482594E+00  0.88000000000E+00 0. -1.
        -11    1    4    4    0    0  0.20823189831E-01 -0.65045457599E-01 -0.46854531514E-01  0.82825871763E-01  0.51100000000E-03 0. -1.
         11    1    4    4    0    0  0.26102687385E-01 -0.34747698738E-01 -0.23718998159E-01  0.49513683472E-01  0.51100000000E-03 0.  1.
</event>
<event>
 8    1  0.1132255E+005  0.1043930E+01  0.7957747E-01            NaN
         13   -1    0    0    0    0  0.00000000000E+00  0.00000000000E+00  0.74505805969E-08  0.10566000000E+00  0.10566000000E+00 0.  1.
     999900   -1    0    0    0    0 -0.00000000000E+00 -0.00000000000E+00 -0.74505805969E-08  0.93827000000E+00  0.93827000000E+00 0. -1.
     999902    2    1    2    0    0 -0.23827236691E-02  0.27320892425E-02  0.23286757405E-01  0.10203627610E+01  0.10200905594E+01 0.  0.
     999903    2    3    3    0    0 -0.10230532712E+00 -0.47363975577E-01 -0.60651782020E-01  0.12932975331E+00  0.18379888183E-01 0.  0.
         14    1    1    2    0    0  0.23827236691E-02 -0.27320892425E-02 -0.23286757405E-01  0.23567239001E-01  0.00000000000E+00 0. -1.
     999901    1    3    3    0    0  0.99922603450E-01  0.50096064820E-01  0.83938539425E-01  0.89103300769E+00  0.88000000000E+00 0.  1.
        -11    1    4    4    0    0 -0.19739046997E-01 -0.31550718866E-02 -0.15804353778E-01  0.25487706337E-01  0.51100000000E-03 0.  1.
         11    1    4    4    0    0 -0.82566280121E-01 -0.44208903691E-01 -0.44847428243E-01  0.10384204697E+00  0.51100000000E-03 0. -1.
</event>
<event>
 8    1  0.1132255E+005  0.1043930E+01  0.7957747E-01            NaN
         13   -1    0    0    0    0  0.00000000000E+00  0.00000000000E+00  0.74505805969E-08  0.10566000000E+00  0.10566000000E+00 0.  1.
     999900   -1    0    0    0    0 -0.00000000000E+00 -0.00000000000E+00 -0.74505805969E-08  0.93827000000E+00  0.93827000000E+00 0.  1.
     999902    2    1    2    0    0 -0.30763226779E-02 -0.14678507857E-01  0.15297573594E-01  0.10225071591E+01  0.10222827164E+01 0.  0.
     999903    2    3    3    0    0  0.23095446481E-01  0.12705977654E+00  0.13578608995E-01  0.13077981423E+00  0.15536882698E-01 0.  0.
         14    1    1    2    0    0  0.30763226779E-02  0.14678507857E-01 -0.15297573594E-01  0.21422840895E-01  0.00000000000E+00 0. -1.
     999901    1    3    3    0    0 -0.26171769159E-01 -0.14173828440E+00  0.17189645996E-02  0.89172734488E+00  0.88000000000E+00 0.  1.
        -11    1    4    4    0    0  0.23992867873E-01  0.10971555631E+00  0.15182233629E-01  0.11333102993E+00  0.51100000000E-03 0.  1.
         11    1    4    4    0    0 -0.89742139186E-03  0.17344220229E-01 -0.16036246343E-02  0.17448784298E-01  0.51100000000E-03 0. -1.
</event>
<event>
 8    1  0.1132255E+005  0.1043930E+01  0.7957747E-01            NaN
         13   -1    0    0    0    0  0.00000000000E+00  0.00000000000E+00  0.74505805969E-08  0.10566000000E+00  0.10566000000E+00 0.  1.
     999900   -1    0    0    0    0 -0.00000000000E+00 -0.00000000000E+00 -0.74505805969E-08  0.93827000000E+00  0.93827000000E+00 0. -1.
     999902    2    1    2    0    0  0.19448653230E-01  0.15383713767E-01 -0.78185023357E-03  0.10191203234E+01  0.10188182927E+01 0.  0.
     999903    2    3    3    0    0  0.42230139776E-01 -0.10453287141E+00  0.58731106817E-01  0.12870425462E+00  0.20123030097E-01 0.  0.
         14    1    1    2    0    0 -0.19448653230E-01 -0.15383713767E-01  0.78185023357E-03  0.24809676570E-01  0.00000000000E+00 0.  1.
     999901    1    3    3    0    0 -0.22781486546E-01  0.11991658518E+00 -0.59512957050E-01  0.89041606881E+00  0.88000000000E+00 0. -1.
        -11    1    4    4    0    0  0.41335537973E-01 -0.81680212136E-01  0.44790341933E-01  0.10191525698E+00  0.51100000000E-03 0. -1.
         11    1    4    4    0    0  0.89460180290E-03 -0.22852659272E-01  0.13940764884E-01  0.26788997644E-01  0.51100000000E-03 0.  1.
</event>
<event>
 8    1  0.1132255E+005  0.1043930E+01  0.7957747E-01            NaN
         13   -1    0    0    0    0  0.00000000000E+00  0.00000000000E+00  0.74505805969E-08  0.10566000000E+00  0.10566000000E+00 0.  1.
     999900   -1    0    0    0    0 -0.00000000000E+00 -0.00000000000E+00 -0.74505805969E-08  0.93827000000E+00  0.93827000000E+00 0. -1.
     999902    2    1    2    0    0 -0.45379226975E-02  0.23133302400E-01 -0.35822093414E-02  0.10200851967E+01  0.10198064688E+01 0.  0.
     999903    2    3    3    0    0  0.45326388482E-01 -0.99239432708E-01  0.63660769480E-01  0.12768217447E+00  0.18630555782E-01 0.  0.
         14    1    1    2    0    0  0.45379226975E-02 -0.23133302400E-01  0.35822093414E-02  0.23844803335E-01  0.00000000000E+00 0. -1.
     999901    1    3    3    0    0 -0.49864311179E-01  0.12237273511E+00 -0.67242978822E-01  0.89240302220E+00  0.88000000000E+00 0. -1.
        -11    1    4    4    0    0  0.31741072737E-01 -0.51768115324E-01  0.28618059493E-01  0.67131869576E-01  0.51100000000E-03 0. -1.
         11    1    4    4    0    0  0.13585315745E-01 -0.47471317385E-01  0.35042709987E-01  0.60550304891E-01  0.51100000000E-03 0.  1.
</event>
<event>
 8    1  0.1132255E+005  0.1043930E+01  0.7957747E-01            NaN
         13   -1    0    0    0    0  0.00000000000E+00  0.00000000000E+00  0.74505805969E-08  0.10566000000E+00  0.10566000000E+00 0. -1.
     999900   -1    0    0    0    0 -0.00000000000E+00 -0.00000000000E+00 -0.74505805969E-08  0.93827000000E+00  0.93827000000E+00 0.  1.
     999902    2    1    2    0    0  0.13587867613E-01  0.14095988957E-01  0.14093590838E-01  0.10198062285E+01  0.10195208616E+01 0.  0.
     999903    2    3    3    0    0  0.55891293422E-01  0.13770639413E-01  0.11777933400E+00  0.13270960518E+00  0.20649469732E-01 0.  0.
         14    1    1    2    0    0 -0.13587867613E-01 -0.14095988957E-01 -0.14093590838E-01  0.24123771547E-01  0.00000000000E+00 0.  1.
     999901    1    3    3    0    0 -0.42303425810E-01  0.32534954460E-03 -0.10368574316E+00  0.88709662327E+00  0.88000000000E+00 0.  1.
        -11    1    4    4    0    0  0.20955021281E-02  0.62354573856E-02  0.16726273039E-01  0.17980583660E-01  0.51100000000E-03 0. -1.
         11    1    4    4    0    0  0.53795791294E-01  0.75351820273E-02  0.10105306096E+00  0.11472902152E+00  0.51100000000E-03 0.  1.
</event>
<event>
 8    1  0.1132255E+005  0.1043930E+01  0.7957747E-01            NaN
         13   -1    0    0    0    0  0.00000000000E+00  0.00000000000E+00  0.74505805969E-08  0.10566000000E+00  0.10566000000E+00 0. -1.
     999900   -1    0    0    0    0 -0.00000000000E+00 -0.00000000000E+00 -0.74505805969E-08  0.93827000000E+00  0.93827000000E+00 0.  1.
     999902    2    1    2    0    0  0.20124875547E-01 -0.34386154530E-02  0.11892587974E-01  0.10203022972E+01  0.10200286806E+01 0.  0.
     999903    2    3    3    0    0 -0.62583470405E-01 -0.10175578600E+00 -0.45175606605E-01  0.12914366071E+00  0.19139459686E-01 0.  0.
         14    1    1    2    0    0 -0.20124875547E-01  0.34386154530E-02 -0.11892587974E-01  0.23627702824E-01  0.00000000000E+00 0.  1.
     999901    1    3    3    0    0  0.82708345952E-01  0.98317170548E-01  0.57068194579E-01  0.89115863647E+00  0.88000000000E+00 0.  1.
        -11    1    4    4    0    0 -0.44560456000E-01 -0.64086908946E-01 -0.37826733936E-01  0.86740354267E-01  0.51100000000E-03 0. -1.
         11    1    4    4    0    0 -0.18023014404E-01 -0.37668877055E-01 -0.73488726694E-02  0.42403306443E-01  0.51100000000E-03 0.  1.
</event>
<event>
 8    1  0.1132255E+005  0.1043930E+01  0.7957747E-01            NaN
         13   -1    0    0    0    0  0.00000000000E+00  0.00000000000E+00  0.74505805969E-08  0.10566000000E+00  0.10566000000E+00 0. -1.
     999900   -1    0    0    0    0 -0.00000000000E+00 -0.00000000000E+00 -0.74505805969E-08  0.93827000000E+00  0.93827000000E+00 0.  1.
     999902    2    1    2    0    0  0.43364753446E-02 -0.23066571023E-01  0.17327344203E-02  0.10203954704E+01  0.10201240326E+01 0.  0.
     999903    2    3    3    0    0  0.57926160554E-01  0.71688560623E-02  0.11557631545E+00  0.13093136408E+00  0.19450059936E-01 0.  0.
         14    1    1    2    0    0 -0.43364753446E-02  0.23066571023E-01 -0.17327344203E-02  0.23534529648E-01  0.00000000000E+00 0.  1.
     999901    1    3    3    0    0 -0.53589685209E-01 -0.30235427086E-01 -0.11384358103E+00  0.88946410628E+00  0.88000000000E+00 0.  1.
        -11    1    4    4    0    0  0.53797219722E-01  0.69912956074E-03  0.10237233429E+00  0.11565027272E+00  0.51100000000E-03 0.  1.
         11    1    4    4    0    0  0.41289408315E-02  0.64697265016E-02  0.13203981166E-01  0.15281091356E-01  0.51100000000E-03 0. -1.
</event>
<event>
 8    1  0.1132255E+005  0.1043930E+01  0.7957747E-01            NaN
         13   -1    0    0    0    0  0.00000000000E+00  0.00000000000E+00  0.74505805969E-08  0.10566000000E+00  0.10566000000E+00 0.  1.
     999900   -1    0    0    0    0 -0.00000000000E+00 -0.00000000000E+00 -0.74505805969E-08  0.93827000000E+00  0.93827000000E+00 0.  1.
     999902    2    1    2    0    0 -0.18176339262E-01  0.12814463395E-01  0.32505459211E-02  0.10214543280E+01  0.10212070253E+01 0.  0.
     999903    2    3    3    0    0  0.81743169024E-01 -0.47102780663E-01 -0.86236823571E-01  0.12927610954E+00  0.19362467053E-01 0.  0.
         14    1    1    2    0    0  0.18176339262E-01 -0.12814463395E-01 -0.32505459211E-02  0.22475671956E-01  0.00000000000E+00 0. -1.
     999901    1    3    3    0    0 -0.99919508287E-01  0.59917244058E-01  0.89487369492E-01  0.89217821850E+00  0.88000000000E+00 0. -1.
        -11    1    4    4    0    0  0.42235921424E-01 -0.30312066601E-01 -0.36225253096E-01  0.63365799317E-01  0.51100000000E-03 0.  1.
         11    1    4    4    0    0  0.39507247601E-01 -0.16790714062E-01 -0.50011570474E-01  0.65910310225E-01  0.51100000000E-03 0. -1.
</event>
<event>
 8    1  0.1132255E+005  0.1043930E+01  0.7957747E-01            NaN
         13   -1    0    0    0    0  0.00000000000E+00  0.00000000000E+00  0.74505805969E-08  0.10566000000E+00  0.10566000000E+00 0.  1.
     999900   -1    0    0    0    0 -0.00000000000E+00 -0.00000000000E+00 -0.74505805969E-08  0.93827000000E+00  0.93827000000E+00 0.  1.
     999902    2    1    2    0    0 -0.49080145656E-02  0.22592974678E-01 -0.14789710687E-03  0.10208095981E+01  0.10205477365E+01 0.  0.
     999903    2    3    3    0    0 -0.22719206334E-01  0.54896202982E-01  0.11653792871E+00  0.13234107355E+00  0.20082716002E-01 0.  0.
         14    1    1    2    0    0  0.49080145656E-02 -0.22592974678E-01  0.14789710687E-03  0.23120401929E-01  0.00000000000E+00 0.  1.
     999901    1    3    3    0    0  0.17811191768E-01 -0.32303228304E-01 -0.11668582582E+00  0.88846852452E+00  0.88000000000E+00 0.  1.
        -11    1    4    4    0    0  0.61420036382E-05  0.12124148233E-01  0.39674214844E-01  0.41488546041E-01  0.51100000000E-03 0.  1.
         11    1    4    4    0    0 -0.22725348337E-01  0.42772054749E-01  0.76863713870E-01  0.90852527513E-01  0.51100000000E-03 0. -1.
</event>
<event>
 8    1  0.1132255E+005  0.1043930E+01  0.7957747E-01            NaN
         13   -1    0    0    0    0  0.00000000000E+00  0.00000000000E+00  0.74505805969E-08  0.10566000000E+00  0.10566000000E+00 0.  1.
     999900   -1    0    0    0    0 -0.00000000000E+00 -0.00000000000E+00 -0.74505805969E-08  0.93827000000E+00  0.93827000000E+00 0. -1.
     999902    2    1    2    0    0 -0.91540278127E-02 -0.12670377480E-01 -0.17988673379E-01  0.10200987797E+01  0.10198203731E+01 0.  0.
     999903    2    3    3    0    0  0.26961890601E-01 -0.12285380732E+00  0.31806050161E-01  0.13109694491E+00  0.18835674132E-01 0.  0.
         14    1    1    2    0    0  0.91540278127E-02  0.12670377480E-01  0.17988673379E-01  0.23831220292E-01  0.00000000000E+00 0.  1.
     999901    1    3    3    0    0 -0.36115918413E-01  0.11018342984E+00 -0.49794723539E-01  0.88900183479E+00  0.88000000000E+00 0. -1.
        -11    1    4    4    0    0  0.96061957584E-02 -0.84343078947E-01  0.19569265314E-01  0.87116308629E-01  0.51100000000E-03 0.  1.
         11    1    4    4    0    0  0.17355694842E-01 -0.38510728377E-01  0.12236784847E-01  0.43980636284E-01  0.51100000000E-03 0. -1.
</event>
<event>
 8    1  0.1132255E+005  0.1043930E+01  0.7957747E-01            NaN
         13   -1    0    0    0    0  0.00000000000E+00  0.00000000000E+00  0.74505805969E-08  0.10566000000E+00  0.10566000000E+00 0. -1.
     999900   -1    0    0    0    0 -0.00000000000E+00 -0.00000000000E+00 -0.74505805969E-08  0.93827000000E+00  0.93827000000E+00 0.  1.
     999902    2    1    2    0    0  0.10056102863E-01  0.19371247154E-01  0.12059844021E-01  0.10189938764E+01  0.10186887208E+01 0.  0.
     999903    2    3    3    0    0  0.99223052875E-01 -0.69016558766E-01  0.42110096523E-01  0.12957487118E+00  0.20196222603E-01 0.  0.
         14    1    1    2    0    0 -0.10056102863E-01 -0.19371247154E-01 -0.12059844021E-01  0.24936123574E-01  0.00000000000E+00 0.  1.
     999901    1    3    3    0    0 -0.89166950012E-01  0.88387805920E-01 -0.30050252502E-01  0.88941900524E+00  0.88000000000E+00 0. -1.
        -11    1    4    4    0    0  0.14048974708E-02 -0.12332654306E-02  0.42787459779E-02  0.46971766700E-02  0.51100000000E-03 0. -1.
         11    1    4    4    0    0  0.97818155404E-01 -0.67783293335E-01  0.37831350545E-01  0.12487769451E+00  0.51100000000E-03 0.  1.
</event>
<event>
 8    1  0.1132255E+005  0.1043930E+01  0.7957747E-01            NaN
         13   -1    0    0    0    0  0.00000000000E+00  0.00000000000E+00  0.74505805969E-08  0.10566000000E+00  0.10566000000E+00 0.  1.
     999900   -1    0    0    0    0 -0.00000000000E+00 -0.00000000000E+00 -0.74505805969E-08  0.93827000000E+00  0.93827000000E+00 0.  1.
     999902    2    1    2    0    0  0.14648773145E-01 -0.83447843334E-02  0.17566143405E-01  0.10195826927E+01  0.10192919483E+01 0.  0.
     999903    2    3    3    0    0 -0.29929427134E-01  0.26770856977E-01  0.12284092059E+00  0.13149311221E+00  0.24250719459E-01 0.  0.
         14    1    1    2    0    0 -0.14648773145E-01  0.83447843334E-02 -0.17566143405E-01  0.24347307332E-01  0.00000000000E+00 0. -1.
     999901    1    3    3    0    0  0.44578200279E-01 -0.35115641311E-01 -0.10527477719E+00  0.88808958046E+00  0.88000000000E+00 0.  1.
        -11    1    4    4    0    0  0.26858870436E-02  0.95884344821E-02  0.23287955811E-01  0.25332628602E-01  0.51100000000E-03 0.  1.
         11    1    4    4    0    0 -0.32615314178E-01  0.17182422495E-01  0.99552964784E-01  0.10616048361E+00  0.51100000000E-03 0. -1.
</event>
<event>
 8    1  0.1132255E+005  0.1043930E+01  0.7957747E-01            NaN
         13   -1    0    0    0    0  0.00000000000E+00  0.00000000000E+00  0.74505805969E-08  0.10566000000E+00  0.10566000000E+00 0.  1.
     999900   -1    0    0    0    0 -0.00000000000E+00 -0.00000000000E+00 -0.74505805969E-08  0.93827000000E+00  0.93827000000E+00 0.  1.
     999902    2    1    2    0    0 -0.50333959699E-02 -0.16517831901E-02  0.22977442035E-01  0.10203497900E+01  0.10200772851E+01 0.  0.
     999903    2    3    3    0    0  0.85257154755E-01  0.87451436112E-01  0.43097281609E-01  0.13102612831E+00  0.19847783317E-01 0.  0.
         14    1    1    2    0    0  0.50333959699E-02  0.16517831901E-02 -0.22977442035E-01  0.23580210033E-01  0.00000000000E+00 0. -1.
     999901    1    3    3    0    0 -0.90290550725E-01 -0.89103219302E-01 -0.20119839574E-01  0.88932366166E+00  0.88000000000E+00 0. -1.
        -11    1    4    4    0    0  0.75202931860E-01  0.78118307956E-01  0.31132657787E-01  0.11281602058E+00  0.51100000000E-03 0.  1.
         11    1    4    4    0    0  0.10054222895E-01  0.93331281559E-02  0.11964623822E-01  0.18210107726E-01  0.51100000000E-03 0. -1.
</event>
<event>
 8    1  0.1132255E+005  0.1043930E+01  0.7957747E-01            NaN
         13   -1    0    0    0    0  0.00000000000E+00  0.00000000000E+00  0.74505805969E-08  0.10566000000E+00  0.10566000000E+00 0.  1.
     999900   -1    0    0    0    0 -0.00000000000E+00 -0.00000000000E+00 -0.74505805969E-08  0.93827000000E+00  0.93827000000E+00 0.  1.
     999902    2    1    2    0    0 -0.20509590108E-01 -0.34012319252E-02 -0.95279960979E-02  0.10210609297E+01  0.10208047942E+01 0.  0.
     999903    2    3    3    0    0  0.80417532550E-01  0.92996891425E-01  0.34008523948E-01  0.12899909844E+00  0.19203810615E-01 0.  0.
         14    1    1    2    0    0  0.20509590108E-01  0.34012319252E-02  0.95279960979E-02  0.22869070262E-01  0.00000000000E+00 0. -1.
     999901    1    3    3    0    0 -0.10092712266E+00 -0.96398123350E-01 -0.43536520046E-01  0.89206183129E+00  0.88000000000E+00 0.  1.
        -11    1    4    4    0    0  0.40643881015E-01  0.57388987640E-01  0.12425671960E-01  0.71414840272E-01  0.51100000000E-03 0.  1.
         11    1    4    4    0    0  0.39773651534E-01  0.35607903785E-01  0.21582851988E-01  0.57584258172E-01  0.51100000000E-03 0. -1.
</event>
<event>
 8    1  0.1132255E+005  0.1043930E+01  0.7957747E-01            NaN
         13   -1    0    0    0    0  0.00000000000E+00  0.00000000000E+00  0.74505805969E-08  0.10566000000E+00  0.10566000000E+00 0. -1.
     999900   -1    0    0    0    0 -0.00000000000E+00 -0.00000000000E+00 -0.74505805969E-08  0.93827000000E+00  0.93827000000E+00 0.  1.
     999902    2    1    2    0    0 -0.18424901599E-02 -0.15165121379E-01  0.17599428241E-01  0.10206251604E+01  0.10203590556E+01 0.  0.
     999903    2    3    3    0    0  0.62456493456E-01 -0.10550750910E+00 -0.43278664914E-01  0.13157946494E+00  0.20185754991E-01 0.  0.
         14    1    1    2    0    0  0.18424901599E-02  0.15165121379E-01 -0.17599428241E-01  0.23304839645E-01  0.00000000000E+00 0.  1.
     999901    1    3    3    0    0 -0.64298983616E-01  0.90342387724E-01  0.60878093155E-01  0.88904569542E+00  0.88000000000E+00 0.  1.
        -11    1    4    4    0    0  0.45359766408E-01 -0.59226603136E-01 -0.21442997705E-01  0.77623206577E-01  0.51100000000E-03 0. -1.
         11    1    4    4    0    0  0.17096727048E-01 -0.46280905967E-01 -0.21835667208E-01  0.53956258361E-01  0.51100000000E-03 0.  1.
</event>
<event>
 8    1  0.1132255E+005  0.1043930E+01  0.7957747E-01            NaN
         13   -1    0    0    0    0  0.00000000000E+00  0.00000000000E+00  0.74505805969E-08  0.10566000000E+00  0.10566000000E+00 0.  1.
     999900   -1    0    0    0    0 -0.00000000000E+00 -0.00000000000E+00 -0.74505805969E-08  0.93827000000E+00  0.93827000000E+00 0. -1.
     999902    2    1    2    0    0  0.14493358817E-01  0.87960894603E-02  0.15976343190E-01  0.10206346747E+01  0.10203687897E+01 0.  0.
     999903    2    3    3    0    0 -0.10364598222E+00  0.70841112606E-01  0.33428197916E-01  0.13040377429E+00  0.11258200021E-01 0.  0.
         14    1    1    2    0    0 -0.14493358817E-01 -0.87960894603E-02 -0.15976343190E-01  0.23295325311E-01  0.00000000000E+00 0. -1.
     999901    1    3    3    0    0  0.11813934103E+00 -0.62045023146E-01 -0.17451854726E-01  0.89023090040E+00  0.88000000000E+00 0. -1.
        -11    1    4    4    0    0 -0.85745003108E-01  0.55026553100E-01  0.30388900047E-01  0.10631967584E+00  0.51100000000E-03 0.  1.
         11    1    4    4    0    0 -0.17900979107E-01  0.15814559507E-01  0.30392978694E-02  0.24084098445E-01  0.51100000000E-03 0. -1.
</event>
<event>
 8    1  0.1132255E+005  0.1043930E+01  0.7957747E-01            NaN
         13   -1    0    0    0    0  0.00000000000E+00  0.00000000000E+00  0.74505805969E-08  0.10566000000E+00  0.10566000000E+00 0.  1.
     999900   -1    0    0    0    0 -0.00000000000E+00 -0.00000000000E+00 -0.74505805969E-08  0.93827000000E+00  0.93827000000E+00 0.  1.
     999902    2    1    2    0    0 -0.76756223497E-03 -0.19198131750E-01  0.14702963788E-01  0.10197363116E+01  0.10194492683E+01 0.  0.
     999903    2    3    3    0    0 -0.10495834037E-01 -0.83574651607E-02  0.12885905904E+00  0.13224334069E+00  0.26526106071E-01 0.  0.
         14    1    1    2    0    0  0.76756223497E-03  0.19198131750E-01 -0.14702963788E-01  0.24193688405E-01  0.00000000000E+00 0. -1.
     999901    1    3    3    0    0  0.97282718018E-02 -0.10840666590E-01 -0.11415609525E+00  0.88749297091E+00  0.88000000000E+00 0.  1.
        -11    1    4    4    0    0  0.26400418223E-02  0.76537391660E-02  0.52538207198E-01  0.53160830322E-01  0.51100000000E-03 0.  1.
         11    1    4    4    0    0 -0.13135875859E-01 -0.16011204327E-01  0.76320851845E-01  0.79082510366E-01  0.51100000000E-03 0. -1.
</event>
<event>
 8    1  0.1132255E+005  0.1043930E+01  0.7957747E-01            NaN
         13   -1    0    0    0    0  0.00000000000E+00  0.00000000000E+00  0.74505805969E-08  0.10566000000E+00  0.10566000000E+00 0. -1.
     999900   -1    0    0    0    0 -0.00000000000E+00 -0.00000000000E+00 -0.74505805969E-08  0.93827000000E+00  0.93827000000E+00 0. -1.
     999902    2    1    2    0    0  0.12047563856E-01  0.21146228388E-01  0.32653191152E-02  0.10193745713E+01  0.10190787740E+01 0.  0.
     999903    2    3    3    0    0 -0.19705039980E-01 -0.11680012223E+00  0.42077093479E-01  0.12721775922E+00  0.19578542173E-01 0.  0.
         14    1    1    2    0    0 -0.12047563856E-01 -0.21146228388E-01 -0.32653191152E-02  0.24555428704E-01  0.00000000000E+00 0. -1.
     999901    1    3    3    0    0  0.31752603837E-01  0.13794635061E+00 -0.38811774364E-01  0.89215681207E+00  0.88000000000E+00 0. -1.
        -11    1    4    4    0    0  0.15170257820E-02 -0.48647274568E-01  0.17400658557E-01  0.51690451046E-01  0.51100000000E-03 0. -1.
         11    1    4    4    0    0 -0.21222065762E-01 -0.68152847658E-01  0.24676434923E-01  0.75527308178E-01  0.51100000000E-03 0.  1.
</event>
<event>
 8    1  0.1132255E+005  0.1043930E+01  0.7957747E-01            NaN
         13   -1    0    0    0    0  0.00000000000E+00  0.00000000000E+00  0.74505805969E-08  0.10566000000E+00  0.10566000000E+00 0. -1.
     999900   -1    0    0    0    0 -0.00000000000E+00 -0.00000000000E+00 -0.74505805969E-08  0.93827000000E+00  0.93827000000E+00 0. -1.
     999902    2    1    2    0    0  0.19976566519E-01  0.21495981762E-02  0.12175601619E-01  0.10204368253E+01  0.10201663517E+01 0.  0.
     999903    2    3    3    0    0  0.11566049698E+00  0.53817062228E-01  0.33858591654E-01  0.13347848725E+00  0.19911694618E-01 0.  0.
         14    1    1    2    0    0 -0.19976566519E-01 -0.21495981762E-02 -0.12175601619E-01  0.23493174690E-01  0.00000000000E+00 0.  1.
     999901    1    3    3    0    0 -0.95683930460E-01 -0.51667464052E-01 -0.21682990035E-01  0.88695833806E+00  0.88000000000E+00 0.  1.
        -11    1    4    4    0    0  0.35390084922E-01  0.23709504555E-01  0.44080818545E-02  0.42828623883E-01  0.51100000000E-03 0. -1.
         11    1    4    4    0    0  0.80270412057E-01  0.30107557673E-01  0.29450509800E-01  0.90649863372E-01  0.51100000000E-03 0.  1.
</event>
<event>
 8    1  0.1132255E+005  0.1043930E+01  0.7957747E-01            NaN
         13   -1    0    0    0    0  0.00000000000E+00  0.00000000000E+00  0.74505805969E-08  0.10566000000E+00  0.10566000000E+00 0. -1.
     999900   -1    0    0    0    0 -0.00000000000E+00 -0.00000000000E+00 -0.74505805969E-08  0.93827000000E+00  0.93827000000E+00 0.  1.
     999902    2    1    2    0    0 -0.13953097104E-01 -0.18530056753E-01  0.32220257386E-02  0.10205113456E+01  0.10202426051E+01 0.  0.
     999903    2    3    3    0    0 -0.44657774562E-01  0.77699070189E-01 -0.91309346500E-01  0.12970328415E+00  0.21309219204E-01 0.  0.
         14    1    1    2    0    0  0.13953097104E-01  0.18530056753E-01 -0.32220257386E-02  0.23418654357E-01  0.00000000000E+00 0. -1.
     999901    1    3    3    0    0  0.30704677458E-01 -0.96229126942E-01  0.94531372239E-01  0.89080806150E+00  0.88000000000E+00 0. -1.
        -11    1    4    4    0    0 -0.35335597452E-01  0.73367575111E-01 -0.76978469982E-01  0.11205958900E+00  0.51100000000E-03 0. -1.
         11    1    4    4    0    0 -0.93221771090E-02  0.43314950780E-02 -0.14330876518E-01  0.17643695147E-01  0.51100000000E-03 0.  1.
</event>
<event>
 8    1  0.1132255E+005  0.1043930E+01  0.7957747E-01            NaN
         13   -1    0    0    0    0  0.00000000000E+00  0.00000000000E+00  0.74505805969E-08  0.10566000000E+00  0.10566000000E+00 0.  1.
     999900   -1    0    0    0    0 -0.00000000000E+00 -0.00000000000E+00 -0.74505805969E-08  0.93827000000E+00  0.93827000000E+00 0.  1.
     999902    2    1    2    0    0 -0.10707413726E-01 -0.19131411856E-01 -0.88135335527E-02  0.10203008231E+01  0.10200271720E+01 0.  0.
     999903    2    3    3    0    0 -0.79561937442E-01 -0.92283981551E-01  0.48505402404E-01  0.13273240075E+00  0.20461696093E-01 0.  0.
         14    1    1    2    0    0  0.10707413726E-01  0.19131411856E-01  0.88135335527E-02  0.23629176922E-01  0.00000000000E+00 0.  1.
     999901    1    3    3    0    0  0.68854523716E-01  0.73152569695E-01 -0.57318935957E-01  0.88756842232E+00  0.88000000000E+00 0.  1.
        -11    1    4    4    0    0 -0.66951750165E-01 -0.78645412668E-01  0.48604205051E-01  0.11415019778E+00  0.51100000000E-03 0.  1.
         11    1    4    4    0    0 -0.12610187277E-01 -0.13638568883E-01 -0.98802646843E-04  0.18582202972E-01  0.51100000000E-03 0. -1.
</event>
<event>
 8    1  0.1132255E+005  0.1043930E+01  0.7957747E-01            NaN
         13   -1    0    0    0    0  0.00000000000E+00  0.00000000000E+00  0.74505805969E-08  0.10566000000E+00  0.10566000000E+00 0. -1.
     999900   -1    0    0    0    0 -0.00000000000E+00 -0.00000000000E+00 -0.74505805969E-08  0.93827000000E+00  0.93827000000E+00 0.  1.
     999902    2    1    2    0    0 -0.17694396035E-01  0.14187877553E-02 -0.60544516573E-02  0.10251747076E+01  0.10250031317E+01 0.  0.
     999903    2    3    3    0    0 -0.10399253996E+00  0.66413475392E-01  0.55202447114E-01  0.13645423029E+00  0.18634610724E-01 0.  0.
         14    1    1    2    0    0  0.17694396035E-01 -0.14187877553E-02  0.60544516573E-02  0.18755292443E-01  0.00000000000E+00 0.  1.
     999901    1    3    3    0    0  0.86298143921E-01 -0.64994687637E-01 -0.61256898771E-01  0.88872047727E+00  0.88000000000E+00 0.  1.
        -11    1    4    4    0    0 -0.61922328711E-01  0.44733075753E-01  0.42632880250E-01  0.87482835223E-01  0.51100000000E-03 0.  1.
         11    1    4    4    0    0 -0.42070211246E-01  0.21680399639E-01  0.12569566863E-01  0.48971395068E-01  0.51100000000E-03 0. -1.
</event>
<event>
 8    1  0.1132255E+005  0.1043930E+01  0.7957747E-01            NaN
         13   -1    0    0    0    0  0.00000000000E+00  0.00000000000E+00  0.74505805969E-08  0.10566000000E+00  0.10566000000E+00 0.  1.
     999900   -1    0    0    0    0 -0.00000000000E+00 -0.00000000000E+00 -0.74505805969E-08  0.93827000000E+00  0.93827000000E+00 0.  1.
     999902    2    1    2    0    0  0.18961566471E-01 -0.13264961512E-01 -0.86483714938E-02  0.10192258599E+01  0.10189264247E+01 0.  0.
     999903    2    3    3    0    0 -0.71869806383E-01 -0.56854791181E-01  0.87508136420E-01  0.12827328793E+00  0.19965623131E-01 0.  0.
         14    1    1    2    0    0 -0.18961566471E-01  0.13264961512E-01  0.86483714938E-02  0.24704140067E-01  0.00000000000E+00 0.  1.
     999901    1    3    3    0    0  0.90831372853E-01  0.43589829669E-01 -0.96156507914E-01  0.89095257200E+00  0.88000000000E+00 0.  1.
        -11    1    4    4    0    0 -0.27057318266E-01 -0.32859767653E-01  0.34130752336E-01  0.54562186338E-01  0.51100000000E-03 0.  1.
         11    1    4    4    0    0 -0.44812488116E-01 -0.23995023528E-01  0.53377384084E-01  0.73711101592E-01  0.51100000000E-03 0. -1.
</event>
<event>
 8    1  0.1132255E+005  0.1043930E+01  0.7957747E-01            NaN
         13   -1    0    0    0    0  0.00000000000E+00  0.00000000000E+00  0.74505805969E-08  0.10566000000E+00  0.10566000000E+00 0. -1.
     999900   -1    0    0    0    0 -0.00000000000E+00 -0.00000000000E+00 -0.74505805969E-08  0.93827000000E+00  0.93827000000E+00 0. -1.
     999902    2    1    2    0    0  0.12124159556E-01 -0.20690778886E-01  0.91829025561E-02  0.10182506450E+01  0.10179267885E+01 0.  0.
     999903    2    3    3    0    0  0.39857461591E-02 -0.12044010424E+00  0.49553127450E-01  0.13165833914E+00  0.18886528127E-01 0.  0.
         14    1    1    2    0    0 -0.12124159556E-01  0.20690778886E-01 -0.91829025561E-02  0.25679355039E-01  0.00000000000E+00 0.  1.
     999901    1    3    3    0    0  0.81384133972E-02  0.99749325349E-01 -0.40370224894E-01  0.88659230582E+00  0.88000000000E+00 0. -1.
        -11    1    4    4    0    0  0.43903233168E-02 -0.29521557344E-01  0.45023097381E-02  0.30188229508E-01  0.51100000000E-03 0.  1.
         11    1    4    4    0    0 -0.40457715778E-03 -0.90918546892E-01  0.45050817712E-01  0.10147010963E+00  0.51100000000E-03 0. -1.
</event>
<event>
 8    1  0.1132255E+005  0.1043930E+01  0.7957747E-01            NaN
         13   -1    0    0    0    0  0.00000000000E+00  0.00000000000E+00  0.74505805969E-08  0.10566000000E+00  0.10566000000E+00 0.  1.
     999900   -1    0    0    0    0 -0.00000000000E+00 -0.00000000000E+00 -0.74505805969E-08  0.93827000000E+00  0.93827000000E+00 0.  1.
     999902    2    1    2    0    0 -0.11580749806E-01 -0.27820936105E-02 -0.19978044773E-01  0.10206711074E+01  0.10204060630E+01 0.  0.
     999903    2    3    3    0    0 -0.49030450332E-01 -0.11101226511E+00  0.43797585060E-01  0.13096127773E+00  0.22470419264E-01 0.  0.
         14    1    1    2    0    0  0.11580749806E-01  0.27820936105E-02  0.19978044773E-01  0.23258892577E-01  0.00000000000E+00 0.  1.
     999901    1    3    3    0    0  0.37449700525E-01  0.10823017150E+00 -0.63775629834E-01  0.88970982969E+00  0.88000000000E+00 0. -1.
        -11    1    4    4    0    0 -0.37510459082E-02 -0.12856803255E-01  0.12738833209E-01  0.18490720048E-01  0.51100000000E-03 0.  1.
         11    1    4    4    0    0 -0.45279404424E-01 -0.98155461859E-01  0.31058751851E-01  0.11247055768E+00  0.51100000000E-03 0. -1.
</event>
<event>
 8    1  0.1132255E+005  0.1043930E+01  0.7957747E-01            NaN
         13   -1    0    0    0    0  0.00000000000E+00  0.00000000000E+00  0.74505805969E-08  0.10566000000E+00  0.10566000000E+00 0.  1.
     999900   -1    0    0    0    0 -0.00000000000E+00 -0.00000000000E+00 -0.74505805969E-08  0.93827000000E+00  0.93827000000E+00 0.  1.
     999902    2    1    2    0    0  0.66080259363E-02  0.17213431486E-01 -0.14676815428E-01  0.10203635590E+01  0.10200913760E+01 0.  0.
     999903    2    3    3    0    0 -0.15196836120E-01  0.13010004684E+00  0.54815187866E-02  0.13265572510E+00  0.20261498858E-01 0.  0.
         14    1    1    2    0    0 -0.66080259363E-02 -0.17213431486E-01  0.14676815428E-01  0.23566441000E-01  0.00000000000E+00 0.  1.
     999901    1    3    3    0    0  0.21804862056E-01 -0.11288661536E+00 -0.20158334215E-01  0.88770783390E+00  0.88000000000E+00 0.  1.
        -11    1    4    4    0    0 -0.11202715201E-01  0.12675556174E+00  0.60242304622E-02  0.12739319343E+00  0.51100000000E-03 0.  1.
         11    1    4    4    0    0 -0.39941209196E-02  0.33444851033E-02 -0.54271167555E-03  0.52625316615E-02  0.51100000000E-03 0. -1.
</event>
<event>
 8    1  0.1132255E+005  0.1043930E+01  0.7957747E-01            NaN
         13   -1    0    0    0    0  0.00000000000E+00  0.00000000000E+00  0.74505805969E-08  0.10566000000E+00  0.10566000000E+00 0.  1.
     999900   -1    0    0    0    0 -0.00000000000E+00 -0.00000000000E+00 -0.74505805969E-08  0.93827000000E+00  0.93827000000E+00 0.  1.
     999902    2    1    2    0    0 -0.14846938037E-01 -0.15771205273E-01 -0.25312265441E-01  0.10106152395E+01  0.10100659825E+01 0.  0.
     999903    2    3    3    0    0  0.10737560485E+00  0.47758454800E-01 -0.11112154617E-01  0.11978640587E+00  0.20369401784E-01 0.  0.
         14    1    1    2    0    0  0.14846938037E-01  0.15771205273E-01  0.25312265441E-01  0.33314760491E-01  0.00000000000E+00 0.  1.
     999901    1    3    3    0    0 -0.12222254289E+00 -0.63529660073E-01 -0.14200110824E-01  0.89082883364E+00  0.88000000000E+00 0.  1.
        -11    1    4    4    0    0  0.88943071002E-01  0.43906089292E-01 -0.15628687352E-01  0.10041479744E+00  0.51100000000E-03 0. -1.
         11    1    4    4    0    0  0.18432533847E-01  0.38523655078E-02  0.45165327356E-02  0.19371608425E-01  0.51100000000E-03 0.  1.
</event>
<event>
 8    1  0.1132255E+005  0.1043930E+01  0.7957747E-01            NaN
         13   -1    0    0    0    0  0.00000000000E+00  0.00000000000E+00  0.74505805969E-08  0.10566000000E+00  0.10566000000E+00 0. -1.
     999900   -1    0    0    0    0 -0.00000000000E+00 -0.00000000000E+00 -0.74505805969E-08  0.93827000000E+00  0.93827000000E+00 0. -1.
     999902    2    1    2    0    0 -0.16732927441E-01 -0.94540837719E-02 -0.67100197855E-02  0.10235733076E+01  0.10233708619E+01 0.  0.
     999903    2    3    3    0    0 -0.59046249094E-01 -0.21266285801E-03  0.11818752978E+00  0.13369959804E+00  0.20513058357E-01 0.  0.
         14    1    1    2    0    0  0.16732927441E-01  0.94540837719E-02  0.67100197855E-02  0.20356692419E-01  0.00000000000E+00 0. -1.
     999901    1    3    3    0    0  0.42313321653E-01 -0.92414209139E-02 -0.12489754956E+00  0.88987370954E+00  0.88000000000E+00 0. -1.
        -11    1    4    4    0    0 -0.15580919570E-01  0.60987432216E-02  0.48667783305E-01  0.51466241133E-01  0.51100000000E-03 0.  1.
         11    1    4    4    0    0 -0.43465329524E-01 -0.63114060796E-02  0.69519746472E-01  0.82233356905E-01  0.51100000000E-03 0. -1.
</event>
<event>
 8    1  0.1132255E+005  0.1043930E+01  0.7957747E-01            NaN
         13   -1    0    0    0    0  0.00000000000E+00  0.00000000000E+00  0.74505805969E-08  0.10566000000E+00  0.10566000000E+00 0. -1.
     999900   -1    0    0    0    0 -0.00000000000E+00 -0.00000000000E+00 -0.74505805969E-08  0.93827000000E+00  0.93827000000E+00 0.  1.
     999902    2    1    2    0    0  0.13680843156E-01 -0.77702667097E-02 -0.19072260529E-01  0.10192056469E+01  0.10189057155E+01 0.  0.
     999903    2    3    3    0    0 -0.68608924522E-03 -0.17407494553E-01  0.12460324666E+00  0.12738619417E+00  0.19944468000E-01 0.  0.
         14    1    1    2    0    0 -0.13680843156E-01  0.77702667097E-02  0.19072260529E-01  0.24724353093E-01  0.00000000000E+00 0. -1.
     999901    1    3    3    0    0  0.14366932401E-01  0.96372278431E-02 -0.14367550719E+00  0.89181945273E+00  0.88000000000E+00 0.  1.
        -11    1    4    4    0    0 -0.99671347555E-02 -0.10618154191E-01  0.80333339887E-01  0.81644323698E-01  0.51100000000E-03 0. -1.
         11    1    4    4    0    0  0.92810455102E-02 -0.67893403613E-02  0.44269906769E-01  0.45741870476E-01  0.51100000000E-03 0.  1.
</event>
<event>
 8    1  0.1132255E+005  0.1043930E+01  0.7957747E-01            NaN
         13   -1    0    0    0    0  0.00000000000E+00  0.00000000000E+00  0.74505805969E-08  0.10566000000E+00  0.10566000000E+00 0.  1.
     999900   -1    0    0    0    0 -0.00000000000E+00 -0.00000000000E+00 -0.74505805969E-08  0.93827000000E+00  0.93827000000E+00 0. -1.
     999902    2    1    2    0    0 -0.20119604504E-01  0.76133905295E-02  0.84083525322E-02  0.10208331908E+01  0.10205718696E+01 0.  0.
     999903    2    3    3    0    0 -0.10845987345E+00  0.73369265821E-01  0.19446081603E-01  0.13390045962E+00  0.20114414799E-01 0.  0.
         14    1    1    2    0    0  0.20119604504E-01 -0.76133905295E-02 -0.84083525322E-02  0.23096809153E-01  0.00000000000E+00 0.  1.
     999901    1    3    3    0    0  0.88340268942E-01 -0.65755875292E-01 -0.11037729070E-01  0.88693273122E+00  0.88000000000E+00 0.  1.
        -11    1    4    4    0    0 -0.96261918743E-01  0.68136865599E-01  0.22980617751E-01  0.12015556320E+00  0.51100000000E-03 0.  1.
         11    1    4    4    0    0 -0.12197954703E-01  0.52324002221E-02 -0.35345361487E-02  0.13744896428E-01  0.51100000000E-03 0. -1.
</event>
<event>
 8    1  0.1132255E+005  0.1043930E+01  0.7957747E-01            NaN
         13   -1    0    0    0    0  0.00000000000E+00  0.00000000000E+00  0.74505805969E-08  0.10566000000E+00  0.10566000000E+00 0.  1.
     999900   -1    0    0    0    0 -0.00000000000E+00 -0.00000000000E+00 -0.74505805969E-08  0.93827000000E+00  0.93827000000E+00 0.  1.
     999902    2    1    2    0    0  0.16149777974E-01  0.25275274611E-02  0.15732844955E-01  0.10212424234E+01  0.10209903825E+01 0.  0.
     999903    2    3    3    0    0  0.10314699013E+00  0.74723806627E-01  0.32416418626E-01  0.13385346733E+00  0.25357004363E-01 0.  0.
         14    1    1    2    0    0 -0.16149777974E-01 -0.25275274611E-02 -0.15732844955E-01  0.22687576646E-01  0.00000000000E+00 0. -1.
     999901    1    3    3    0    0 -0.86997212151E-01 -0.72196279166E-01 -0.16683573671E-01  0.88738895603E+00  0.88000000000E+00 0.  1.
        -11    1    4    4    0    0  0.15939068564E-01  0.13253875907E-01  0.15354341057E-01  0.25801861242E-01  0.51100000000E-03 0.  1.
         11    1    4    4    0    0  0.87207921561E-01  0.61469930720E-01  0.17062077570E-01  0.10805160609E+00  0.51100000000E-03 0. -1.
</event>
<event>
 8    1  0.1132255E+005  0.1043930E+01  0.7957747E-01            NaN
         13   -1    0    0    0    0  0.00000000000E+00  0.00000000000E+00  0.74505805969E-08  0.10566000000E+00  0.10566000000E+00 0. -1.
     999900   -1    0    0    0    0 -0.00000000000E+00 -0.00000000000E+00 -0.74505805969E-08  0.93827000000E+00  0.93827000000E+00 0. -1.
     999902    2    1    2    0    0  0.59785689122E-03 -0.18352388199E-01 -0.16449321848E-01  0.10192774591E+01  0.10189792887E+01 0.  0.
     999903    2    3    3    0    0  0.11100070893E+00  0.59469278700E-01  0.16220201168E-01  0.12837213339E+00  0.18935607016E-01 0.  0.
         14    1    1    2    0    0 -0.59785689122E-03  0.18352388199E-01  0.16449321848E-01  0.24652540939E-01  0.00000000000E+00 0. -1.
     999901    1    3    3    0    0 -0.11040285204E+00 -0.77821666899E-01 -0.32669523016E-01  0.89090532567E+00  0.88000000000E+00 0.  1.
        -11    1    4    4    0    0  0.45633375712E-01  0.17931668301E-01  0.13573395893E-01  0.50876791408E-01  0.51100000000E-03 0. -1.
         11    1    4    4    0    0  0.65367333217E-01  0.41537610399E-01  0.26468052753E-02  0.77495341981E-01  0.51100000000E-03 0.  1.
</event>
<event>
 8    1  0.1132255E+005  0.1043930E+01  0.7957747E-01            NaN
         13   -1    0    0    0    0  0.00000000000E+00  0.00000000000E+00  0.74505805969E-08  0.10566000000E+00  0.10566000000E+00 0.  1.
     999900   -1    0    0    0    0 -0.00000000000E+00 -0.00000000000E+00 -0.74505805969E-08  0.93827000000E+00  0.93827000000E+00 0. -1.
     999902    2    1    2    0    0 -0.28958271000E-02  0.20608635082E-02 -0.22162201946E-01  0.10214845958E+01  0.10212379661E+01 0.  0.
     999903    2    3    3    0    0 -0.10761286998E+00  0.49687472887E-01  0.51659941239E-01  0.13093214830E+00  0.20618030495E-01 0.  0.
         14    1    1    2    0    0  0.28958271000E-02 -0.20608635082E-02  0.22162201946E-01  0.22445404164E-01  0.00000000000E+00 0.  1.
     999901    1    3    3    0    0  0.10471704288E+00 -0.47626609379E-01 -0.73822143186E-01  0.89055244754E+00  0.88000000000E+00 0. -1.
        -11    1    4    4    0    0 -0.17802994711E-01  0.88988347216E-02  0.73680891978E-03  0.19923350333E-01  0.51100000000E-03 0. -1.
         11    1    4    4    0    0 -0.89809875270E-01  0.40788638166E-01  0.50923132320E-01  0.11100879797E+00  0.51100000000E-03 0.  1.
</event>
<event>
 8    1  0.1132255E+005  0.1043930E+01  0.7957747E-01            NaN
         13   -1    0    0    0    0  0.00000000000E+00  0.00000000000E+00  0.74505805969E-08  0.10566000000E+00  0.10566000000E+00 0.  1.
     999900   -1    0    0    0    0 -0.00000000000E+00 -0.00000000000E+00 -0.74505805969E-08  0.93827000000E+00  0.93827000000E+00 0. -1.
     999902    2    1    2    0    0 -0.16266062503E-01 -0.18436213289E-01 -0.55283970233E-02  0.10187299618E+01  0.10184182310E+01 0.  0.
     999903    2    3    3    0    0  0.53028788764E-01 -0.44779075214E-01  0.10775446586E+00  0.12837681291E+00  0.72362396235E-02 0.  0.
         14    1    1    2    0    0  0.16266062503E-01  0.18436213289E-01  0.55283970233E-02  0.25200038163E-01  0.00000000000E+00 0. -1.
     999901    1    3    3    0    0 -0.69294851267E-01  0.26342861925E-01 -0.11328286289E+00  0.89035314893E+00  0.88000000000E+00 0. -1.
        -11    1    4    4    0    0  0.47950588963E-01 -0.38917590940E-01  0.98860549093E-01  0.11656546296E+00  0.51100000000E-03 0.  1.
         11    1    4    4    0    0  0.50781998007E-02 -0.58614842750E-02  0.88939167690E-02  0.11811349949E-01  0.51100000000E-03 0. -1.
</event>
<event>
 8    1  0.1132255E+005  0.1043930E+01  0.7957747E-01            NaN
         13   -1    0    0    0    0  0.00000000000E+00  0.00000000000E+00  0.74505805969E-08  0.10566000000E+00  0.10566000000E+00 0.  1.
     999900   -1    0    0    0    0 -0.00000000000E+00 -0.00000000000E+00 -0.74505805969E-08  0.93827000000E+00  0.93827000000E+00 0.  1.
     999902    2    1    2    0    0 -0.95536199212E-02 -0.12222669477E-01 -0.18701892893E-01  0.10196313148E+01  0.10193417445E+01 0.  0.
     999903    2    3    3    0    0 -0.38555900726E-01 -0.11621111435E+00 -0.46974933469E-01  0.13258334895E+00  0.19496652695E-01 0.  0.
         14    1    1    2    0    0  0.95536199212E-02  0.12222669477E-01  0.18701892893E-01  0.24298685160E-01  0.00000000000E+00 0.  1.
     999901    1    3    3    0    0  0.29002280804E-01  0.10398844487E+00  0.28273040575E-01  0.88704796589E+00  0.88000000000E+00 0.  1.
        -11    1    4    4    0    0 -0.27557208270E-01 -0.61613235670E-01 -0.33139625071E-01  0.75193659361E-01  0.51100000000E-03 0.  1.
         11    1    4    4    0    0 -0.10998692456E-01 -0.54597878679E-01 -0.13835308398E-01  0.57389689592E-01  0.51100000000E-03 0. -1.
</event>
<event>
 8    1  0.1132255E+005  0.1043930E+01  0.7957747E-01            NaN
         13   -1    0    0    0    0  0.00000000000E+00  0.00000000000E+00  0.74505805969E-08  0.10566000000E+00  0.10566000000E+00 0. -1.
     999900   -1    0    0    0    0 -0.00000000000E+00 -0.00000000000E+00 -0.74505805969E-08  0.93827000000E+00  0.93827000000E+00 0. -1.
     999902    2    1    2    0    0 -0.88616229632E-03 -0.19910649403E-01 -0.13185118838E-01  0.10200330001E+01  0.10197530362E+01 0.  0.
     999903    2    3    3    0    0  0.70821389836E-01 -0.79559423895E-01  0.72899090018E-01  0.13092645965E+00  0.21956532587E-01 0.  0.
         14    1    1    2    0    0  0.88616229632E-03  0.19910649403E-01  0.13185118838E-01  0.23896999854E-01  0.00000000000E+00 0. -1.
     999901    1    3    3    0    0 -0.71707552133E-01  0.59648774492E-01 -0.86084208856E-01  0.88910654049E+00  0.88000000000E+00 0. -1.
        -11    1    4    4    0    0  0.51981276853E-02 -0.17738922628E-01  0.14609344966E-01  0.23566586277E-01  0.51100000000E-03 0.  1.
         11    1    4    4    0    0  0.65623262151E-01 -0.61820501267E-01  0.58289745052E-01  0.10735987338E+00  0.51100000000E-03 0. -1.
</event>
<event>
 8    1  0.1132255E+005  0.1043930E+01  0.7957747E-01            NaN
         13   -1    0    0    0    0  0.00000000000E+00  0.00000000000E+00  0.74505805969E-08  0.10566000000E+00  0.10566000000E+00 0.  1.
     999900   -1    0    0    0    0 -0.00000000000E+00 -0.00000000000E+00 -0.74505805969E-08  0.93827000000E+00  0.93827000000E+00 0.  1.
     999902    2    1    2    0    0  0.12234929025E-01  0.18363263856E-01  0.49210977603E-02  0.10213220335E+01  0.10210717780E+01 0.  0.
     999903    2    3    3    0    0 -0.68847109878E-01  0.13916650402E-01  0.10901668936E+00  0.13147375337E+00  0.21612763991E-01 0.  0.
         14    1    1    2    0    0 -0.12234929025E-01 -0.18363263856E-01 -0.49210977603E-02  0.22607966535E-01  0.00000000000E+00 0. -1.
     999901    1    3    3    0    0  0.81082038902E-01  0.44466134544E-02 -0.10409559160E+00  0.88984828010E+00  0.88000000000E+00 0.  1.
        -11    1    4    4    0    0 -0.48354272656E-01  0.14978654790E-01  0.61110903336E-01  0.79355525396E-01  0.51100000000E-03 0. -1.
         11    1    4    4    0    0 -0.20492837222E-01 -0.10620043889E-02  0.47905786028E-01  0.52118227970E-01  0.51100000000E-03 0.  1.
</event>
<event>
 8    1  0.1132255E+005  0.1043930E+01  0.7957747E-01            NaN
         13   -1    0    0    0    0  0.00000000000E+00  0.00000000000E+00  0.74505805969E-08  0.10566000000E+00  0.10566000000E+00 0. -1.
     999900   -1    0    0    0    0 -0.00000000000E+00 -0.00000000000E+00 -0.74505805969E-08  0.93827000000E+00  0.93827000000E+00 0.  1.
     999902    2    1    2    0    0  0.19034769466E-01 -0.32381405663E-02  0.14672122545E-01  0.10196796560E+01  0.10193912506E+01 0.  0.
     999903    2    3    3    0    0 -0.42691564358E-01 -0.11955712065E+00  0.19026536729E-01  0.12987113374E+00  0.19698413968E-01 0.  0.
         14    1    1    2    0    0 -0.19034769466E-01  0.32381405663E-02 -0.14672122545E-01  0.24250343976E-01  0.00000000000E+00 0.  1.
     999901    1    3    3    0    0  0.61726333824E-01  0.11631898008E+00 -0.43544141841E-02  0.88980852229E+00  0.88000000000E+00 0. -1.
        -11    1    4    4    0    0 -0.18657506269E-01 -0.80249235310E-01  0.12597830349E-01  0.83348717798E-01  0.51100000000E-03 0.  1.
         11    1    4    4    0    0 -0.24034058089E-01 -0.39307885338E-01  0.64287063800E-02  0.46522415938E-01  0.51100000000E-03 0. -1.
</event>
<event>
 8    1  0.1132255E+005  0.1043930E+01  0.7957747E-01            NaN
         13   -1    0    0    0    0  0.00000000000E+00  0.00000000000E+00  0.74505805969E-08  0.10566000000E+00  0.10566000000E+00 0.  1.
     999900   -1    0    0    0    0 -0.00000000000E+00 -0.00000000000E+00 -0.74505805969E-08  0.93827000000E+00  0.93827000000E+00 0. -1.
     999902    2    1    2    0    0  0.10539369973E-01  0.21993462067E-01  0.16178497420E-02  0.10194880661E+01  0.10191950298E+01 0.  0.
     999903    2    3    3    0    0  0.10976500936E+00 -0.62063338833E-01 -0.23262387469E-01  0.12958340861E+00  0.18721800384E-01 0.  0.
         14    1    1    2    0    0 -0.10539369973E-01 -0.21993462067E-01 -0.16178497420E-02  0.24441933861E-01  0.00000000000E+00 0. -1.
     999901    1    3    3    0    0 -0.99225639385E-01  0.84056800899E-01  0.24880237211E-01  0.88990465753E+00  0.88000000000E+00 0.  1.
        -11    1    4    4    0    0  0.85902864340E-01 -0.45052442057E-01 -0.10337262286E-01  0.97550729110E-01  0.51100000000E-03 0. -1.
         11    1    4    4    0    0  0.23862145018E-01 -0.17010896775E-01 -0.12925125183E-01  0.32032679500E-01  0.51100000000E-03 0.  1.
</event>
<event>
 8    1  0.1132255E+005  0.1043930E+01  0.7957747E-01            NaN
         13   -1    0    0    0    0  0.00000000000E+00  0.00000000000E+00  0.74505805969E-08  0.10566000000E+00  0.10566000000E+00 0. -1.
     999900   -1    0    0    0    0 -0.00000000000E+00 -0.00000000000E+00 -0.74505805969E-08  0.93827000000E+00  0.93827000000E+00 0.  1.
     999902    2    1    2    0    0 -0.13267076134E-01  0.15596698927E-01  0.79376321146E-02  0.10219691637E+01  0.10217331811E+01 0.  0.
     999903    2    3    3    0    0 -0.91618037870E-01 -0.60862499879E-01 -0.69687811540E-01  0.13179469105E+00  0.20379910634E-01 0.  0.
         14    1    1    2    0    0  0.13267076134E-01 -0.15596698927E-01 -0.79376321146E-02  0.21960836280E-01  0.00000000000E+00 0.  1.
     999901    1    3    3    0    0  0.78350961737E-01  0.76459198805E-01  0.77625443655E-01  0.89017447267E+00  0.88000000000E+00 0. -1.
        -11    1    4    4    0    0 -0.23841735168E-01 -0.58274016247E-02 -0.15874125782E-01  0.29234157006E-01  0.51100000000E-03 0.  1.
         11    1    4    4    0    0 -0.67776302702E-01 -0.55035098254E-01 -0.53813685759E-01  0.10256053405E+00  0.51100000000E-03 0. -1.
</event>
<event>
 8    1  0.1132255E+005  0.1043930E+01  0.7957747E-01            NaN
         13   -1    0    0    0    0  0.00000000000E+00  0.00000000000E+00  0.74505805969E-08  0.10566000000E+00  0.10566000000E+00 0.  1.
     999900   -1    0    0    0    0 -0.00000000000E+00 -0.00000000000E+00 -0.74505805969E-08  0.93827000000E+00  0.93827000000E+00 0. -1.
     999902    2    1    2    0    0 -0.14729086738E-01  0.84589723980E-02  0.17590345235E-01  0.10194775879E+01  0.10191842973E+01 0.  0.
     999903    2    3    3    0    0 -0.99334816740E-01 -0.78861025467E-01 -0.22182670520E-01  0.13022801422E+00  0.19514037558E-01 0.  0.
         14    1    1    2    0    0  0.14729086738E-01 -0.84589723980E-02 -0.17590345235E-01  0.24452412062E-01  0.00000000000E+00 0.  1.
     999901    1    3    3    0    0  0.84605730002E-01  0.87319997865E-01  0.39773015755E-01  0.88924957372E+00  0.88000000000E+00 0.  1.
        -11    1    4    4    0    0 -0.70997946394E-01 -0.44580495201E-01 -0.13711120257E-01  0.84949307732E-01  0.51100000000E-03 0. -1.
         11    1    4    4    0    0 -0.28336870346E-01 -0.34280530266E-01 -0.84715502627E-02  0.45278706488E-01  0.51100000000E-03 0.  1.
</event>
<event>
 8    1  0.1132255E+005  0.1043930E+01  0.7957747E-01            NaN
         13   -1    0    0    0    0  0.00000000000E+00  0.00000000000E+00  0.74505805969E-08  0.10566000000E+00  0.10566000000E+00 0.  1.
     999900   -1    0    0    0    0 -0.00000000000E+00 -0.00000000000E+00 -0.74505805969E-08  0.93827000000E+00  0.93827000000E+00 0.  1.
     999902    2    1    2    0    0  0.11450385385E-01  0.14831860626E-01 -0.14306083221E-01  0.10203554495E+01  0.10200830769E+01 0.  0.
     999903    2    3    3    0    0  0.20071479079E-01 -0.22129068075E-01  0.12369520794E+00  0.12879233345E+00  0.19859525733E-01 0.  0.
         14    1    1    2    0    0 -0.11450385385E-01 -0.14831860626E-01  0.14306083221E-01  0.23574550520E-01  0.00000000000E+00 0.  1.
     999901    1    3    3    0    0 -0.86210936943E-02  0.36960928701E-01 -0.13800129116E+00  0.89156311603E+00  0.88000000000E+00 0.  1.
        -11    1    4    4    0    0  0.73789700473E-02 -0.20761903105E-01  0.92344882823E-01  0.94938634518E-01  0.51100000000E-03 0.  1.
         11    1    4    4    0    0  0.12692509032E-01 -0.13671649706E-02  0.31350325113E-01  0.33853698930E-01  0.51100000000E-03 0. -1.
</event>
<event>
 8    1  0.1132255E+005  0.1043930E+01  0.7957747E-01            NaN
         13   -1    0    0    0    0  0.00000000000E+00  0.00000000000E+00  0.74505805969E-08  0.10566000000E+00  0.10566000000E+00 0.  1.
     999900   -1    0    0    0    0 -0.00000000000E+00 -0.00000000000E+00 -0.74505805969E-08  0.93827000000E+00  0.93827000000E+00 0. -1.
     999902    2    1    2    0    0  0.49976179178E-02 -0.52468304557E-02 -0.19431144952E-01  0.10231917549E+01  0.10229815700E+01 0.  0.
     999903    2    3    3    0    0 -0.77561327842E-01  0.12722332959E-02  0.10370338453E+00  0.13076775812E+00  0.18122815678E-01 0.  0.
         14    1    1    2    0    0 -0.49976179178E-02  0.52468304557E-02  0.19431144952E-01  0.20738245076E-01  0.00000000000E+00 0.  1.
     999901    1    3    3    0    0  0.82558945760E-01 -0.65190637516E-02 -0.12313452948E+00  0.89242399680E+00  0.88000000000E+00 0. -1.
        -11    1    4    4    0    0 -0.35721457747E-01 -0.84325369090E-02  0.47895947637E-01  0.60344122691E-01  0.51100000000E-03 0. -1.
         11    1    4    4    0    0 -0.41839870095E-01  0.97047702050E-02  0.55807436890E-01  0.70423635432E-01  0.51100000000E-03 0.  1.
</event>
<event>
 8    1  0.1132255E+005  0.1043930E+01  0.7957747E-01            NaN
         13   -1    0    0    0    0  0.00000000000E+00  0.00000000000E+00  0.74505805969E-08  0.10566000000E+00  0.10566000000E+00 0.  1.
     999900   -1    0    0    0    0 -0.00000000000E+00 -0.00000000000E+00 -0.74505805969E-08  0.93827000000E+00  0.93827000000E+00 0. -1.
     999902    2    1    2    0    0 -0.11514432331E-01  0.62067342346E-02 -0.19455078901E-01  0.10204863271E+01  0.10202170054E+01 0.  0.
     999903    2    3    3    0    0  0.11705475156E-01  0.12637633427E+00  0.26066033935E-01  0.13085040803E+00  0.18286474301E-01 0.  0.
         14    1    1    2    0    0  0.11514432331E-01 -0.62067342346E-02  0.19455078901E-01  0.23443672852E-01  0.00000000000E+00 0.  1.
     999901    1    3    3    0    0 -0.23219907488E-01 -0.12016960004E+00 -0.45521112836E-01  0.88963591912E+00  0.88000000000E+00 0. -1.
        -11    1    4    4    0    0 -0.30312528996E-02  0.16577689258E-01 -0.71332058822E-03  0.16875373256E-01  0.51100000000E-03 0. -1.
         11    1    4    4    0    0  0.14736728056E-01  0.10979864502E+00  0.26779354523E-01  0.11397503477E+00  0.51100000000E-03 0.  1.
</event>
<event>
 8    1  0.1132255E+005  0.1043930E+01  0.7957747E-01            NaN
         13   -1    0    0    0    0  0.00000000000E+00  0.00000000000E+00  0.74505805969E-08  0.10566000000E+00  0.10566000000E+00 0. -1.
     999900   -1    0    0    0    0 -0.00000000000E+00 -0.00000000000E+00 -0.74505805969E-08  0.93827000000E+00  0.93827000000E+00 0. -1.
     999902    2    1    2    0    0 -0.20279857502E-01  0.59670024159E-02 -0.97450566816E-02  0.10206524600E+01  0.10203869855E+01 0.  0.
     999903    2    3    3    0    0  0.96189563474E-01 -0.52773243045E-01 -0.67161910596E-01  0.12918611877E+00  0.11869445831E-01 0.  0.
         14    1    1    2    0    0  0.20279857502E-01 -0.59670024159E-02  0.97450566816E-02  0.23277539988E-01  0.00000000000E+00 0.  1.
     999901    1    3    3    0    0 -0.11646942098E+00  0.58740245461E-01  0.57416853915E-01  0.89146634125E+00  0.88000000000E+00 0.  1.
        -11    1    4    4    0    0  0.64718680231E-01 -0.40258006651E-01 -0.42316209203E-01  0.87178766639E-01  0.51100000000E-03 0. -1.
         11    1    4    4    0    0  0.31470883243E-01 -0.12515236394E-01 -0.24845701393E-01  0.42007352128E-01  0.51100000000E-03 0.  1.
</event>
<event>
 8    1  0.1132255E+005  0.1043930E+01  0.7957747E-01            NaN
         13   -1    0    0    0    0  0.00000000000E+00  0.00000000000E+00  0.74505805969E-08  0.10566000000E+00  0.10566000000E+00 0. -1.
     999900   -1    0    0    0    0 -0.00000000000E+00 -0.00000000000E+00 -0.74505805969E-08  0.93827000000E+00  0.93827000000E+00 0.  1.
     999902    2    1    2    0    0 -0.35993679200E-03  0.22828722131E-01 -0.65918800775E-02  0.10201658886E+01  0.10198890661E+01 0.  0.
     999903    2    3    3    0    0  0.92591893322E-02 -0.11964084192E+00 -0.40064402936E-01  0.12802771876E+00  0.19653924429E-01 0.  0.
         14    1    1    2    0    0  0.35993679200E-03 -0.22828722131E-01  0.65918800775E-02  0.23764111420E-01  0.00000000000E+00 0.  1.
     999901    1    3    3    0    0 -0.96191261242E-02  0.14246956405E+00  0.33472522858E-01  0.89213816982E+00  0.88000000000E+00 0.  1.
        -11    1    4    4    0    0  0.14222758918E-01 -0.64239837268E-01 -0.25124140320E-01  0.70431009585E-01  0.51100000000E-03 0. -1.
         11    1    4    4    0    0 -0.49635695855E-02 -0.55401004651E-01 -0.14940262615E-01  0.57596709172E-01  0.51100000000E-03 0.  1.
</event>
<event>
 8    1  0.1132255E+005  0.1043930E+01  0.7957747E-01            NaN
         13   -1    0    0    0    0  0.00000000000E+00  0.00000000000E+00  0.74505805969E-08  0.10566000000E+00  0.10566000000E+00 0. -1.
     999900   -1    0    0    0    0 -0.00000000000E+00 -0.00000000000E+00 -0.74505805969E-08  0.93827000000E+00  0.93827000000E+00 0. -1.
     999902    2    1    2    0    0  0.33025704801E-02 -0.21388273729E-01  0.12525549823E-01  0.10189249081E+01  0.10186180411E+01 0.  0.
     999903    2    3    3    0    0 -0.26798462168E-01 -0.11681167493E+00  0.52888552901E-01  0.13233544856E+00  0.18770906808E-01 0.  0.
         14    1    1    2    0    0 -0.33025704801E-02  0.21388273729E-01 -0.12525549823E-01  0.25005091947E-01  0.00000000000E+00 0.  1.
     999901    1    3    3    0    0  0.30101032648E-01  0.95423401206E-01 -0.40363003078E-01  0.88658945949E+00  0.88000000000E+00 0.  1.
        -11    1    4    4    0    0 -0.95302943369E-02 -0.68082971600E-01  0.22355512976E-01  0.72292099247E-01  0.51100000000E-03 0. -1.
         11    1    4    4    0    0 -0.17268167831E-01 -0.48728703335E-01  0.30533039925E-01  0.60043349315E-01  0.51100000000E-03 0.  1.
</event>
<event>
 8    1  0.1132255E+005  0.1043930E+01  0.7957747E-01            NaN
         13   -1    0    0    0    0  0.00000000000E+00  0.00000000000E+00  0.74505805969E-08  0.10566000000E+00  0.10566000000E+00 0.  1.
     999900   -1    0    0    0    0 -0.00000000000E+00 -0.00000000000E+00 -0.74505805969E-08  0.93827000000E+00  0.93827000000E+00 0.  1.
     999902    2    1    2    0    0  0.13981060294E-01  0.92121777661E-02  0.16449464217E-01  0.10204583333E+01  0.10201883604E+01 0.  0.
     999903    2    3    3    0    0  0.10870721622E+00 -0.36008508675E-01 -0.59874786728E-01  0.13093972954E+00  0.21127023705E-01 0.  0.
         14    1    1    2    0    0 -0.13981060294E-01 -0.92121777661E-02 -0.16449464217E-01  0.23471666732E-01  0.00000000000E+00 0. -1.
     999901    1    3    3    0    0 -0.94726155926E-01  0.45220686441E-01  0.76324250945E-01  0.88951860373E+00  0.88000000000E+00 0.  1.
        -11    1    4    4    0    0  0.42110856379E-01 -0.32827694350E-02 -0.21338258699E-01  0.47325291393E-01  0.51100000000E-03 0. -1.
         11    1    4    4    0    0  0.66596359841E-01 -0.32725739240E-01 -0.38536528029E-01  0.83614438145E-01  0.51100000000E-03 0.  1.
</event>
<event>
 8    1  0.1132255E+005  0.1043930E+01  0.7957747E-01            NaN
         13   -1    0    0    0    0  0.00000000000E+00  0.00000000000E+00  0.74505805969E-08  0.10566000000E+00  0.10566000000E+00 0.  1.
     999900   -1    0    0    0    0 -0.00000000000E+00 -0.00000000000E+00 -0.74505805969E-08  0.93827000000E+00  0.93827000000E+00 0.  1.
     999902    2    1    2    0    0 -0.91199615249E-02 -0.21965807391E-01  0.13078155080E-02  0.10201102440E+01  0.10198321084E+01 0.  0.
     999903    2    3    3    0    0  0.60515648783E-01  0.10910575957E+00  0.12029429535E-01  0.12761720379E+00  0.23984015708E-01 0.  0.
         14    1    1    2    0    0  0.91199615249E-02  0.21965807391E-01 -0.13078155080E-02  0.23819755959E-01  0.00000000000E+00 0. -1.
     999901    1    3    3    0    0 -0.69635610308E-01 -0.13107156696E+00 -0.10721614027E-01  0.89249304025E+00  0.88000000000E+00 0. -1.
        -11    1    4    4    0    0  0.42788024308E-01  0.53121969212E-01  0.38140850176E-02  0.68319594573E-01  0.51100000000E-03 0. -1.
         11    1    4    4    0    0  0.17727624475E-01  0.55983790358E-01  0.82153445174E-02  0.59297609217E-01  0.51100000000E-03 0.  1.
</event>
<event>
 8    1  0.1132255E+005  0.1043930E+01  0.7957747E-01            NaN
         13   -1    0    0    0    0  0.00000000000E+00  0.00000000000E+00  0.74505805969E-08  0.10566000000E+00  0.10566000000E+00 0. -1.
     999900   -1    0    0    0    0 -0.00000000000E+00 -0.00000000000E+00 -0.74505805969E-08  0.93827000000E+00  0.93827000000E+00 0.  1.
     999902    2    1    2    0    0  0.13298592466E-01  0.37019212577E-02 -0.20473793974E-01  0.10192372273E+01  0.10189380710E+01 0.  0.
     999903    2    3    3    0    0 -0.14906051465E-01 -0.12032409126E+00 -0.42990763615E-01  0.12980765303E+00  0.17370772039E-01 0.  0.
         14    1    1    2    0    0 -0.13298592466E-01 -0.37019212577E-02  0.20473793974E-01  0.24692772673E-01  0.00000000000E+00 0. -1.
     999901    1    3    3    0    0  0.28204643931E-01  0.12402601251E+00  0.22516969641E-01  0.88942957430E+00  0.88000000000E+00 0.  1.
        -11    1    4    4    0    0 -0.30005818494E-02 -0.56460673922E-01 -0.28176798622E-01  0.63174395864E-01  0.51100000000E-03 0. -1.
         11    1    4    4    0    0 -0.11905469615E-01 -0.63863417333E-01 -0.14813964993E-01  0.66633257162E-01  0.51100000000E-03 0.  1.
</event>
<event>
 8    1  0.1132255E+005  0.1043930E+01  0.7957747E-01            NaN
         13   -1    0    0    0    0  0.00000000000E+00  0.00000000000E+00  0.74505805969E-08  0.10566000000E+00  0.10566000000E+00 0.  1.
     999900   -1    0    0    0    0 -0.00000000000E+00 -0.00000000000E+00 -0.74505805969E-08  0.93827000000E+00  0.93827000000E+00 0. -1.
     999902    2    1    2    0    0 -0.17491602731E-01  0.14880723239E-01 -0.52212841455E-02  0.10203789088E+01  0.10201070844E+01 0.  0.
     999903    2    3    3    0    0 -0.40842045917E-01  0.10777143295E+00  0.62380817410E-01  0.13260417873E+00  0.20242217351E-01 0.  0.
         14    1    1    2    0    0  0.17491602731E-01 -0.14880723239E-01  0.52212841455E-02  0.23551091234E-01  0.00000000000E+00 0. -1.
     999901    1    3    3    0    0  0.23350443186E-01 -0.92890709707E-01 -0.67602101555E-01  0.88777473003E+00  0.88000000000E+00 0. -1.
        -11    1    4    4    0    0 -0.22544883042E-01  0.74525738506E-01  0.32814516466E-01  0.84495035731E-01  0.51100000000E-03 0. -1.
         11    1    4    4    0    0 -0.18297162875E-01  0.33245694440E-01  0.29566300944E-01  0.48109143004E-01  0.51100000000E-03 0.  1.
</event>
<event>
 8    1  0.1132255E+005  0.1043930E+01  0.7957747E-01            NaN
         13   -1    0    0    0    0  0.00000000000E+00  0.00000000000E+00  0.74505805969E-08  0.10566000000E+00  0.10566000000E+00 0. -1.
     999900   -1    0    0    0    0 -0.00000000000E+00 -0.00000000000E+00 -0.74505805969E-08  0.93827000000E+00  0.93827000000E+00 0. -1.
     999902    2    1    2    0    0 -0.17951494244E-01 -0.11915984472E-01 -0.10006901813E-01  0.10201732133E+01  0.10198965635E+01 0.  0.
     999903    2    3    3    0    0  0.47297821013E-01 -0.10231180239E+00 -0.65278079452E-01  0.13141915274E+00  0.17463598390E-01 0.  0.
         14    1    1    2    0    0  0.17951494244E-01  0.11915984472E-01  0.10006901813E-01  0.23756786724E-01  0.00000000000E+00 0. -1.
     999901    1    3    3    0    0 -0.65249315258E-01  0.90395817921E-01  0.55271177639E-01  0.88875406053E+00  0.88000000000E+00 0.  1.
        -11    1    4    4    0    0  0.96574962133E-02 -0.15535563312E-01 -0.40505446520E-02  0.18742705074E-01  0.51100000000E-03 0.  1.
         11    1    4    4    0    0  0.37640324800E-01 -0.86776239082E-01 -0.61227534800E-01  0.11267644767E+00  0.51100000000E-03 0. -1.
</event>
<event>
 8    1  0.1132255E+005  0.1043930E+01  0.7957747E-01            NaN
         13   -1    0    0    0    0  0.00000000000E+00  0.00000000000E+00  0.74505805969E-08  0.10566000000E+00  0.10566000000E+00 0.  1.
     999900   -1    0    0    0    0 -0.00000000000E+00 -0.00000000000E+00 -0.74505805969E-08  0.93827000000E+00  0.93827000000E+00 0. -1.
     999902    2    1    2    0    0  0.20266186688E-01 -0.44614333980E-02 -0.12855781123E-01  0.10195190635E+01  0.10192267790E+01 0.  0.
     999903    2    3    3    0    0 -0.40149343655E-01 -0.12024606580E+00 -0.18094171777E-01  0.12986544659E+00  0.21599746074E-01 0.  0.
         14    1    1    2    0    0 -0.20266186688E-01  0.44614333980E-02  0.12855781123E-01  0.24410936465E-01  0.00000000000E+00 0.  1.
     999901    1    3    3    0    0  0.60415530343E-01  0.11578463240E+00  0.52383906545E-02  0.88965361694E+00  0.88000000000E+00 0. -1.
        -11    1    4    4    0    0 -0.33852259593E-02 -0.24182157148E-01  0.37561639416E-02  0.24710450577E-01  0.51100000000E-03 0. -1.
         11    1    4    4    0    0 -0.36764117696E-01 -0.96063908648E-01 -0.21850335719E-01  0.10515499601E+00  0.51100000000E-03 0.  1.
</event>
<event>
 8    1  0.1132255E+005  0.1043930E+01  0.7957747E-01            NaN
         13   -1    0    0    0    0  0.00000000000E+00  0.00000000000E+00  0.74505805969E-08  0.10566000000E+00  0.10566000000E+00 0.  1.
     999900   -1    0    0    0    0 -0.00000000000E+00 -0.00000000000E+00 -0.74505805969E-08  0.93827000000E+00  0.93827000000E+00 0. -1.
     999902    2    1    2    0    0  0.12007435286E-01 -0.12706649613E-01  0.45544014797E-02  0.10258640093E+01  0.10257049213E+01 0.  0.
     999903    2    3    3    0    0  0.45233480600E-01 -0.12330986935E+00 -0.35069342964E-01  0.13743444912E+00  0.20173679500E-01 0.  0.
         14    1    1    2    0    0 -0.12007435286E-01  0.12706649613E-01 -0.45544014797E-02  0.18065990684E-01  0.00000000000E+00 0. -1.
     999901    1    3    3    0    0 -0.33226045314E-01  0.11060321973E+00  0.39623744444E-01  0.88842956019E+00  0.88000000000E+00 0.  1.
        -11    1    4    4    0    0  0.25366268888E-01 -0.63006304813E-01 -0.79321772249E-02  0.68384373946E-01  0.51100000000E-03 0. -1.
         11    1    4    4    0    0  0.19867211712E-01 -0.60303564532E-01 -0.27137165739E-01  0.69050075176E-01  0.51100000000E-03 0.  1.
</event>
<event>
 8    1  0.1132255E+005  0.1043930E+01  0.7957747E-01            NaN
         13   -1    0    0    0    0  0.00000000000E+00  0.00000000000E+00  0.74505805969E-08  0.10566000000E+00  0.10566000000E+00 0. -1.
     999900   -1    0    0    0    0 -0.00000000000E+00 -0.00000000000E+00 -0.74505805969E-08  0.93827000000E+00  0.93827000000E+00 0.  1.
     999902    2    1    2    0    0  0.14526985538E-03 -0.88908056652E-02 -0.21703534684E-01  0.10204755559E+01  0.10202059838E+01 0.  0.
     999903    2    3    3    0    0  0.11841827885E-01 -0.12057228655E+00 -0.50815128511E-01  0.13286243777E+00  0.19807698352E-01 0.  0.
         14    1    1    2    0    0 -0.14526985538E-03  0.88908056652E-02  0.21703534684E-01  0.23454444067E-01  0.00000000000E+00 0. -1.
     999901    1    3    3    0    0 -0.11696558029E-01  0.11168148088E+00  0.29111593827E-01  0.88761311816E+00  0.88000000000E+00 0. -1.
        -11    1    4    4    0    0  0.73662378579E-02 -0.86177208526E-01 -0.45620534286E-01  0.97786844713E-01  0.51100000000E-03 0. -1.
         11    1    4    4    0    0  0.44755900268E-02 -0.34395078020E-01 -0.51945942247E-02  0.35075593056E-01  0.51100000000E-03 0.  1.
</event>
<event>
 8    1  0.1132255E+005  0.1043930E+01  0.7957747E-01            NaN
         13   -1    0    0    0    0  0.00000000000E+00  0.00000000000E+00  0.74505805969E-08  0.10566000000E+00  0.10566000000E+00 0. -1.
     999900   -1    0    0    0    0 -0.00000000000E+00 -0.00000000000E+00 -0.74505805969E-08  0.93827000000E+00  0.93827000000E+00 0.  1.
     999902    2    1    2    0    0  0.18076130273E-01 -0.72300955524E-02 -0.12668321691E-01  0.10207027070E+01  0.10204383905E+01 0.  0.
     999903    2    3    3    0    0  0.55405104144E-01  0.57360103268E-01 -0.10428735560E+00  0.13280665818E+00  0.20046169387E-01 0.  0.
         14    1    1    2    0    0 -0.18076130273E-01  0.72300955524E-02  0.12668321691E-01  0.23227293037E-01  0.00000000000E+00 0. -1.
     999901    1    3    3    0    0 -0.37328973871E-01 -0.64590198820E-01  0.91619033904E-01  0.88789604878E+00  0.88000000000E+00 0. -1.
        -11    1    4    4    0    0  0.25428548374E-01  0.18854714406E-01 -0.28110410594E-01  0.42338724975E-01  0.51100000000E-03 0. -1.
         11    1    4    4    0    0  0.29976555771E-01  0.38505388862E-01 -0.76176945002E-01  0.90467933203E-01  0.51100000000E-03 0.  1.
</event>
<event>
 8    1  0.1132255E+005  0.1043930E+01  0.7957747E-01            NaN
         13   -1    0    0    0    0  0.00000000000E+00  0.00000000000E+00  0.74505805969E-08  0.10566000000E+00  0.10566000000E+00 0. -1.
     999900   -1    0    0    0    0 -0.00000000000E+00 -0.00000000000E+00 -0.74505805969E-08  0.93827000000E+00  0.93827000000E+00 0.  1.
     999902    2    1    2    0    0 -0.61478605775E-02  0.17145995695E-01 -0.15563950089E-01  0.10199713293E+01  0.10196899013E+01 0.  0.
     999903    2    3    3    0    0 -0.97332384338E-01 -0.46975624792E-01  0.67725648644E-01  0.12903734926E+00  0.19584985399E-01 0.  0.
         14    1    1    2    0    0  0.61478605775E-02 -0.17145995695E-01  0.15563950089E-01  0.23958670673E-01  0.00000000000E+00 0. -1.
     999901    1    3    3    0    0  0.91184523761E-01  0.64121620487E-01 -0.83289598734E-01  0.89093398007E+00  0.88000000000E+00 0. -1.
        -11    1    4    4    0    0 -0.55135094089E-01 -0.15784568383E-01  0.36098335008E-01  0.67767116735E-01  0.51100000000E-03 0.  1.
         11    1    4    4    0    0 -0.42197290249E-01 -0.31191056409E-01  0.31627313636E-01  0.61270232521E-01  0.51100000000E-03 0. -1.
</event>
<event>
 8    1  0.1132255E+005  0.1043930E+01  0.7957747E-01            NaN
         13   -1    0    0    0    0  0.00000000000E+00  0.00000000000E+00  0.74505805969E-08  0.10566000000E+00  0.10566000000E+00 0.  1.
     999900   -1    0    0    0    0 -0.00000000000E+00 -0.00000000000E+00 -0.74505805969E-08  0.93827000000E+00  0.93827000000E+00 0. -1.
     999902    2    1    2    0    0 -0.86726392155E-02  0.12907906398E-01  0.18420880840E-01  0.10198227901E+01  0.10195378196E+01 0.  0.
     999903    2    3    3    0    0  0.92995449259E-01  0.64222496163E-01 -0.58687207198E-01  0.12914033008E+00  0.21455860923E-01 0.  0.
         14    1    1    2    0    0  0.86726392155E-02 -0.12907906398E-01 -0.18420880840E-01  0.24107209906E-01  0.00000000000E+00 0. -1.
     999901    1    3    3    0    0 -0.10166808847E+00 -0.51314589765E-01  0.77108088038E-01  0.89068246001E+00  0.88000000000E+00 0.  1.
        -11    1    4    4    0    0  0.91223342431E-01  0.58305276959E-01 -0.58214530277E-01  0.12292435146E+00  0.51100000000E-03 0. -1.
         11    1    4    4    0    0  0.17721068274E-02  0.59172192042E-02 -0.47267692167E-03  0.62159786189E-02  0.51100000000E-03 0.  1.
</event>
<event>
 8    1  0.1132255E+005  0.1043930E+01  0.7957747E-01            NaN
         13   -1    0    0    0    0  0.00000000000E+00  0.00000000000E+00  0.74505805969E-08  0.10566000000E+00  0.10566000000E+00 0.  1.
     999900   -1    0    0    0    0 -0.00000000000E+00 -0.00000000000E+00 -0.74505805969E-08  0.93827000000E+00  0.93827000000E+00 0. -1.
     999902    2    1    2    0    0  0.49120331717E-02  0.23518603489E-01 -0.72946128865E-02  0.10188209547E+01  0.10185114990E+01 0.  0.
     999903    2    3    3    0    0  0.82524788053E-01  0.36352071774E-01 -0.93372622384E-01  0.13112851844E+00  0.18558770763E-01 0.  0.
         14    1    1    2    0    0 -0.49120331717E-02 -0.23518603489E-01  0.72946128865E-02  0.25109045325E-01  0.00000000000E+00 0.  1.
     999901    1    3    3    0    0 -0.77612754881E-01 -0.12833468285E-01  0.86078009497E-01  0.88769243623E+00  0.88000000000E+00 0. -1.
        -11    1    4    4    0    0  0.19308058616E-01  0.17179022836E-01 -0.22907354818E-01  0.34538789482E-01  0.51100000000E-03 0.  1.
         11    1    4    4    0    0  0.63216729436E-01  0.19173048938E-01 -0.70465267565E-01  0.96589728959E-01  0.51100000000E-03 0. -1.
</event>
<event>
 8    1  0.1132255E+005  0.1043930E+01  0.7957747E-01            NaN
         13   -1    0    0    0    0  0.00000000000E+00  0.00000000000E+00  0.74505805969E-08  0.10566000000E+00  0.10566000000E+00 0.  1.
     999900   -1    0    0    0    0 -0.00000000000E+00 -0.00000000000E+00 -0.74505805969E-08  0.93827000000E+00  0.93827000000E+00 0.  1.
     999902    2    1    2    0    0 -0.20018190367E-01 -0.11052414917E-01 -0.34307809440E-02  0.10208074119E+01  0.10205455003E+01 0.  0.
     999903    2    3    3    0    0  0.86923347982E-01  0.69568928004E-02 -0.93627144167E-01  0.12957443918E+00  0.20479901883E-01 0.  0.
         14    1    1    2    0    0  0.20018190367E-01  0.11052414917E-01  0.34307809440E-02  0.23122588068E-01  0.00000000000E+00 0. -1.
     999901    1    3    3    0    0 -0.10694153835E+00 -0.18009307718E-01  0.90196363223E-01  0.89123297276E+00  0.88000000000E+00 0.  1.
        -11    1    4    4    0    0  0.59049701678E-01  0.24362849194E-02 -0.76025052341E-01  0.96295755134E-01  0.51100000000E-03 0.  1.
         11    1    4    4    0    0  0.27873646304E-01  0.45206078810E-02 -0.17602091826E-01  0.33278684042E-01  0.51100000000E-03 0. -1.
</event>
<event>
 8    1  0.1132255E+005  0.1043930E+01  0.7957747E-01            NaN
         13   -1    0    0    0    0  0.00000000000E+00  0.00000000000E+00  0.74505805969E-08  0.10566000000E+00  0.10566000000E+00 0.  1.
     999900   -1    0    0    0    0 -0.00000000000E+00 -0.00000000000E+00 -0.74505805969E-08  0.93827000000E+00  0.93827000000E+00 0.  1.
     999902    2    1    2    0    0  0.10151919466E-01  0.16245874293E-01 -0.17800274717E-01  0.10177796715E+01  0.10174436692E+01 0.  0.
     999903    2    3    3    0    0  0.50442929411E-02  0.78230491850E-01  0.99084773406E-01  0.12787501642E+00  0.19717321262E-01 0.  0.
         14    1    1    2    0    0 -0.10151919466E-01 -0.16245874293E-01  0.17800274717E-01  0.26150328495E-01  0.00000000000E+00 0.  1.
     999901    1    3    3    0    0  0.51076265253E-02 -0.61984617557E-01 -0.11688504812E+00  0.88990465508E+00  0.88000000000E+00 0.  1.
        -11    1    4    4    0    0 -0.58587479057E-02  0.53221652033E-01  0.66060266382E-01  0.85035810619E-01  0.51100000000E-03 0.  1.
         11    1    4    4    0    0  0.10903040847E-01  0.25008839817E-01  0.33024507024E-01  0.42839205803E-01  0.51100000000E-03 0. -1.
</event>
<event>
 8    1  0.1132255E+005  0.1043930E+01  0.7957747E-01            NaN
         13   -1    0    0    0    0  0.00000000000E+00  0.00000000000E+00  0.74505805969E-08  0.10566000000E+00  0.10566000000E+00 0. -1.
     999900   -1    0    0    0    0 -0.00000000000E+00 -0.00000000000E+00 -0.74505805969E-08  0.93827000000E+00  0.93827000000E+00 0.  1.
     999902    2    1    2    0    0 -0.11283895187E-01 -0.29177137599E-02 -0.18236342035E-01  0.10222873681E+01  0.10220582466E+01 0.  0.
     999903    2    3    3    0    0 -0.21394493245E-03  0.13031422942E+00 -0.55587709237E-02  0.13209973885E+00  0.20918817086E-01 0.  0.
         14    1    1    2    0    0  0.11283895187E-01  0.29177137599E-02  0.18236342035E-01  0.21642631887E-01  0.00000000000E+00 0. -1.
     999901    1    3    3    0    0 -0.11069950254E-01 -0.13323194318E+00 -0.12677571111E-01  0.89018762926E+00  0.88000000000E+00 0.  1.
        -11    1    4    4    0    0  0.29008570025E-03  0.92510578787E-01 -0.13419885724E-01  0.93480724169E-01  0.51100000000E-03 0. -1.
         11    1    4    4    0    0 -0.50403063270E-03  0.37803650634E-01  0.78611148002E-02  0.38619014683E-01  0.51100000000E-03 0.  1.
</event>
<event>
 8    1  0.1132255E+005  0.1043930E+01  0.7957747E-01            NaN
         13   -1    0    0    0    0  0.00000000000E+00  0.00000000000E+00  0.74505805969E-08  0.10566000000E+00  0.10566000000E+00 0. -1.
     999900   -1    0    0    0    0 -0.00000000000E+00 -0.00000000000E+00 -0.74505805969E-08  0.93827000000E+00  0.93827000000E+00 0. -1.
     999902    2    1    2    0    0 -0.12619964589E-01 -0.70765544410E-02 -0.19089793054E-01  0.10199766844E+01  0.10196953836E+01 0.  0.
     999903    2    3    3    0    0 -0.11518259668E+00  0.58279218170E-01  0.15797559113E-01  0.13092798054E+00  0.15135235862E-01 0.  0.
         14    1    1    2    0    0  0.12619964589E-01  0.70765544410E-02  0.19089793054E-01  0.23953315592E-01  0.00000000000E+00 0. -1.
     999901    1    3    3    0    0  0.10256263209E+00 -0.65355772611E-01 -0.34887352167E-01  0.88904870387E+00  0.88000000000E+00 0. -1.
        -11    1    4    4    0    0 -0.71606543134E-02  0.68769733977E-02  0.40088851987E-02  0.10719142449E-01  0.51100000000E-03 0.  1.
         11    1    4    4    0    0 -0.10802194237E+00  0.51402244772E-01  0.11788673914E-01  0.12020883809E+00  0.51100000000E-03 0. -1.
</event>
<event>
 8    1  0.1132255E+005  0.1043930E+01  0.7957747E-01            NaN
         13   -1    0    0    0    0  0.00000000000E+00  0.00000000000E+00  0.74505805969E-08  0.10566000000E+00  0.10566000000E+00 0.  1.
     999900   -1    0    0    0    0 -0.00000000000E+00 -0.00000000000E+00 -0.74505805969E-08  0.93827000000E+00  0.93827000000E+00 0.  1.
     999902    2    1    2    0    0  0.10941015315E-01  0.14346090279E-01  0.13732052864E-01  0.10212565486E+01  0.10210048250E+01 0.  0.
     999903    2    3    3    0    0  0.54002555219E-01  0.19887757957E-01 -0.11559765426E+00  0.13074479717E+00  0.20483784523E-01 0.  0.
         14    1    1    2    0    0 -0.10941015315E-01 -0.14346090279E-01 -0.13732052864E-01  0.22673451398E-01  0.00000000000E+00 0. -1.
     999901    1    3    3    0    0 -0.43061539904E-01 -0.55416676781E-02  0.12932970713E+00  0.89051175144E+00  0.88000000000E+00 0. -1.
        -11    1    4    4    0    0  0.19984083167E-01 -0.24062876690E-02 -0.32624444777E-01  0.38337570585E-01  0.51100000000E-03 0. -1.
         11    1    4    4    0    0  0.34018472052E-01  0.22294045626E-01 -0.82973209485E-01  0.92407226581E-01  0.51100000000E-03 0.  1.
</event>
<event>
 8    1  0.1132255E+005  0.1043930E+01  0.7957747E-01            NaN
         13   -1    0    0    0    0  0.00000000000E+00  0.00000000000E+00  0.74505805969E-08  0.10566000000E+00  0.10566000000E+00 0. -1.
     999900   -1    0    0    0    0 -0.00000000000E+00 -0.00000000000E+00 -0.74505805969E-08  0.93827000000E+00  0.93827000000E+00 0. -1.
     999902    2    1    2    0    0 -0.14018699210E-01 -0.10430727306E-01 -0.15788726813E-01  0.10203798855E+01  0.10201080839E+01 0.  0.
     999903    2    3    3    0    0  0.12718695903E+00  0.62974421588E-02 -0.25308937282E-03  0.12883054551E+00  0.19520888185E-01 0.  0.
         14    1    1    2    0    0  0.14018699210E-01  0.10430727306E-01  0.15788726813E-01  0.23550114523E-01  0.00000000000E+00 0.  1.
     999901    1    3    3    0    0 -0.14120565824E+00 -0.16728169465E-01 -0.15535637440E-01  0.89154933997E+00  0.88000000000E+00 0.  1.
        -11    1    4    4    0    0  0.11801756203E+00  0.60574738193E-03 -0.56800856608E-03  0.11802158968E+00  0.51100000000E-03 0. -1.
         11    1    4    4    0    0  0.91693970050E-02  0.56916947769E-02  0.31491919327E-03  0.10808955822E-01  0.51100000000E-03 0.  1.
</event>
<event>
 8    1  0.1132255E+005  0.1043930E+01  0.7957747E-01            NaN
         13   -1    0    0    0    0  0.00000000000E+00  0.00000000000E+00  0.74505805969E-08  0.10566000000E+00  0.10566000000E+00 0.  1.
     999900   -1    0    0    0    0 -0.00000000000E+00 -0.00000000000E+00 -0.74505805969E-08  0.93827000000E+00  0.93827000000E+00 0. -1.
     999902    2    1    2    0    0 -0.14330248478E-01  0.18566701478E-01 -0.34699497518E-02  0.10202209516E+01  0.10199454255E+01 0.  0.
     999903    2    3    3    0    0  0.12234028114E+00 -0.35968738563E-03 -0.35441092028E-01  0.12889654611E+00  0.19773083476E-01 0.  0.
         14    1    1    2    0    0  0.14330248478E-01 -0.18566701478E-01  0.34699497518E-02  0.23709048410E-01  0.00000000000E+00 0.  1.
     999901    1    3    3    0    0 -0.13667052962E+00  0.18926388864E-01  0.31971142276E-01  0.89132440548E+00  0.88000000000E+00 0.  1.
        -11    1    4    4    0    0  0.67980336953E-01 -0.56001725077E-02 -0.11125708140E-01  0.69113896193E-01  0.51100000000E-03 0. -1.
         11    1    4    4    0    0  0.54359944190E-01  0.52404851221E-02 -0.24315383888E-01  0.59782649918E-01  0.51100000000E-03 0.  1.
</event>
<event>
 8    1  0.1132255E+005  0.1043930E+01  0.7957747E-01            NaN
         13   -1    0    0    0    0  0.00000000000E+00  0.00000000000E+00  0.74505805969E-08  0.10566000000E+00  0.10566000000E+00 0.  1.
     999900   -1    0    0    0    0 -0.00000000000E+00 -0.00000000000E+00 -0.74505805969E-08  0.93827000000E+00  0.93827000000E+00 0.  1.
     999902    2    1    2    0    0 -0.32115269217E-02 -0.13858550289E-01  0.18849577659E-01  0.10203147528E+01  0.10200414280E+01 0.  0.
     999903    2    3    3    0    0 -0.39506797921E-01  0.11513421431E+00  0.40446338480E-01  0.12990872179E+00  0.20583860553E-01 0.  0.
         14    1    1    2    0    0  0.32115269217E-02  0.13858550289E-01 -0.18849577659E-01  0.23615247176E-01  0.00000000000E+00 0. -1.
     999901    1    3    3    0    0  0.36295270999E-01 -0.12899276460E+00 -0.21596760821E-01  0.89040603103E+00  0.88000000000E+00 0. -1.
        -11    1    4    4    0    0 -0.28835229907E-01  0.10067273353E+00  0.39432628546E-01  0.11190023715E+00  0.51100000000E-03 0.  1.
         11    1    4    4    0    0 -0.10671568014E-01  0.14461480781E-01  0.10137099341E-02  0.18008484642E-01  0.51100000000E-03 0. -1.
</event>
<event>
 8    1  0.1132255E+005  0.1043930E+01  0.7957747E-01            NaN
         13   -1    0    0    0    0  0.00000000000E+00  0.00000000000E+00  0.74505805969E-08  0.10566000000E+00  0.10566000000E+00 0.  1.
     999900   -1    0    0    0    0 -0.00000000000E+00 -0.00000000000E+00 -0.74505805969E-08  0.93827000000E+00  0.93827000000E+00 0. -1.
     999902    2    1    2    0    0  0.90903812319E-02 -0.86396575327E-03 -0.22354409626E-01  0.10197825136E+01  0.10194965787E+01 0.  0.
     999903    2    3    3    0    0  0.41718542190E-01 -0.38698208234E-01  0.11296663833E+00  0.12803826061E+00  0.19858165129E-01 0.  0.
         14    1    1    2    0    0 -0.90903812319E-02  0.86396575327E-03  0.22354409626E-01  0.24147486360E-01  0.00000000000E+00 0.  1.
     999901    1    3    3    0    0 -0.32628160959E-01  0.37834242481E-01 -0.13532104795E+00  0.89174425303E+00  0.88000000000E+00 0. -1.
        -11    1    4    4    0    0  0.68034922236E-02 -0.17601582239E-01  0.27789170586E-01  0.33594677058E-01  0.51100000000E-03 0. -1.
         11    1    4    4    0    0  0.34915049967E-01 -0.21096625995E-01  0.85177467741E-01  0.94443583553E-01  0.51100000000E-03 0.  1.
</event>
<event>
 8    1  0.1132255E+005  0.1043930E+01  0.7957747E-01            NaN
         13   -1    0    0    0    0  0.00000000000E+00  0.00000000000E+00  0.74505805969E-08  0.10566000000E+00  0.10566000000E+00 0. -1.
     999900   -1    0    0    0    0 -0.00000000000E+00 -0.00000000000E+00 -0.74505805969E-08  0.93827000000E+00  0.93827000000E+00 0. -1.
     999902    2    1    2    0    0  0.13799862455E-01  0.16538999459E-01  0.11108333851E-01  0.10196942869E+01  0.10194062336E+01 0.  0.
     999903    2    3    3    0    0  0.85079995434E-01  0.43953799867E-01 -0.87341752329E-01  0.13091712245E+00  0.18443673843E-01 0.  0.
         14    1    1    2    0    0 -0.13799862455E-01 -0.16538999459E-01 -0.11108333851E-01  0.24235713066E-01  0.00000000000E+00 0.  1.
     999901    1    3    3    0    0 -0.71280132979E-01 -0.27414800408E-01  0.98450086180E-01  0.88877716448E+00  0.88000000000E+00 0.  1.
        -11    1    4    4    0    0  0.15338366843E-01  0.66536097752E-02 -0.25599237100E-01  0.30579700481E-01  0.51100000000E-03 0. -1.
         11    1    4    4    0    0  0.69741628591E-01  0.37300190091E-01 -0.61742515230E-01  0.10033742197E+00  0.51100000000E-03 0.  1.
</event>
<event>
 8    1  0.1132255E+005  0.1043930E+01  0.7957747E-01            NaN
         13   -1    0    0    0    0  0.00000000000E+00  0.00000000000E+00  0.74505805969E-08  0.10566000000E+00  0.10566000000E+00 0. -1.
     999900   -1    0    0    0    0 -0.00000000000E+00 -0.00000000000E+00 -0.74505805969E-08  0.93827000000E+00  0.93827000000E+00 0.  1.
     999902    2    1    2    0    0  0.86085785986E-02 -0.22955267395E-01 -0.57226508702E-03  0.10194069616E+01  0.10191119536E+01 0.  0.
     999903    2    3    3    0    0  0.12572009520E-01 -0.71217245013E-01  0.10772797996E+00  0.13144644986E+00  0.21045191987E-01 0.  0.
         14    1    1    2    0    0 -0.86085785986E-02  0.22955267395E-01  0.57226508702E-03  0.24523038433E-01  0.00000000000E+00 0. -1.
     999901    1    3    3    0    0 -0.39634309216E-02  0.48261977618E-01 -0.10830024504E+00  0.88796051170E+00  0.88000000000E+00 0.  1.
        -11    1    4    4    0    0  0.13755239834E-01 -0.30800215991E-01  0.37774526138E-01  0.50646183212E-01  0.51100000000E-03 0.  1.
         11    1    4    4    0    0 -0.11832303137E-02 -0.40417029022E-01  0.69953453818E-01  0.80800266652E-01  0.51100000000E-03 0. -1.
</event>
<event>
 8    1  0.1132255E+005  0.1043930E+01  0.7957747E-01            NaN
         13   -1    0    0    0    0  0.00000000000E+00  0.00000000000E+00  0.74505805969E-08  0.10566000000E+00  0.10566000000E+00 0.  1.
     999900   -1    0    0    0    0 -0.00000000000E+00 -0.00000000000E+00 -0.74505805969E-08  0.93827000000E+00  0.93827000000E+00 0.  1.
     999902    2    1    2    0    0  0.17005057486E-01 -0.10538308893E-01  0.11643913552E-01  0.10207824589E+01  0.10205199752E+01 0.  0.
     999903    2    3    3    0    0 -0.34352166089E-01  0.12002440529E+00 -0.25919432622E-01  0.12887708743E+00  0.18749866589E-01 0.  0.
         14    1    1    2    0    0 -0.17005057486E-01  0.10538308893E-01 -0.11643913552E-01  0.23147541062E-01  0.00000000000E+00 0.  1.
     999901    1    3    3    0    0  0.51357223575E-01 -0.13056271418E+00  0.37563346174E-01  0.89190537151E+00  0.88000000000E+00 0. -1.
        -11    1    4    4    0    0 -0.16322513407E-01  0.76792639924E-01 -0.87919876889E-02  0.79000595940E-01  0.51100000000E-03 0.  1.
         11    1    4    4    0    0 -0.18029652682E-01  0.43231765365E-01 -0.17127444933E-01  0.49876491490E-01  0.51100000000E-03 0. -1.
</event>
<event>
 8    1  0.1132255E+005  0.1043930E+01  0.7957747E-01            NaN
         13   -1    0    0    0    0  0.00000000000E+00  0.00000000000E+00  0.74505805969E-08  0.10566000000E+00  0.10566000000E+00 0.  1.
     999900   -1    0    0    0    0 -0.00000000000E+00 -0.00000000000E+00 -0.74505805969E-08  0.93827000000E+00  0.93827000000E+00 0. -1.
     999902    2    1    2    0    0  0.16202400775E-01  0.15332279008E-01 -0.10093952747E-01  0.10194456284E+01  0.10191515613E+01 0.  0.
     999903    2    3    3    0    0  0.10828780189E+00 -0.49380495197E-01  0.48862707877E-01  0.13032057979E+00  0.20765547239E-01 0.  0.
         14    1    1    2    0    0 -0.16202400775E-01 -0.15332279008E-01  0.10093952747E-01  0.24484371597E-01  0.00000000000E+00 0.  1.
     999901    1    3    3    0    0 -0.92085401111E-01  0.64712774205E-01 -0.58956660624E-01  0.88912504862E+00  0.88000000000E+00 0.  1.
        -11    1    4    4    0    0  0.80979148201E-01 -0.38397466292E-01  0.26839144329E-01  0.93555270564E-01  0.51100000000E-03 0.  1.
         11    1    4    4    0    0  0.27308653684E-01 -0.10983028905E-01  0.22023563548E-01  0.36765309224E-01  0.51100000000E-03 0. -1.
</event>
<event>
 8    1  0.1132255E+005  0.1043930E+01  0.7957747E-01            NaN
         13   -1    0    0    0    0  0.00000000000E+00  0.00000000000E+00  0.74505805969E-08  0.10566000000E+00  0.10566000000E+00 0. -1.
     999900   -1    0    0    0    0 -0.00000000000E+00 -0.00000000000E+00 -0.74505805969E-08  0.93827000000E+00  0.93827000000E+00 0.  1.
     999902    2    1    2    0    0 -0.13235406358E-03 -0.21824695982E-01 -0.89388887393E-02  0.10203452888E+01  0.10200726786E+01 0.  0.
     999903    2    3    3    0    0  0.10570052636E+00 -0.13716978762E-01  0.73242762135E-01  0.13016544323E+00  0.14757493900E-01 0.  0.
         14    1    1    2    0    0  0.13235406358E-03  0.21824695982E-01  0.89388887393E-02  0.23584711238E-01  0.00000000000E+00 0. -1.
     999901    1    3    3    0    0 -0.10583288042E+00 -0.81077172195E-02 -0.82181650874E-01  0.89017984554E+00  0.88000000000E+00 0.  1.
        -11    1    4    4    0    0  0.64852395733E-01 -0.65903478345E-02  0.53026482016E-01  0.84031748958E-01  0.51100000000E-03 0.  1.
         11    1    4    4    0    0  0.40848130626E-01 -0.71266309279E-02  0.20216280118E-01  0.46133694268E-01  0.51100000000E-03 0. -1.
</event>
<event>
 8    1  0.1132255E+005  0.1043930E+01  0.7957747E-01            NaN
         13   -1    0    0    0    0  0.00000000000E+00  0.00000000000E+00  0.74505805969E-08  0.10566000000E+00  0.10566000000E+00 0. -1.
     999900   -1    0    0    0    0 -0.00000000000E+00 -0.00000000000E+00 -0.74505805969E-08  0.93827000000E+00  0.93827000000E+00 0. -1.
     999902    2    1    2    0    0 -0.12038426308E-01 -0.19496769716E-01 -0.54833700007E-02  0.10203691196E+01  0.10200970666E+01 0.  0.
     999903    2    3    3    0    0 -0.13036379102E-02  0.75735448231E-01  0.10199570110E+00  0.12866504218E+00  0.20347295799E-01 0.  0.
         14    1    1    2    0    0  0.12038426308E-01  0.19496769716E-01  0.54833700007E-02  0.23560880372E-01  0.00000000000E+00 0. -1.
     999901    1    3    3    0    0 -0.10734788397E-01 -0.95232217947E-01 -0.10747907110E+00  0.89170407745E+00  0.88000000000E+00 0.  1.
        -11    1    4    4    0    0 -0.76471116139E-02  0.16018241444E-01  0.30506334794E-01  0.35298158006E-01  0.51100000000E-03 0.  1.
         11    1    4    4    0    0  0.63434737037E-02  0.59717206787E-01  0.71489366301E-01  0.93366884173E-01  0.51100000000E-03 0. -1.
</event>
<event>
 8    1  0.1132255E+005  0.1043930E+01  0.7957747E-01            NaN
         13   -1    0    0    0    0  0.00000000000E+00  0.00000000000E+00  0.74505805969E-08  0.10566000000E+00  0.10566000000E+00 0. -1.
     999900   -1    0    0    0    0 -0.00000000000E+00 -0.00000000000E+00 -0.74505805969E-08  0.93827000000E+00  0.93827000000E+00 0.  1.
     999902    2    1    2    0    0 -0.20599618728E-01  0.33654122544E-02 -0.99780296608E-02  0.10207949321E+01  0.10205327344E+01 0.  0.
     999903    2    3    3    0    0  0.11539554385E+00  0.17088553450E-01 -0.52014808226E-01  0.12925127101E+00  0.19804054759E-01 0.  0.
         14    1    1    2    0    0  0.20599618728E-01 -0.33654122544E-02  0.99780296608E-02  0.23135067912E-01  0.00000000000E+00 0.  1.
     999901    1    3    3    0    0 -0.13599516258E+00 -0.13723141195E-01  0.42036778565E-01  0.89154366107E+00  0.88000000000E+00 0. -1.
        -11    1    4    4    0    0  0.80750594713E-01  0.19139336961E-01 -0.42616542752E-01  0.93292033974E-01  0.51100000000E-03 0.  1.
         11    1    4    4    0    0  0.34644949136E-01 -0.20507835114E-02 -0.93982654736E-02  0.35959237041E-01  0.51100000000E-03 0. -1.
</event>
<event>
 8    1  0.1132255E+005  0.1043930E+01  0.7957747E-01            NaN
         13   -1    0    0    0    0  0.00000000000E+00  0.00000000000E+00  0.74505805969E-08  0.10566000000E+00  0.10566000000E+00 0. -1.
     999900   -1    0    0    0    0 -0.00000000000E+00 -0.00000000000E+00 -0.74505805969E-08  0.93827000000E+00  0.93827000000E+00 0.  1.
     999902    2    1    2    0    0  0.22373732873E-01  0.72354083124E-02  0.28593957500E-02  0.10202422141E+01  0.10199671878E+01 0.  0.
     999903    2    3    3    0    0  0.13141315483E+00  0.13326664682E-01  0.14361155783E-02  0.13349043110E+00  0.19251376925E-01 0.  0.
         14    1    1    2    0    0 -0.22373732873E-01 -0.72354083124E-02 -0.28593957500E-02  0.23687785885E-01  0.00000000000E+00 0. -1.
     999901    1    3    3    0    0 -0.10903942196E+00 -0.60912563694E-02  0.14232801718E-02  0.88675178301E+00  0.88000000000E+00 0. -1.
        -11    1    4    4    0    0  0.76520394978E-01  0.27211773821E-02  0.88928809040E-02  0.77085148412E-01  0.51100000000E-03 0.  1.
         11    1    4    4    0    0  0.54892759856E-01  0.10605487300E-01 -0.74567653257E-02  0.56405282692E-01  0.51100000000E-03 0. -1.
</event>
<event>
 8    1  0.1132255E+005  0.1043930E+01  0.7957747E-01            NaN
         13   -1    0    0    0    0  0.00000000000E+00  0.00000000000E+00  0.74505805969E-08  0.10566000000E+00  0.10566000000E+00 0.  1.
     999900   -1    0    0    0    0 -0.00000000000E+00 -0.00000000000E+00 -0.74505805969E-08  0.93827000000E+00  0.93827000000E+00 0. -1.
     999902    2    1    2    0    0  0.15849436278E-02  0.20587283914E-01  0.15547258596E-01  0.10180830359E+01  0.10177548832E+01 0.  0.
     999903    2    3    3    0    0 -0.78756649309E-01 -0.85822633425E-01  0.47079844380E-01  0.12748091031E+00  0.21604085948E-01 0.  0.
         14    1    1    2    0    0 -0.15849436278E-02 -0.20587283914E-01 -0.15547258596E-01  0.25846964137E-01  0.00000000000E+00 0. -1.
     999901    1    3    3    0    0  0.80341592936E-01  0.10640991734E+00 -0.31532585784E-01  0.89060212555E+00  0.88000000000E+00 0.  1.
        -11    1    4    4    0    0 -0.23439201302E-01 -0.19968563087E-01  0.22150544387E-01  0.37934778332E-01  0.51100000000E-03 0. -1.
         11    1    4    4    0    0 -0.55317448006E-01 -0.65854070338E-01  0.24929299993E-01  0.89546131983E-01  0.51100000000E-03 0.  1.
</event>
<event>
 8    1  0.1132255E+005  0.1043930E+01  0.7957747E-01            NaN
         13   -1    0    0    0    0  0.00000000000E+00  0.00000000000E+00  0.74505805969E-08  0.10566000000E+00  0.10566000000E+00 0.  1.
     999900   -1    0    0    0    0 -0.00000000000E+00 -0.00000000000E+00 -0.74505805969E-08  0.93827000000E+00  0.93827000000E+00 0. -1.
     999902    2    1    2    0    0 -0.61710576397E-02 -0.92884610233E-02  0.22543099636E-01  0.10187794771E+01  0.10184689854E+01 0.  0.
     999903    2    3    3    0    0 -0.10621446118E+00 -0.27074341297E-01  0.70243571323E-01  0.13164907230E+00  0.19564948421E-01 0.  0.
         14    1    1    2    0    0  0.61710576397E-02  0.92884610233E-02 -0.22543099636E-01  0.25150522893E-01  0.00000000000E+00 0. -1.
     999901    1    3    3    0    0  0.10004340354E+00  0.17785880274E-01 -0.47700471687E-01  0.88713040480E+00  0.88000000000E+00 0. -1.
        -11    1    4    4    0    0 -0.92874376890E-01 -0.18851779750E-01  0.54008192295E-01  0.10907880380E+00  0.51100000000E-03 0. -1.
         11    1    4    4    0    0 -0.13340084285E-01 -0.82225615472E-02  0.16235379028E-01  0.22570268504E-01  0.51100000000E-03 0.  1.
</event>
<event>
 8    1  0.1132255E+005  0.1043930E+01  0.7957747E-01            NaN
         13   -1    0    0    0    0  0.00000000000E+00  0.00000000000E+00  0.74505805969E-08  0.10566000000E+00  0.10566000000E+00 0.  1.
     999900   -1    0    0    0    0 -0.00000000000E+00 -0.00000000000E+00 -0.74505805969E-08  0.93827000000E+00  0.93827000000E+00 0. -1.
     999902    2    1    2    0    0 -0.15879184551E-01 -0.10938626065E-02 -0.17372463829E-01  0.10203684309E+01  0.10200963618E+01 0.  0.
     999903    2    3    3    0    0  0.68997561020E-01  0.98189533933E-01  0.42958051775E-01  0.12868405523E+00  0.17673252570E-01 0.  0.
         14    1    1    2    0    0  0.15879184551E-01  0.10938626065E-02  0.17372463829E-01  0.23561569067E-01  0.00000000000E+00 0.  1.
     999901    1    3    3    0    0 -0.84876745572E-01 -0.99283396539E-01 -0.60330515604E-01  0.89168437571E+00  0.88000000000E+00 0. -1.
        -11    1    4    4    0    0  0.53114312173E-01  0.65383504595E-01  0.23976775032E-01  0.87585841851E-01  0.51100000000E-03 0.  1.
         11    1    4    4    0    0  0.15883248847E-01  0.32806029337E-01  0.18981276743E-01  0.41098213375E-01  0.51100000000E-03 0. -1.
</event>
<event>
 8    1  0.1132255E+005  0.1043930E+01  0.7957747E-01            NaN
         13   -1    0    0    0    0  0.00000000000E+00  0.00000000000E+00  0.74505805969E-08  0.10566000000E+00  0.10566000000E+00 0. -1.
     999900   -1    0    0    0    0 -0.00000000000E+00 -0.00000000000E+00 -0.74505805969E-08  0.93827000000E+00  0.93827000000E+00 0. -1.
     999902    2    1    2    0    0 -0.19036556775E-01  0.10682663109E-01 -0.10277336363E-01  0.10198025586E+01  0.10195171039E+01 0.  0.
     999903    2    3    3    0    0 -0.56629083750E-01 -0.43364515172E-01 -0.10879801269E+00  0.13186077042E+00  0.21515596866E-01 0.  0.
         14    1    1    2    0    0  0.19036556775E-01 -0.10682663109E-01  0.10277336363E-01  0.24127441382E-01  0.00000000000E+00 0. -1.
     999901    1    3    3    0    0  0.37592526975E-01  0.54047178281E-01  0.98520676324E-01  0.88794178820E+00  0.88000000000E+00 0.  1.
        -11    1    4    4    0    0 -0.42601190470E-01 -0.41387791649E-01 -0.78770075709E-01  0.98654937409E-01  0.51100000000E-03 0. -1.
         11    1    4    4    0    0 -0.14027893280E-01 -0.19767235239E-02 -0.30027936978E-01  0.33205833011E-01  0.51100000000E-03 0.  1.
</event>
<event>
 8    1  0.1132255E+005  0.1043930E+01  0.7957747E-01            NaN
         13   -1    0    0    0    0  0.00000000000E+00  0.00000000000E+00  0.74505805969E-08  0.10566000000E+00  0.10566000000E+00 0.  1.
     999900   -1    0    0    0    0 -0.00000000000E+00 -0.00000000000E+00 -0.74505805969E-08  0.93827000000E+00  0.93827000000E+00 0. -1.
     999902    2    1    2    0    0 -0.75390171916E-02  0.18107047107E-01  0.12514196801E-01  0.10206639935E+01  0.10203987851E+01 0.  0.
     999903    2    3    3    0    0 -0.44595296886E-01 -0.82497741411E-01  0.89265251965E-01  0.13084085616E+00  0.18879263514E-01 0.  0.
         14    1    1    2    0    0  0.75390171916E-02 -0.18107047107E-01 -0.12514196801E-01  0.23266006463E-01  0.00000000000E+00 0. -1.
     999901    1    3    3    0    0  0.37056279694E-01  0.10060478852E+00 -0.76751055165E-01  0.88982313737E+00  0.88000000000E+00 0. -1.
        -11    1    4    4    0    0 -0.34575747412E-01 -0.53200903306E-01  0.49706061454E-01  0.80602556336E-01  0.51100000000E-03 0.  1.
         11    1    4    4    0    0 -0.10019549474E-01 -0.29296838105E-01  0.39559190511E-01  0.50238299827E-01  0.51100000000E-03 0. -1.
</event>
<event>
 8    1  0.1132255E+005  0.1043930E+01  0.7957747E-01            NaN
         13   -1    0    0    0    0  0.00000000000E+00  0.00000000000E+00  0.74505805969E-08  0.10566000000E+00  0.10566000000E+00 0.  1.
     999900   -1    0    0    0    0 -0.00000000000E+00 -0.00000000000E+00 -0.74505805969E-08  0.93827000000E+00  0.93827000000E+00 0.  1.
     999902    2    1    2    0    0  0.17757938241E-01  0.12509387626E-02  0.15604486491E-01  0.10202570362E+01  0.10199823580E+01 0.  0.
     999903    2    3    3    0    0  0.73951286411E-01  0.55344439484E-01 -0.90096983072E-01  0.13050617223E+00  0.19560032910E-01 0.  0.
         14    1    1    2    0    0 -0.17757938241E-01 -0.12509387626E-02 -0.15604486491E-01  0.23672963840E-01  0.00000000000E+00 0. -1.
     999901    1    3    3    0    0 -0.56193348170E-01 -0.54093500721E-01  0.10570146956E+00  0.88975086393E+00  0.88000000000E+00 0. -1.
        -11    1    4    4    0    0  0.58103794003E-01  0.37958920078E-01 -0.56535179836E-01  0.89517697530E-01  0.51100000000E-03 0. -1.
         11    1    4    4    0    0  0.15847492408E-01  0.17385519405E-01 -0.33561803236E-01  0.40988474698E-01  0.51100000000E-03 0.  1.
</event>
<event>
 8    1  0.1132255E+005  0.1043930E+01  0.7957747E-01            NaN
         13   -1    0    0    0    0  0.00000000000E+00  0.00000000000E+00  0.74505805969E-08  0.10566000000E+00  0.10566000000E+00 0. -1.
     999900   -1    0    0    0    0 -0.00000000000E+00 -0.00000000000E+00 -0.74505805969E-08  0.93827000000E+00  0.93827000000E+00 0.  1.
     999902    2    1    2    0    0  0.68316015252E-02 -0.23248388575E-01  0.24729811348E-02  0.10195727837E+01  0.10192817997E+01 0.  0.
     999903    2    3    3    0    0  0.24487582365E-01  0.99392138749E-01  0.74359715804E-01  0.12798984575E+00  0.19328588817E-01 0.  0.
         14    1    1    2    0    0 -0.68316015252E-02  0.23248388575E-01 -0.24729811348E-02  0.24357216311E-01  0.00000000000E+00 0.  1.
     999901    1    3    3    0    0 -0.17655980840E-01 -0.12264052732E+00 -0.71886734669E-01  0.89158293794E+00  0.88000000000E+00 0.  1.
        -11    1    4    4    0    0  0.27368186515E-03  0.38399361462E-01  0.30724067917E-01  0.49181453138E-01  0.51100000000E-03 0.  1.
         11    1    4    4    0    0  0.24213900500E-01  0.60992777287E-01  0.43635647888E-01  0.78808392613E-01  0.51100000000E-03 0. -1.
</event>
<event>
 8    1  0.1132255E+005  0.1043930E+01  0.7957747E-01            NaN
         13   -1    0    0    0    0  0.00000000000E+00  0.00000000000E+00  0.74505805969E-08  0.10566000000E+00  0.10566000000E+00 0.  1.
     999900   -1    0    0    0    0 -0.00000000000E+00 -0.00000000000E+00 -0.74505805969E-08  0.93827000000E+00  0.93827000000E+00 0.  1.
     999902    2    1    2    0    0  0.12467089736E-01  0.18666316858E-01 -0.59510560027E-02  0.10207077094E+01  0.10204435081E+01 0.  0.
     999903    2    3    3    0    0 -0.37473103910E-01  0.87081021660E-01 -0.90478593490E-01  0.13260889772E+00  0.20283146328E-01 0.  0.
         14    1    1    2    0    0 -0.12467089736E-01 -0.18666316858E-01  0.59510560027E-02  0.23222290564E-01  0.00000000000E+00 0.  1.
     999901    1    3    3    0    0  0.49940193645E-01 -0.68414704803E-01  0.84527537487E-01  0.88809881171E+00  0.88000000000E+00 0. -1.
        -11    1    4    4    0    0 -0.32027842974E-01  0.84680135513E-01 -0.81442028769E-01  0.12177673525E+00  0.51100000000E-03 0.  1.
         11    1    4    4    0    0 -0.54452609359E-02  0.24008861474E-02 -0.90365647205E-02  0.10832162476E-01  0.51100000000E-03 0. -1.
</event>
<event>
 8    1  0.1132255E+005  0.1043930E+01  0.7957747E-01            NaN
         13   -1    0    0    0    0  0.00000000000E+00  0.00000000000E+00  0.74505805969E-08  0.10566000000E+00  0.10566000000E+00 0.  1.
     999900   -1    0    0    0    0 -0.00000000000E+00 -0.00000000000E+00 -0.74505805969E-08  0.93827000000E+00  0.93827000000E+00 0. -1.
     999902    2    1    2    0    0 -0.17977504809E-01 -0.25326860099E-03 -0.14990354080E-01  0.10205213362E+01  0.10202528276E+01 0.  0.
     999903    2    3    3    0    0  0.12165395583E+00 -0.19328896460E-01 -0.33138652399E-01  0.12912345362E+00  0.20035088864E-01 0.  0.
         14    1    1    2    0    0  0.17977504809E-01  0.25326860099E-03  0.14990354080E-01  0.23408663772E-01  0.00000000000E+00 0.  1.
     999901    1    3    3    0    0 -0.13963146064E+00  0.19075627859E-01  0.18148298319E-01  0.89139788260E+00  0.88000000000E+00 0.  1.
        -11    1    4    4    0    0  0.88990482713E-01 -0.19408466447E-01 -0.31635698914E-01  0.96421331406E-01  0.51100000000E-03 0. -1.
         11    1    4    4    0    0  0.32663473117E-01  0.79569986801E-04 -0.15029534846E-02  0.32702122219E-01  0.51100000000E-03 0.  1.
</event>
<event>
 8    1  0.1132255E+005  0.1043930E+01  0.7957747E-01            NaN
         13   -1    0    0    0    0  0.00000000000E+00  0.00000000000E+00  0.74505805969E-08  0.10566000000E+00  0.10566000000E+00 0. -1.
     999900   -1    0    0    0    0 -0.00000000000E+00 -0.00000000000E+00 -0.74505805969E-08  0.93827000000E+00  0.93827000000E+00 0. -1.
     999902    2    1    2    0    0  0.20459770651E-01  0.53769065400E-02 -0.98676307501E-02  0.10205872608E+01  0.10203202798E+01 0.  0.
     999903    2    3    3    0    0  0.39514119845E-01 -0.77283390872E-01 -0.97289757532E-01  0.13219634384E+00  0.21828610429E-01 0.  0.
         14    1    1    2    0    0 -0.20459770651E-01 -0.53769065400E-02  0.98676307501E-02  0.23342739249E-01  0.00000000000E+00 0. -1.
     999901    1    3    3    0    0 -0.19054349194E-01  0.82660297412E-01  0.87422126782E-01  0.88839091691E+00  0.88000000000E+00 0. -1.
        -11    1    4    4    0    0  0.36593434101E-01 -0.77703879776E-01 -0.90469668114E-01  0.12474772271E+00  0.51100000000E-03 0. -1.
         11    1    4    4    0    0  0.29206857446E-02  0.42048890422E-03 -0.68200894174E-02  0.74486211341E-02  0.51100000000E-03 0.  1.
</event>
<event>
 8    1  0.1132255E+005  0.1043930E+01  0.7957747E-01            NaN
         13   -1    0    0    0    0  0.00000000000E+00  0.00000000000E+00  0.74505805969E-08  0.10566000000E+00  0.10566000000E+00 0. -1.
     999900   -1    0    0    0    0 -0.00000000000E+00 -0.00000000000E+00 -0.74505805969E-08  0.93827000000E+00  0.93827000000E+00 0. -1.
     999902    2    1    2    0    0  0.22701843377E-01 -0.31339624255E-02  0.75097727024E-02  0.10198137793E+01  0.10195285932E+01 0.  0.
     999903    2    3    3    0    0 -0.36396788979E-01 -0.11221561723E+00 -0.49307708657E-01  0.12929725397E+00  0.19221309827E-01 0.  0.
         14    1    1    2    0    0 -0.22701843377E-01  0.31339624255E-02 -0.75097727024E-02  0.24116220667E-01  0.00000000000E+00 0.  1.
     999901    1    3    3    0    0  0.59098632356E-01  0.10908165481E+00  0.56817481359E-01  0.89051652537E+00  0.88000000000E+00 0.  1.
        -11    1    4    4    0    0 -0.16393366440E-01 -0.47855715767E-01 -0.10992231619E-01  0.51768738364E-01  0.51100000000E-03 0.  1.
         11    1    4    4    0    0 -0.20003422538E-01 -0.64359901466E-01 -0.38315477038E-01  0.77528515604E-01  0.51100000000E-03 0. -1.
</event>
<event>
 8    1  0.1132255E+005  0.1043930E+01  0.7957747E-01            NaN
         13   -1    0    0    0    0  0.00000000000E+00  0.00000000000E+00  0.74505805969E-08  0.10566000000E+00  0.10566000000E+00 0. -1.
     999900   -1    0    0    0    0 -0.00000000000E+00 -0.00000000000E+00 -0.74505805969E-08  0.93827000000E+00  0.93827000000E+00 0.  1.
     999902    2    1    2    0    0 -0.15881639202E-02 -0.22922374078E-01 -0.33943883360E-02  0.10207033048E+01  0.10204390021E+01 0.  0.
     999903    2    3    3    0    0 -0.11220151195E+00  0.18458210682E-01 -0.61735401005E-01  0.13089920314E+00  0.19835746003E-01 0.  0.
         14    1    1    2    0    0  0.15881639202E-02  0.22922374078E-01  0.33943883360E-02  0.23226695206E-01  0.00000000000E+00 0. -1.
     999901    1    3    3    0    0  0.11061334803E+00 -0.41380584760E-01  0.58341012669E-01  0.88980410165E+00  0.88000000000E+00 0.  1.
        -11    1    4    4    0    0 -0.72422186502E-01  0.36740596790E-02 -0.44567295435E-01  0.85117429212E-01  0.51100000000E-03 0. -1.
         11    1    4    4    0    0 -0.39779325451E-01  0.14784151003E-01 -0.17168105570E-01  0.45781773929E-01  0.51100000000E-03 0.  1.
</event>
<event>
 8    1  0.1132255E+005  0.1043930E+01  0.7957747E-01            NaN
         13   -1    0    0    0    0  0.00000000000E+00  0.00000000000E+00  0.74505805969E-08  0.10566000000E+00  0.10566000000E+00 0. -1.
     999900   -1    0    0    0    0 -0.00000000000E+00 -0.00000000000E+00 -0.74505805969E-08  0.93827000000E+00  0.93827000000E+00 0. -1.
     999902    2    1    2    0    0  0.67582582488E-02  0.52173418884E-02 -0.21897923277E-01  0.10204265161E+01  0.10201558023E+01 0.  0.
     999903    2    3    3    0    0 -0.50202634866E-01 -0.71467158071E-01  0.91530428627E-01  0.12801907167E+00  0.19575600039E-01 0.  0.
         14    1    1    2    0    0 -0.67582582488E-02 -0.52173418884E-02  0.21897923277E-01  0.23503483886E-01  0.00000000000E+00 0. -1.
     999901    1    3    3    0    0  0.56960893115E-01  0.76684499959E-01 -0.11342835190E+00  0.89240744444E+00  0.88000000000E+00 0. -1.
        -11    1    4    4    0    0 -0.39106189999E-01 -0.42582720885E-01  0.67228332966E-01  0.88670694644E-01  0.51100000000E-03 0. -1.
         11    1    4    4    0    0 -0.11096444867E-01 -0.28884437187E-01  0.24302095661E-01  0.39348377029E-01  0.51100000000E-03 0.  1.
</event>
<event>
 8    1  0.1132255E+005  0.1043930E+01  0.7957747E-01            NaN
         13   -1    0    0    0    0  0.00000000000E+00  0.00000000000E+00  0.74505805969E-08  0.10566000000E+00  0.10566000000E+00 0. -1.
     999900   -1    0    0    0    0 -0.00000000000E+00 -0.00000000000E+00 -0.74505805969E-08  0.93827000000E+00  0.93827000000E+00 0.  1.
     999902    2    1    2    0    0 -0.32278881748E-02 -0.15201442857E-01  0.16936554651E-01  0.10209441346E+01  0.10206853462E+01 0.  0.
     999903    2    3    3    0    0  0.28816888725E-01 -0.12641843961E+00  0.24580709591E-01  0.13333243950E+00  0.19007713939E-01 0.  0.
         14    1    1    2    0    0  0.32278881748E-02  0.15201442857E-01 -0.16936554651E-01  0.22985865449E-01  0.00000000000E+00 0.  1.
     999901    1    3    3    0    0 -0.32044776900E-01  0.11121699675E+00 -0.76441549400E-02  0.88761169505E+00  0.88000000000E+00 0. -1.
        -11    1    4    4    0    0  0.16081616194E-02 -0.38105186530E-01  0.19589435286E-02  0.38192800435E-01  0.51100000000E-03 0. -1.
         11    1    4    4    0    0  0.27208727106E-01 -0.88313253078E-01  0.22621766063E-01  0.95139639061E-01  0.51100000000E-03 0.  1.
</event>
<event>
 8    1  0.1132255E+005  0.1043930E+01  0.7957747E-01            NaN
         13   -1    0    0    0    0  0.00000000000E+00  0.00000000000E+00  0.74505805969E-08  0.10566000000E+00  0.10566000000E+00 0. -1.
     999900   -1    0    0    0    0 -0.00000000000E+00 -0.00000000000E+00 -0.74505805969E-08  0.93827000000E+00  0.93827000000E+00 0.  1.
     999902    2    1    2    0    0  0.72384542647E-02  0.16641957543E-01  0.15768396563E-01  0.10198885296E+01  0.10196051297E+01 0.  0.
     999903    2    3    3    0    0  0.11467558227E+00  0.61103485867E-01  0.13583065786E-01  0.13223750599E+00  0.20448304565E-01 0.  0.
         14    1    1    2    0    0 -0.72384542647E-02 -0.16641957543E-01 -0.15768396563E-01  0.24041470445E-01  0.00000000000E+00 0.  1.
     999901    1    3    3    0    0 -0.10743712800E+00 -0.44461528324E-01  0.21853307769E-02  0.88765102357E+00  0.88000000000E+00 0.  1.
        -11    1    4    4    0    0  0.90424368087E-01  0.43268960679E-01  0.17874100834E-01  0.10182589997E+00  0.51100000000E-03 0.  1.
         11    1    4    4    0    0  0.24251214181E-01  0.17834525188E-01 -0.42910350484E-02  0.30411606020E-01  0.51100000000E-03 0. -1.
</event>
<event>
 8    1  0.1132255E+005  0.1043930E+01  0.7957747E-01            NaN
         13   -1    0    0    0    0  0.00000000000E+00  0.00000000000E+00  0.74505805969E-08  0.10566000000E+00  0.10566000000E+00 0.  1.
     999900   -1    0    0    0    0 -0.00000000000E+00 -0.00000000000E+00 -0.74505805969E-08  0.93827000000E+00  0.93827000000E+00 0. -1.
     999902    2    1    2    0    0 -0.11082437889E-01 -0.22481387289E-01  0.25581842639E-02  0.10187352087E+01  0.10184236092E+01 0.  0.
     999903    2    3    3    0    0  0.12605969686E+00 -0.43230665715E-02  0.74650056029E-02  0.12791436998E+00  0.19915412674E-01 0.  0.
         14    1    1    2    0    0  0.11082437889E-01  0.22481387289E-01 -0.25581842639E-02  0.25194791341E-01  0.00000000000E+00 0. -1.
     999901    1    3    3    0    0 -0.13714213474E+00 -0.18158320717E-01 -0.49068213391E-02  0.89082083868E+00  0.88000000000E+00 0.  1.
        -11    1    4    4    0    0  0.70749960600E-01 -0.90550747940E-02 -0.31329635510E-02  0.71397674234E-01  0.51100000000E-03 0. -1.
         11    1    4    4    0    0  0.55309736256E-01  0.47320082225E-02  0.10597969154E-01  0.56516695743E-01  0.51100000000E-03 0.  1.
</event>
<event>
 8    1  0.1132255E+005  0.1043930E+01  0.7957747E-01            NaN
         13   -1    0    0    0    0  0.00000000000E+00  0.00000000000E+00  0.74505805969E-08  0.10566000000E+00  0.10566000000E+00 0. -1.
     999900   -1    0    0    0    0 -0.00000000000E+00 -0.00000000000E+00 -0.74505805969E-08  0.93827000000E+00  0.93827000000E+00 0.  1.
     999902    2    1    2    0    0  0.21813857107E-01 -0.82451141101E-02 -0.16515529934E-02  0.10205515078E+01  0.10202836989E+01 0.  0.
     999903    2    3    3    0    0 -0.11160589924E+00  0.45463517213E-01  0.38605363741E-01  0.12796758024E+00  0.19039940674E-01 0.  0.
         14    1    1    2    0    0 -0.21813857107E-01  0.82451141101E-02  0.16515529934E-02  0.23378492164E-01  0.00000000000E+00 0.  1.
     999901    1    3    3    0    0  0.13341975634E+00 -0.53708631323E-01 -0.40256916735E-01  0.89258392760E+00  0.88000000000E+00 0. -1.
        -11    1    4    4    0    0 -0.67773659966E-01  0.27023553726E-01  0.33008630076E-01  0.80083532774E-01  0.51100000000E-03 0.  1.
         11    1    4    4    0    0 -0.43832239270E-01  0.18439963487E-01  0.55967336659E-02  0.47884047464E-01  0.51100000000E-03 0. -1.
</event>
<event>
 8    1  0.1132255E+005  0.1043930E+01  0.7957747E-01            NaN
         13   -1    0    0    0    0  0.00000000000E+00  0.00000000000E+00  0.74505805969E-08  0.10566000000E+00  0.10566000000E+00 0.  1.
     999900   -1    0    0    0    0 -0.00000000000E+00 -0.00000000000E+00 -0.74505805969E-08  0.93827000000E+00  0.93827000000E+00 0. -1.
     999902    2    1    2    0    0  0.46500129586E-02 -0.17828054594E-01 -0.18230052676E-01  0.10180109535E+01  0.10176809443E+01 0.  0.
     999903    2    3    3    0    0  0.76520359438E-01 -0.17033867931E-01 -0.10304981141E+00  0.13101581884E+00  0.20009075178E-01 0.  0.
         14    1    1    2    0    0 -0.46500129586E-02  0.17828054594E-01  0.18230052676E-01  0.25919046504E-01  0.00000000000E+00 0. -1.
     999901    1    3    3    0    0 -0.71870346479E-01 -0.79418666229E-03  0.84819758731E-01  0.88699513466E+00  0.88000000000E+00 0.  1.
        -11    1    4    4    0    0  0.40503838738E-01 -0.11871411524E-01 -0.39633703451E-01  0.57901493369E-01  0.51100000000E-03 0. -1.
         11    1    4    4    0    0  0.36016520700E-01 -0.51624564074E-02 -0.63416107956E-01  0.73114325469E-01  0.51100000000E-03 0.  1.
</event>
<event>
 8    1  0.1132255E+005  0.1043930E+01  0.7957747E-01            NaN
         13   -1    0    0    0    0  0.00000000000E+00  0.00000000000E+00  0.74505805969E-08  0.10566000000E+00  0.10566000000E+00 0.  1.
     999900   -1    0    0    0    0 -0.00000000000E+00 -0.00000000000E+00 -0.74505805969E-08  0.93827000000E+00  0.93827000000E+00 0. -1.
     999902    2    1    2    0    0  0.30383091338E-02 -0.23119117087E-01 -0.43169148582E-02  0.10202158555E+01  0.10199402096E+01 0.  0.
     999903    2    3    3    0    0  0.74479743217E-01 -0.10628571463E+00  0.21232112868E-01  0.13304433074E+00  0.20152072883E-01 0.  0.
         14    1    1    2    0    0 -0.30383091338E-02  0.23119117087E-01  0.43169148582E-02  0.23714144538E-01  0.00000000000E+00 0. -1.
     999901    1    3    3    0    0 -0.71441434083E-01  0.83166597548E-01 -0.25549027726E-01  0.88717152472E+00  0.88000000000E+00 0. -1.
        -11    1    4    4    0    0  0.24365400343E-01 -0.42537725280E-01  0.16839484055E-01  0.51835896347E-01  0.51100000000E-03 0. -1.
         11    1    4    4    0    0  0.50114342874E-01 -0.63747989354E-01  0.43926288126E-02  0.81208434398E-01  0.51100000000E-03 0.  1.
</event>
<event>
 8    1  0.1132255E+005  0.1043930E+01  0.7957747E-01            NaN
         13   -1    0    0    0    0  0.00000000000E+00  0.00000000000E+00  0.74505805969E-08  0.10566000000E+00  0.10566000000E+00 0. -1.
     999900   -1    0    0    0    0 -0.00000000000E+00 -0.00000000000E+00 -0.74505805969E-08  0.93827000000E+00  0.93827000000E+00 0.  1.
     999902    2    1    2    0    0  0.37783279076E-03 -0.20675017940E-01 -0.73182533674E-02  0.10219947326E+01  0.10217593051E+01 0.  0.
     999903    2    3    3    0    0  0.71029772919E-02 -0.11429393584E+00  0.66579599109E-01  0.13392343929E+00  0.19725326823E-01 0.  0.
         14    1    1    2    0    0 -0.37783279076E-03  0.20675017940E-01  0.73182533674E-02  0.21935267420E-01  0.00000000000E+00 0. -1.
     999901    1    3    3    0    0 -0.67251445012E-02  0.93618917901E-01 -0.73897852477E-01  0.88807129329E+00  0.88000000000E+00 0.  1.
        -11    1    4    4    0    0  0.46371023647E-02 -0.22177045756E-01  0.53519680140E-02  0.23285805965E-01  0.51100000000E-03 0. -1.
         11    1    4    4    0    0  0.24658749272E-02 -0.92116890085E-01  0.61227631095E-01  0.11063763333E+00  0.51100000000E-03 0.  1.
</event>
<event>
 8    1  0.1132255E+005  0.1043930E+01  0.7957747E-01            NaN
         13   -1    0    0    0    0  0.00000000000E+00  0.00000000000E+00  0.74505805969E-08  0.10566000000E+00  0.10566000000E+00 0.  1.
     999900   -1    0    0    0    0 -0.00000000000E+00 -0.00000000000E+00 -0.74505805969E-08  0.93827000000E+00  0.93827000000E+00 0. -1.
     999902    2    1    2    0    0 -0.41947328913E-03  0.47807669420E-02 -0.23064591901E-01  0.10203714115E+01  0.10200994120E+01 0.  0.
     999903    2    3    3    0    0  0.12347639474E+00 -0.14793872815E-02  0.37052025085E-01  0.12963947472E+00  0.13598977839E-01 0.  0.
         14    1    1    2    0    0  0.41947328913E-03 -0.47807669420E-02  0.23064591901E-01  0.23558588455E-01  0.00000000000E+00 0.  1.
     999901    1    3    3    0    0 -0.12389586803E+00  0.62601542236E-02 -0.60116616986E-01  0.89073193683E+00  0.88000000000E+00 0. -1.
        -11    1    4    4    0    0  0.85057069179E-01 -0.70925576128E-02  0.23800393376E-01  0.88609983843E-01  0.51100000000E-03 0.  1.
         11    1    4    4    0    0  0.38419325559E-01  0.56131703313E-02  0.13251631709E-01  0.41029490876E-01  0.51100000000E-03 0. -1.
</event>
<event>
 8    1  0.1132255E+005  0.1043930E+01  0.7957747E-01            NaN
         13   -1    0    0    0    0  0.00000000000E+00  0.00000000000E+00  0.74505805969E-08  0.10566000000E+00  0.10566000000E+00 0.  1.
     999900   -1    0    0    0    0 -0.00000000000E+00 -0.00000000000E+00 -0.74505805969E-08  0.93827000000E+00  0.93827000000E+00 0. -1.
     999902    2    1    2    0    0  0.34560568460E-03 -0.20218571959E-01  0.13561488159E-01  0.10195820215E+01  0.10192912609E+01 0.  0.
     999903    2    3    3    0    0  0.24853745882E-02  0.12601324401E+00  0.26077047661E-02  0.12744508809E+00  0.18706565714E-01 0.  0.
         14    1    1    2    0    0 -0.34560568460E-03  0.20218571959E-01 -0.13561488159E-01  0.24347978488E-01  0.00000000000E+00 0. -1.
     999901    1    3    3    0    0 -0.21397689036E-02 -0.14623181597E+00  0.10953783393E-01  0.89213693343E+00  0.88000000000E+00 0.  1.
        -11    1    4    4    0    0 -0.69445274676E-02  0.27509517868E-01 -0.13656307342E-02  0.28409964861E-01  0.51100000000E-03 0.  1.
         11    1    4    4    0    0  0.94299020557E-02  0.98503726140E-01  0.39733355004E-02  0.99035123226E-01  0.51100000000E-03 0. -1.
</event>
<event>
 8    1  0.1132255E+005  0.1043930E+01  0.7957747E-01            NaN
         13   -1    0    0    0    0  0.00000000000E+00  0.00000000000E+00  0.74505805969E-08  0.10566000000E+00  0.10566000000E+00 0.  1.
     999900   -1    0    0    0    0 -0.00000000000E+00 -0.00000000000E+00 -0.74505805969E-08  0.93827000000E+00  0.93827000000E+00 0. -1.
     999902    2    1    2    0    0  0.10386176891E-01 -0.42681409476E-02  0.22005080111E-01  0.10192254812E+01  0.10189260367E+01 0.  0.
     999903    2    3    3    0    0  0.10124685256E+00  0.30426992732E-02 -0.77324320090E-01  0.12895841988E+00  0.19774741672E-01 0.  0.
         14    1    1    2    0    0 -0.10386176891E-01  0.42681409476E-02 -0.22005080111E-01  0.24704518782E-01  0.00000000000E+00 0.  1.
     999901    1    3    3    0    0 -0.90860675664E-01 -0.73108402208E-02  0.99329400200E-01  0.89026706134E+00  0.88000000000E+00 0. -1.
        -11    1    4    4    0    0  0.73666077506E-01  0.45488626705E-02 -0.66299498841E-01  0.99213244047E-01  0.51100000000E-03 0. -1.
         11    1    4    4    0    0  0.27580775050E-01 -0.15061633973E-02 -0.11024821248E-01  0.29745175829E-01  0.51100000000E-03 0.  1.
</event>
<event>
 8    1  0.1132255E+005  0.1043930E+01  0.7957747E-01            NaN
         13   -1    0    0    0    0  0.00000000000E+00  0.00000000000E+00  0.74505805969E-08  0.10566000000E+00  0.10566000000E+00 0.  1.
     999900   -1    0    0    0    0 -0.00000000000E+00 -0.00000000000E+00 -0.74505805969E-08  0.93827000000E+00  0.93827000000E+00 0.  1.
     999902    2    1    2    0    0 -0.14641473507E-01  0.78340536459E-02  0.16633552637E-01  0.10204263787E+01  0.10201556617E+01 0.  0.
     999903    2    3    3    0    0 -0.61081547906E-01 -0.66615693621E-01  0.94972834916E-01  0.13259954389E+00  0.19854307779E-01 0.  0.
         14    1    1    2    0    0  0.14641473507E-01 -0.78340536459E-02 -0.16633552637E-01  0.23503621344E-01  0.00000000000E+00 0. -1.
     999901    1    3    3    0    0  0.46440074399E-01  0.74449747267E-01 -0.78339282279E-01  0.88782683476E+00  0.88000000000E+00 0.  1.
        -11    1    4    4    0    0 -0.16884503944E-01 -0.78200556912E-02  0.24132028496E-01  0.30477133473E-01  0.51100000000E-03 0. -1.
         11    1    4    4    0    0 -0.44197043962E-01 -0.58795637930E-01  0.70840806420E-01  0.10212241042E+00  0.51100000000E-03 0.  1.
</event>
<event>
 8    1  0.1132255E+005  0.1043930E+01  0.7957747E-01            NaN
         13   -1    0    0    0    0  0.00000000000E+00  0.00000000000E+00  0.74505805969E-08  0.10566000000E+00  0.10566000000E+00 0.  1.
     999900   -1    0    0    0    0 -0.00000000000E+00 -0.00000000000E+00 -0.74505805969E-08  0.93827000000E+00  0.93827000000E+00 0. -1.
     999902    2    1    2    0    0  0.15415758840E-01  0.91160633336E-02  0.16698583826E-01  0.10194434540E+01  0.10191493340E+01 0.  0.
     999903    2    3    3    0    0  0.85572706347E-01  0.35001746412E-01 -0.89041749317E-01  0.12996434584E+00  0.20358972083E-01 0.  0.
         14    1    1    2    0    0 -0.15415758840E-01 -0.91160633336E-02 -0.16698583826E-01  0.24486545961E-01  0.00000000000E+00 0.  1.
     999901    1    3    3    0    0 -0.70156947507E-01 -0.25885683079E-01  0.10574033314E+00  0.88947910820E+00  0.88000000000E+00 0.  1.
        -11    1    4    4    0    0  0.42657527524E-01  0.84893073160E-02 -0.33269631314E-01  0.54761870694E-01  0.51100000000E-03 0. -1.
         11    1    4    4    0    0  0.42915178823E-01  0.26512439096E-01 -0.55772118003E-01  0.75202475144E-01  0.51100000000E-03 0.  1.
</event>
<event>
 8    1  0.1132255E+005  0.1043930E+01  0.7957747E-01            NaN
         13   -1    0    0    0    0  0.00000000000E+00  0.00000000000E+00  0.74505805969E-08  0.10566000000E+00  0.10566000000E+00 0. -1.
     999900   -1    0    0    0    0 -0.00000000000E+00 -0.00000000000E+00 -0.74505805969E-08  0.93827000000E+00  0.93827000000E+00 0.  1.
     999902    2    1    2    0    0 -0.56134854526E-02  0.30358601140E-03 -0.22927474180E-01  0.10203233811E+01  0.10200502584E+01 0.  0.
     999903    2    3    3    0    0 -0.24022060495E-01  0.64900238370E-01  0.10624297108E+00  0.12836115822E+00  0.19997942507E-01 0.  0.
         14    1    1    2    0    0  0.56134854526E-02 -0.30358601140E-03  0.22927474180E-01  0.23606618896E-01  0.00000000000E+00 0. -1.
     999901    1    3    3    0    0  0.18408575042E-01 -0.64596652359E-01 -0.12917044526E+00  0.89196222289E+00  0.88000000000E+00 0.  1.
        -11    1    4    4    0    0 -0.19225144657E-01  0.54919658826E-01  0.99839340439E-01  0.11555920618E+00  0.51100000000E-03 0. -1.
         11    1    4    4    0    0 -0.47969158382E-02  0.99805795446E-02  0.64036306378E-02  0.12801952037E-01  0.51100000000E-03 0.  1.
</event>
<event>
 7    1  0.1132255E+005  0.1043930E+01  0.7957747E-01            NaN
         13   -1    0    0    0    0  0.00000000000E+00  0.00000000000E+00  0.74505805969E-08  0.10566000000E+00  0.10566000000E+00 0.  1.
     999900   -1    0    0    0    0 -0.00000000000E+00 -0.00000000000E+00 -0.74505805969E-08  0.93827000000E+00  0.93827000000E+00 0. -1.
     999903    2    1    2    0    0 -0.70331942033E-01 -0.71957535711E-01 -0.37186131412E-01  0.11001286512E+00  0.24403956791E-01 0.  0.
         14    1    1    2    0    0  0.58931302116E-02  0.36797485873E-01  0.34607054623E-01  0.50856977692E-01  0.00000000000E+00 0. -1.
     999901    1    1    2    0    0  0.64438811821E-01  0.35160049838E-01  0.25790767891E-02  0.88306015719E+00  0.88000000000E+00 0. -1.
        -11    1    3    3    0    0 -0.30410810941E-01 -0.36858964277E-01 -0.29864795358E-01  0.56352176466E-01  0.51100000000E-03 0. -1.
         11    1    3    3    0    0 -0.39921131092E-01 -0.35098571434E-01 -0.73213360547E-02  0.53660688655E-01  0.51100000000E-03 0.  1.
</event>
<event>
 8    1  0.1132255E+005  0.1043930E+01  0.7957747E-01            NaN
         13   -1    0    0    0    0  0.00000000000E+00  0.00000000000E+00  0.74505805969E-08  0.10566000000E+00  0.10566000000E+00 0.  1.
     999900   -1    0    0    0    0 -0.00000000000E+00 -0.00000000000E+00 -0.74505805969E-08  0.93827000000E+00  0.93827000000E+00 0. -1.
     999902    2    1    2    0    0  0.14980823952E-01 -0.53319053790E-03 -0.18893165527E-01  0.10198123492E+01  0.10195271288E+01 0.  0.
     999903    2    3    3    0    0 -0.10104775769E+00  0.51538202638E-01  0.54914840245E-01  0.12761187647E+00  0.20057808301E-01 0.  0.
         14    1    1    2    0    0 -0.14980823952E-01  0.53319053790E-03  0.18893165527E-01  0.24117650840E-01  0.00000000000E+00 0.  1.
     999901    1    3    3    0    0  0.11602858164E+00 -0.52071393175E-01 -0.73808005772E-01  0.89220047269E+00  0.88000000000E+00 0. -1.
        -11    1    4    4    0    0 -0.41943721265E-01  0.30323633270E-01  0.31495287807E-01  0.60588883166E-01  0.51100000000E-03 0. -1.
         11    1    4    4    0    0 -0.59104036420E-01  0.21214569367E-01  0.23419552438E-01  0.67022993308E-01  0.51100000000E-03 0.  1.
</event>
<event>
 8    1  0.1132255E+005  0.1043930E+01  0.7957747E-01            NaN
         13   -1    0    0    0    0  0.00000000000E+00  0.00000000000E+00  0.74505805969E-08  0.10566000000E+00  0.10566000000E+00 0. -1.
     999900   -1    0    0    0    0 -0.00000000000E+00 -0.00000000000E+00 -0.74505805969E-08  0.93827000000E+00  0.93827000000E+00 0.  1.
     999902    2    1    2    0    0 -0.20532880423E-01  0.11189050182E-01  0.21495441025E-02  0.10204477820E+01  0.10201775636E+01 0.  0.
     999903    2    3    3    0    0 -0.52665112554E-01  0.11950709323E+00  0.16159644826E-01  0.13311381910E+00  0.20064777615E-01 0.  0.
         14    1    1    2    0    0  0.20532880423E-01 -0.11189050182E-01 -0.21495441025E-02  0.23482218001E-01  0.00000000000E+00 0.  1.
     999901    1    3    3    0    0  0.32132232132E-01 -0.10831804305E+00 -0.14010100723E-01  0.88733396290E+00  0.88000000000E+00 0. -1.
        -11    1    4    4    0    0 -0.21080261347E-01  0.28589170289E-01  0.87105257031E-02  0.36576665448E-01  0.51100000000E-03 0.  1.
         11    1    4    4    0    0 -0.31584851207E-01  0.90917922945E-01  0.74491191224E-02  0.96537153651E-01  0.51100000000E-03 0. -1.
</event>
<event>
 8    1  0.1132255E+005  0.1043930E+01  0.7957747E-01            NaN
         13   -1    0    0    0    0  0.00000000000E+00  0.00000000000E+00  0.74505805969E-08  0.10566000000E+00  0.10566000000E+00 0. -1.
     999900   -1    0    0    0    0 -0.00000000000E+00 -0.00000000000E+00 -0.74505805969E-08  0.93827000000E+00  0.93827000000E+00 0. -1.
     999902    2    1    2    0    0  0.10992199312E-01 -0.12683983162E-01  0.16593325840E-01  0.10203280862E+01  0.10200550735E+01 0.  0.
     999903    2    3    3    0    0 -0.53030053628E-02 -0.33627624111E-01  0.12700655412E+00  0.13303148931E+00  0.20193399677E-01 0.  0.
         14    1    1    2    0    0 -0.10992199312E-01  0.12683983162E-01 -0.16593325840E-01  0.23601913842E-01  0.00000000000E+00 0.  1.
     999901    1    3    3    0    0  0.16295204674E-01  0.20943640949E-01 -0.11041322828E+00  0.88729659684E+00  0.88000000000E+00 0. -1.
        -11    1    4    4    0    0 -0.90161650089E-02 -0.32157320278E-01  0.93559368668E-01  0.99342846071E-01  0.51100000000E-03 0.  1.
         11    1    4    4    0    0  0.37131596461E-02 -0.14703038333E-02  0.33447185451E-01  0.33688643243E-01  0.51100000000E-03 0. -1.
</event>
<event>
 8    1  0.1132255E+005  0.1043930E+01  0.7957747E-01            NaN
         13   -1    0    0    0    0  0.00000000000E+00  0.00000000000E+00  0.74505805969E-08  0.10566000000E+00  0.10566000000E+00 0.  1.
     999900   -1    0    0    0    0 -0.00000000000E+00 -0.00000000000E+00 -0.74505805969E-08  0.93827000000E+00  0.93827000000E+00 0. -1.
     999902    2    1    2    0    0 -0.14205635288E-01 -0.11432569045E-02 -0.19170827093E-01  0.10200421847E+01  0.10197624384E+01 0.  0.
     999903    2    3    3    0    0  0.10147318844E+00 -0.46692471677E-01 -0.64241358764E-01  0.13016147690E+00  0.18386489852E-01 0.  0.
         14    1    1    2    0    0  0.14205635288E-01  0.11432569045E-02  0.19170827093E-01  0.23887815340E-01  0.00000000000E+00 0.  1.
     999901    1    3    3    0    0 -0.11567882373E+00  0.45549214772E-01  0.45070531671E-01  0.88988070776E+00  0.88000000000E+00 0. -1.
        -11    1    4    4    0    0  0.64812116126E-01 -0.39127868296E-01 -0.41019421824E-01  0.86107227118E-01  0.51100000000E-03 0. -1.
         11    1    4    4    0    0  0.36661072311E-01 -0.75646033811E-02 -0.23221936940E-01  0.44054249779E-01  0.51100000000E-03 0.  1.
</event>
<event>
 8    1  0.1132255E+005  0.1043930E+01  0.7957747E-01            NaN
         13   -1    0    0    0    0  0.00000000000E+00  0.00000000000E+00  0.74505805969E-08  0.10566000000E+00  0.10566000000E+00 0.  1.
     999900   -1    0    0    0    0 -0.00000000000E+00 -0.00000000000E+00 -0.74505805969E-08  0.93827000000E+00  0.93827000000E+00 0. -1.
     999902    2    1    2    0    0  0.21688917161E-01 -0.43951940964E-03 -0.84656562257E-02  0.10206433162E+01  0.10203776308E+01 0.  0.
     999903    2    3    3    0    0  0.47153994097E-01 -0.51084748119E-01 -0.11144543754E+00  0.13282675597E+00  0.19741096820E-01 0.  0.
         14    1    1    2    0    0 -0.21688917161E-01  0.43951940964E-03  0.84656562257E-02  0.23286683754E-01  0.00000000000E+00 0.  1.
     999901    1    3    3    0    0 -0.25465076936E-01  0.50645228710E-01  0.10297978132E+00  0.88781656027E+00  0.88000000000E+00 0.  1.
        -11    1    4    4    0    0  0.17749045709E-01 -0.15456524360E-01 -0.22324874923E-01  0.32443704015E-01  0.51100000000E-03 0. -1.
         11    1    4    4    0    0  0.29404948389E-01 -0.35628223759E-01 -0.89120562619E-01  0.10038305196E+00  0.51100000000E-03 0.  1.
</event>
<event>
 8    1  0.1132255E+005  0.1043930E+01  0.7957747E-01            NaN
         13   -1    0    0    0    0  0.00000000000E+00  0.00000000000E+00  0.74505805969E-08  0.10566000000E+00  0.10566000000E+00 0.  1.
     999900   -1    0    0    0    0 -0.00000000000E+00 -0.00000000000E+00 -0.74505805969E-08  0.93827000000E+00  0.93827000000E+00 0. -1.
     999902    2    1    2    0    0 -0.24175067360E-02 -0.61078604346E-02 -0.21255035419E-01  0.10216830490E+01  0.10214408088E+01 0.  0.
     999903    2    3    3    0    0 -0.26899325644E-01 -0.15023916096E-01 -0.12952196080E+00  0.13466524612E+00  0.20236066991E-01 0.  0.
         14    1    1    2    0    0  0.24175067360E-02  0.61078604346E-02  0.21255035419E-01  0.22246950995E-01  0.00000000000E+00 0.  1.
     999901    1    3    3    0    0  0.24481818908E-01  0.89160556614E-02  0.10826692538E+00  0.88701780289E+00  0.88000000000E+00 0.  1.
        -11    1    4    4    0    0 -0.24130991855E-01 -0.19538816968E-01 -0.11718690438E+00  0.12123160403E+00  0.51100000000E-03 0. -1.
         11    1    4    4    0    0 -0.27683337886E-02  0.45149008717E-02 -0.12335056423E-01  0.13433642090E-01  0.51100000000E-03 0.  1.
</event>
<event>
 8    1  0.1132255E+005  0.1043930E+01  0.7957747E-01            NaN
         13   -1    0    0    0    0  0.00000000000E+00  0.00000000000E+00  0.74505805969E-08  0.10566000000E+00  0.10566000000E+00 0. -1.
     999900   -1    0    0    0    0 -0.00000000000E+00 -0.00000000000E+00 -0.74505805969E-08  0.93827000000E+00  0.93827000000E+00 0. -1.
     999902    2    1    2    0    0  0.19975262161E-01 -0.12029426392E-01 -0.50654800190E-02  0.10200683721E+01  0.10197892461E+01 0.  0.
     999903    2    3    3    0    0  0.71817388980E-01  0.55606437142E-01 -0.93258575869E-01  0.13156387673E+00  0.19028359794E-01 0.  0.
         14    1    1    2    0    0 -0.19975262161E-01  0.12029426392E-01  0.50654800190E-02  0.23861627890E-01  0.00000000000E+00 0. -1.
     999901    1    3    3    0    0 -0.51842126819E-01 -0.67635863534E-01  0.88193095850E-01  0.88850449538E+00  0.88000000000E+00 0.  1.
        -11    1    4    4    0    0  0.36965309026E-01  0.39500000130E-01 -0.49269784438E-01  0.73174154325E-01  0.51100000000E-03 0. -1.
         11    1    4    4    0    0  0.34852079954E-01  0.16106437013E-01 -0.43988791431E-01  0.58389722408E-01  0.51100000000E-03 0.  1.
</event>
<event>
 8    1  0.1132255E+005  0.1043930E+01  0.7957747E-01            NaN
         13   -1    0    0    0    0  0.00000000000E+00  0.00000000000E+00  0.74505805969E-08  0.10566000000E+00  0.10566000000E+00 0. -1.
     999900   -1    0    0    0    0 -0.00000000000E+00 -0.00000000000E+00 -0.74505805969E-08  0.93827000000E+00  0.93827000000E+00 0.  1.
     999902    2    1    2    0    0 -0.13018874531E-02  0.10177463606E-01  0.21562992173E-01  0.10200503369E+01  0.10197707838E+01 0.  0.
     999903    2    3    3    0    0  0.80255276800E-02  0.12410397608E+00  0.41167211092E-01  0.13244086408E+00  0.19484281727E-01 0.  0.
         14    1    1    2    0    0  0.13018874531E-02 -0.10177463606E-01 -0.21562992173E-01  0.23879663059E-01  0.00000000000E+00 0.  1.
     999901    1    3    3    0    0 -0.93274151331E-02 -0.11392651248E+00 -0.19604218919E-01  0.88760947286E+00  0.88000000000E+00 0.  1.
        -11    1    4    4    0    0 -0.31311360787E-02  0.12663253030E-01  0.91947394050E-02  0.15967665583E-01  0.51100000000E-03 0.  1.
         11    1    4    4    0    0  0.11156663759E-01  0.11144072305E+00  0.31972471687E-01  0.11647319849E+00  0.51100000000E-03 0. -1.
</event>
<event>
 8    1  0.1132255E+005  0.1043930E+01  0.7957747E-01            NaN
         13   -1    0    0    0    0  0.00000000000E+00  0.00000000000E+00  0.74505805969E-08  0.10566000000E+00  0.10566000000E+00 0. -1.
     999900   -1    0    0    0    0 -0.00000000000E+00 -0.00000000000E+00 -0.74505805969E-08  0.93827000000E+00  0.93827000000E+00 0.  1.
     999902    2    1    2    0    0  0.37819368355E-02 -0.21420329509E-01  0.83928144925E-02  0.10206153502E+01  0.10203490188E+01 0.  0.
     999903    2    3    3    0    0 -0.23482668297E-01 -0.40675632363E-01 -0.12034303610E+00  0.13062262849E+00  0.19336027451E-01 0.  0.
         14    1    1    2    0    0 -0.37819368355E-02  0.21420329509E-01 -0.83928144925E-02  0.23314649850E-01  0.00000000000E+00 0.  1.
     999901    1    3    3    0    0  0.27264605132E-01  0.19255302854E-01  0.12873585059E+00  0.88999272166E+00  0.88000000000E+00 0. -1.
        -11    1    4    4    0    0 -0.21135484662E-01 -0.24374185554E-01 -0.60667614904E-01  0.68714119746E-01  0.51100000000E-03 0. -1.
         11    1    4    4    0    0 -0.23471836346E-02 -0.16301446809E-01 -0.59675421195E-01  0.61908508744E-01  0.51100000000E-03 0.  1.
</event>
<event>
 8    1  0.1132255E+005  0.1043930E+01  0.7957747E-01            NaN
         13   -1    0    0    0    0  0.00000000000E+00  0.00000000000E+00  0.74505805969E-08  0.10566000000E+00  0.10566000000E+00 0.  1.
     999900   -1    0    0    0    0 -0.00000000000E+00 -0.00000000000E+00 -0.74505805969E-08  0.93827000000E+00  0.93827000000E+00 0. -1.
     999902    2    1    2    0    0  0.16207360681E-01  0.17553958520E-01 -0.34259693096E-02  0.10197937769E+01  0.10195081119E+01 0.  0.
     999903    2    3    3    0    0  0.33755320771E-01  0.28222612187E-01  0.12161056161E+00  0.13071791673E+00  0.19029123440E-01 0.  0.
         14    1    1    2    0    0 -0.16207360681E-01 -0.17553958520E-01  0.34259693096E-02  0.24136223103E-01  0.00000000000E+00 0. -1.
     999901    1    3    3    0    0 -0.17547960090E-01 -0.10668653667E-01 -0.12503653092E+00  0.88907586017E+00  0.88000000000E+00 0. -1.
        -11    1    4    4    0    0  0.24223626030E-01  0.11660781315E-01  0.88398236652E-01  0.92397333528E-01  0.51100000000E-03 0. -1.
         11    1    4    4    0    0  0.95316947416E-02  0.16561830872E-01  0.33212324959E-01  0.38320583198E-01  0.51100000000E-03 0.  1.
</event>
<event>
 8    1  0.1132255E+005  0.1043930E+01  0.7957747E-01            NaN
         13   -1    0    0    0    0  0.00000000000E+00  0.00000000000E+00  0.74505805969E-08  0.10566000000E+00  0.10566000000E+00 0. -1.
     999900   -1    0    0    0    0 -0.00000000000E+00 -0.00000000000E+00 -0.74505805969E-08  0.93827000000E+00  0.93827000000E+00 0. -1.
     999902    2    1    2    0    0 -0.13417953629E-01  0.87061168145E-02  0.17143799466E-01  0.10204832985E+01  0.10202139064E+01 0.  0.
     999903    2    3    3    0    0  0.65262068098E-01  0.21463833850E-01  0.11084957228E+00  0.13192599761E+00  0.19925046441E-01 0.  0.
         14    1    1    2    0    0  0.13417953629E-01 -0.87061168145E-02 -0.17143799466E-01  0.23446701467E-01  0.00000000000E+00 0.  1.
     999901    1    3    3    0    0 -0.78680021727E-01 -0.12757717035E-01 -0.93705772811E-01  0.88855730092E+00  0.88000000000E+00 0. -1.
        -11    1    4    4    0    0  0.18210488631E-01  0.14597494785E-01  0.28583175220E-01  0.36904847606E-01  0.51100000000E-03 0. -1.
         11    1    4    4    0    0  0.47051579467E-01  0.68663390648E-02  0.82266397057E-01  0.95021150005E-01  0.51100000000E-03 0.  1.
</event>
<event>
 8    1  0.1132255E+005  0.1043930E+01  0.7957747E-01            NaN
         13   -1    0    0    0    0  0.00000000000E+00  0.00000000000E+00  0.74505805969E-08  0.10566000000E+00  0.10566000000E+00 0. -1.
     999900   -1    0    0    0    0 -0.00000000000E+00 -0.00000000000E+00 -0.74505805969E-08  0.93827000000E+00  0.93827000000E+00 0. -1.
     999902    2    1    2    0    0  0.21484363076E-01 -0.88313601929E-03  0.11133558472E-01  0.10197160802E+01  0.10194285509E+01 0.  0.
     999903    2    3    3    0    0 -0.19964021322E-01  0.74564001156E-01 -0.10082273793E+00  0.12845604446E+00  0.19426231177E-01 0.  0.
         14    1    1    2    0    0 -0.21484363076E-01  0.88313601929E-03 -0.11133558472E-01  0.24213919763E-01  0.00000000000E+00 0. -1.
     999901    1    3    3    0    0  0.41448384398E-01 -0.75447137175E-01  0.11195629640E+00  0.89126003578E+00  0.88000000000E+00 0.  1.
        -11    1    4    4    0    0 -0.11661818158E-01  0.47961703724E-01 -0.48659828374E-01  0.69313512718E-01  0.51100000000E-03 0. -1.
         11    1    4    4    0    0 -0.83022031642E-02  0.26602297432E-01 -0.52162909556E-01  0.59142531738E-01  0.51100000000E-03 0.  1.
</event>
<event>
 8    1  0.1132255E+005  0.1043930E+01  0.7957747E-01            NaN
         13   -1    0    0    0    0  0.00000000000E+00  0.00000000000E+00  0.74505805969E-08  0.10566000000E+00  0.10566000000E+00 0.  1.
     999900   -1    0    0    0    0 -0.00000000000E+00 -0.00000000000E+00 -0.74505805969E-08  0.93827000000E+00  0.93827000000E+00 0. -1.
     999902    2    1    2    0    0 -0.36942370146E-02 -0.19347635880E-01  0.11213325311E-01  0.10212646726E+01  0.10210131314E+01 0.  0.
     999903    2    3    3    0    0  0.73183440719E-01 -0.27260308011E-01  0.10553513021E+00  0.13285632585E+00  0.20351884923E-01 0.  0.
         14    1    1    2    0    0  0.36942370146E-02  0.19347635880E-01 -0.11213325311E-01  0.22665327392E-01  0.00000000000E+00 0.  1.
     999901    1    3    3    0    0 -0.76877677733E-01  0.79126721309E-02 -0.94321804904E-01  0.88840834676E+00  0.88000000000E+00 0. -1.
        -11    1    4    4    0    0  0.51265948955E-01 -0.10307222063E-01  0.60408668224E-01  0.79899340839E-01  0.51100000000E-03 0. -1.
         11    1    4    4    0    0  0.21917491764E-01 -0.16953085948E-01  0.45126461991E-01  0.52956985008E-01  0.51100000000E-03 0.  1.
</event>
<event>
 8    1  0.1132255E+005  0.1043930E+01  0.7957747E-01            NaN
         13   -1    0    0    0    0  0.00000000000E+00  0.00000000000E+00  0.74505805969E-08  0.10566000000E+00  0.10566000000E+00 0.  1.
     999900   -1    0    0    0    0 -0.00000000000E+00 -0.00000000000E+00 -0.74505805969E-08  0.93827000000E+00  0.93827000000E+00 0.  1.
     999902    2    1    2    0    0  0.20679415590E-02  0.22336007381E-01  0.77528395127E-02  0.10201964767E+01  0.10199203748E+01 0.  0.
     999903    2    3    3    0    0 -0.31045951342E-01 -0.65553735656E-01 -0.10318279963E+00  0.12827279562E+00  0.23368281966E-01 0.  0.
         14    1    1    2    0    0 -0.20679415590E-02 -0.22336007381E-01 -0.77528395127E-02  0.23733523306E-01  0.00000000000E+00 0. -1.
     999901    1    3    3    0    0  0.33113892901E-01  0.87889743037E-01  0.11093563914E+00  0.89192368108E+00  0.88000000000E+00 0. -1.
        -11    1    4    4    0    0 -0.12802484614E-01 -0.75847764443E-02 -0.26842663733E-01  0.30695637528E-01  0.51100000000E-03 0.  1.
         11    1    4    4    0    0 -0.18243466728E-01 -0.57968959212E-01 -0.76340135899E-01  0.97577158088E-01  0.51100000000E-03 0. -1.
</event>
<event>
 8    1  0.1132255E+005  0.1043930E+01  0.7957747E-01            NaN
         13   -1    0    0    0    0  0.00000000000E+00  0.00000000000E+00  0.74505805969E-08  0.10566000000E+00  0.10566000000E+00 0. -1.
     999900   -1    0    0    0    0 -0.00000000000E+00 -0.00000000000E+00 -0.74505805969E-08  0.93827000000E+00  0.93827000000E+00 0.  1.
     999902    2    1    2    0    0  0.14932730543E-01  0.79855555208E-02  0.15441249492E-01  0.10210130254E+01  0.10207558035E+01 0.  0.
     999903    2    3    3    0    0 -0.55606405505E-01 -0.64012326889E-01 -0.94391695536E-01  0.12847577655E+00  0.20163894656E-01 0.  0.
         14    1    1    2    0    0 -0.14932730543E-01 -0.79855555208E-02 -0.15441249492E-01  0.22916974589E-01  0.00000000000E+00 0.  1.
     999901    1    3    3    0    0  0.70539136048E-01  0.71997882410E-01  0.10983294503E+00  0.89253724886E+00  0.88000000000E+00 0. -1.
        -11    1    4    4    0    0 -0.21293470564E-01 -0.38276723938E-01 -0.54260121469E-01  0.69734793231E-01  0.51100000000E-03 0. -1.
         11    1    4    4    0    0 -0.34312934941E-01 -0.25735602950E-01 -0.40131574066E-01  0.58740983321E-01  0.51100000000E-03 0.  1.
</event>
<event>
 8    1  0.1132255E+005  0.1043930E+01  0.7957747E-01            NaN
         13   -1    0    0    0    0  0.00000000000E+00  0.00000000000E+00  0.74505805969E-08  0.10566000000E+00  0.10566000000E+00 0. -1.
     999900   -1    0    0    0    0 -0.00000000000E+00 -0.00000000000E+00 -0.74505805969E-08  0.93827000000E+00  0.93827000000E+00 0.  1.
     999902    2    1    2    0    0  0.21524860958E-01  0.68981843543E-02  0.43546885187E-02  0.10209111404E+01  0.10206516000E+01 0.  0.
     999903    2    3    3    0    0  0.12289558359E+00  0.47425383974E-01  0.15860874205E-01  0.13409048791E+00  0.19395878627E-01 0.  0.
         14    1    1    2    0    0 -0.21524860958E-01 -0.68981843543E-02 -0.43546885187E-02  0.23018859631E-01  0.00000000000E+00 0.  1.
     999901    1    3    3    0    0 -0.10137072263E+00 -0.40527199620E-01 -0.11506185686E-01  0.88682065246E+00  0.88000000000E+00 0. -1.
        -11    1    4    4    0    0  0.63289380088E-01  0.34412209942E-01  0.60619368533E-02  0.72296293297E-01  0.51100000000E-03 0.  1.
         11    1    4    4    0    0  0.59606203498E-01  0.13013174032E-01  0.97989373518E-02  0.61794194615E-01  0.51100000000E-03 0. -1.
</event>
<event>
 8    1  0.1132255E+005  0.1043930E+01  0.7957747E-01            NaN
         13   -1    0    0    0    0  0.00000000000E+00  0.00000000000E+00  0.74505805969E-08  0.10566000000E+00  0.10566000000E+00 0.  1.
     999900   -1    0    0    0    0 -0.00000000000E+00 -0.00000000000E+00 -0.74505805969E-08  0.93827000000E+00  0.93827000000E+00 0. -1.
     999902    2    1    2    0    0  0.55596363029E-02 -0.20193902838E-01 -0.11135679162E-01  0.10202085621E+01  0.10199327446E+01 0.  0.
     999903    2    3    3    0    0 -0.82549590777E-02  0.12554239849E+00  0.11230547486E-01  0.12783523174E+00  0.19664259656E-01 0.  0.
         14    1    1    2    0    0 -0.55596363029E-02  0.20193902838E-01  0.11135679162E-01  0.23721437942E-01  0.00000000000E+00 0. -1.
     999901    1    3    3    0    0  0.13814595381E-01 -0.14573630133E+00 -0.22366226648E-01  0.89237333032E+00  0.88000000000E+00 0.  1.
        -11    1    4    4    0    0  0.33322582450E-02  0.80637493176E-01  0.11014972285E-01  0.81456123073E-01  0.51100000000E-03 0. -1.
         11    1    4    4    0    0 -0.11587217323E-01  0.44904905317E-01  0.21557520140E-03  0.46379108664E-01  0.51100000000E-03 0.  1.
</event>
<event>
 8    1  0.1132255E+005  0.1043930E+01  0.7957747E-01            NaN
         13   -1    0    0    0    0  0.00000000000E+00  0.00000000000E+00  0.74505805969E-08  0.10566000000E+00  0.10566000000E+00 0.  1.
     999900   -1    0    0    0    0 -0.00000000000E+00 -0.00000000000E+00 -0.74505805969E-08  0.93827000000E+00  0.93827000000E+00 0. -1.
     999902    2    1    2    0    0  0.14860919766E-01  0.11892714803E-01 -0.12986930095E-01  0.10208877789E+01  0.10206277054E+01 0.  0.
     999903    2    3    3    0    0  0.84271241692E-01  0.28253682997E-01  0.93901932023E-01  0.13155617428E+00  0.24280473088E-01 0.  0.
         14    1    1    2    0    0 -0.14860919766E-01 -0.11892714803E-01  0.12986930095E-01  0.23042221138E-01  0.00000000000E+00 0.  1.
     999901    1    3    3    0    0 -0.69410321926E-01 -0.16360968193E-01 -0.10688886212E+00  0.88933160459E+00  0.88000000000E+00 0. -1.
        -11    1    4    4    0    0  0.55570578601E-01  0.29724754429E-01  0.58865799855E-01  0.86238586175E-01  0.51100000000E-03 0.  1.
         11    1    4    4    0    0  0.28700663092E-01 -0.14710714322E-02  0.35036132168E-01  0.45317588102E-01  0.51100000000E-03 0. -1.
</event>
<event>
 8    1  0.1132255E+005  0.1043930E+01  0.7957747E-01            NaN
         13   -1    0    0    0    0  0.00000000000E+00  0.00000000000E+00  0.74505805969E-08  0.10566000000E+00  0.10566000000E+00 0. -1.
     999900   -1    0    0    0    0 -0.00000000000E+00 -0.00000000000E+00 -0.74505805969E-08  0.93827000000E+00  0.93827000000E+00 0.  1.
     999902    2    1    2    0    0 -0.13464816793E-01  0.93646378294E-02  0.14904486726E-01  0.10217682885E+01  0.10215279212E+01 0.  0.
     999903    2    3    3    0    0  0.89343985170E-01  0.19889930163E-02 -0.91254379563E-01  0.12941535674E+00  0.20848716763E-01 0.  0.
         14    1    1    2    0    0  0.13464816793E-01 -0.93646378294E-02 -0.14904486726E-01  0.22161711520E-01  0.00000000000E+00 0.  1.
     999901    1    3    3    0    0 -0.10280880196E+00  0.73756448131E-02  0.10615886629E+00  0.89235293174E+00  0.88000000000E+00 0. -1.
        -11    1    4    4    0    0  0.47012907162E-01 -0.31152896092E-02 -0.61245825545E-01  0.77273738986E-01  0.51100000000E-03 0.  1.
         11    1    4    4    0    0  0.42331078009E-01  0.51042826255E-02 -0.30008554018E-01  0.52141617752E-01  0.51100000000E-03 0. -1.
</event>
<event>
 8    1  0.1132255E+005  0.1043930E+01  0.7957747E-01            NaN
         13   -1    0    0    0    0  0.00000000000E+00  0.00000000000E+00  0.74505805969E-08  0.10566000000E+00  0.10566000000E+00 0. -1.
     999900   -1    0    0    0    0 -0.00000000000E+00 -0.00000000000E+00 -0.74505805969E-08  0.93827000000E+00  0.93827000000E+00 0.  1.
     999902    2    1    2    0    0 -0.34444790352E-02  0.93582202774E-02  0.20556960168E-01  0.10210820387E+01  0.10208263812E+01 0.  0.
     999903    2    3    3    0    0  0.10092296846E+00  0.75343858811E-01 -0.30613779291E-01  0.13098928336E+00  0.18943237557E-01 0.  0.
         14    1    1    2    0    0  0.34444790352E-02 -0.93582202774E-02 -0.20556960168E-01  0.22847961264E-01  0.00000000000E+00 0.  1.
     999901    1    3    3    0    0 -0.10436744750E+00 -0.65985638534E-01  0.51170739459E-01  0.89009275537E+00  0.88000000000E+00 0. -1.
        -11    1    4    4    0    0  0.19960028613E-01  0.21753185957E-01 -0.13211433352E-01  0.32348213765E-01  0.51100000000E-03 0. -1.
         11    1    4    4    0    0  0.80962939852E-01  0.53590672854E-01 -0.17402345938E-01  0.98641069598E-01  0.51100000000E-03 0.  1.
</event>
<event>
 8    1  0.1132255E+005  0.1043930E+01  0.7957747E-01            NaN
         13   -1    0    0    0    0  0.00000000000E+00  0.00000000000E+00  0.74505805969E-08  0.10566000000E+00  0.10566000000E+00 0.  1.
     999900   -1    0    0    0    0 -0.00000000000E+00 -0.00000000000E+00 -0.74505805969E-08  0.93827000000E+00  0.93827000000E+00 0. -1.
     999902    2    1    2    0    0  0.21377629387E-02  0.14954742000E-01 -0.16986732201E-01  0.10211975692E+01  0.10209445195E+01 0.  0.
     999903    2    3    3    0    0 -0.56820435916E-01 -0.68646039819E-01  0.90719627525E-01  0.12874823179E+00  0.20129968979E-01 0.  0.
         14    1    1    2    0    0 -0.21377629387E-02 -0.14954742000E-01  0.16986732201E-01  0.22732430789E-01  0.00000000000E+00 0.  1.
     999901    1    3    3    0    0  0.58958198855E-01  0.83600781820E-01 -0.10770635973E+00  0.89244933742E+00  0.88000000000E+00 0. -1.
        -11    1    4    4    0    0 -0.18347663787E-01 -0.10061195990E-01  0.25686588911E-01  0.33134972492E-01  0.51100000000E-03 0. -1.
         11    1    4    4    0    0 -0.38472772129E-01 -0.58584843829E-01  0.65033038613E-01  0.95613259301E-01  0.51100000000E-03 0.  1.
</event>
<event>
 8    1  0.1132255E+005  0.1043930E+01  0.7957747E-01            NaN
         13   -1    0    0    0    0  0.00000000000E+00  0.00000000000E+00  0.74505805969E-08  0.10566000000E+00  0.10566000000E+00 0.  1.
     999900   -1    0    0    0    0 -0.00000000000E+00 -0.00000000000E+00 -0.74505805969E-08  0.93827000000E+00  0.93827000000E+00 0. -1.
     999902    2    1    2    0    0  0.10888392807E-01  0.78273747287E-02 -0.19605373926E-01  0.10201771985E+01  0.10199006426E+01 0.  0.
     999903    2    3    3    0    0  0.75799411398E-01 -0.10202997881E+00  0.19572917197E-01  0.13011146105E+00  0.19754135395E-01 0.  0.
         14    1    1    2    0    0 -0.10888392807E-01 -0.78273747287E-02  0.19605373926E-01  0.23752801515E-01  0.00000000000E+00 0.  1.
     999901    1    3    3    0    0 -0.64911018591E-01  0.10985735354E+00 -0.39178291123E-01  0.89006573744E+00  0.88000000000E+00 0.  1.
        -11    1    4    4    0    0 -0.42623044057E-03 -0.55166796746E-02 -0.12748762781E-03  0.55581292820E-02  0.51100000000E-03 0.  1.
         11    1    4    4    0    0  0.76225641839E-01 -0.96513299132E-01  0.19700404825E-01  0.12455333177E+00  0.51100000000E-03 0. -1.
</event>
<event>
 8    1  0.1132255E+005  0.1043930E+01  0.7957747E-01            NaN
         13   -1    0    0    0    0  0.00000000000E+00  0.00000000000E+00  0.74505805969E-08  0.10566000000E+00  0.10566000000E+00 0.  1.
     999900   -1    0    0    0    0 -0.00000000000E+00 -0.00000000000E+00 -0.74505805969E-08  0.93827000000E+00  0.93827000000E+00 0.  1.
     999902    2    1    2    0    0 -0.36816951492E-02  0.23619568721E-02  0.23530404446E-01  0.10199964743E+01  0.10197156437E+01 0.  0.
     999903    2    3    3    0    0  0.43634041673E-02 -0.41278268463E-01  0.12494811243E+00  0.13306088228E+00  0.19241435711E-01 0.  0.
         14    1    1    2    0    0  0.36816951492E-02 -0.23619568721E-02 -0.23530404446E-01  0.23933525708E-01  0.00000000000E+00 0. -1.
     999901    1    3    3    0    0 -0.80450993165E-02  0.43640225336E-01 -0.10141770799E+00  0.88693559202E+00  0.88000000000E+00 0.  1.
        -11    1    4    4    0    0 -0.58050536255E-02 -0.18632351612E-01  0.71667744554E-01  0.74279135056E-01  0.51100000000E-03 0. -1.
         11    1    4    4    0    0  0.10168457793E-01 -0.22645916851E-01  0.53280367880E-01  0.58781747221E-01  0.51100000000E-03 0.  1.
</event>
<event>
 8    1  0.1132255E+005  0.1043930E+01  0.7957747E-01            NaN
         13   -1    0    0    0    0  0.00000000000E+00  0.00000000000E+00  0.74505805969E-08  0.10566000000E+00  0.10566000000E+00 0.  1.
     999900   -1    0    0    0    0 -0.00000000000E+00 -0.00000000000E+00 -0.74505805969E-08  0.93827000000E+00  0.93827000000E+00 0. -1.
     999902    2    1    2    0    0  0.11305255109E-02  0.21337177195E-02 -0.23784605516E-01  0.10200231328E+01  0.10197429348E+01 0.  0.
     999903    2    3    3    0    0 -0.96311689930E-01  0.26168758185E-01  0.78425966900E-01  0.12844045597E+00  0.19636010918E-01 0.  0.
         14    1    1    2    0    0 -0.11305255109E-02 -0.21337177195E-02  0.23784605516E-01  0.23906867189E-01  0.00000000000E+00 0.  1.
     999901    1    3    3    0    0  0.97442215440E-01 -0.24035040466E-01 -0.10221057242E+00  0.89158267684E+00  0.88000000000E+00 0. -1.
        -11    1    4    4    0    0 -0.97127977613E-01  0.25923560558E-01  0.78328148211E-01  0.12744188852E+00  0.51100000000E-03 0. -1.
         11    1    4    4    0    0  0.81628768381E-03  0.24519762767E-03  0.97818689263E-04  0.99856745156E-03  0.51100000000E-03 0.  1.
</event>
<event>
 8    1  0.1132255E+005  0.1043930E+01  0.7957747E-01            NaN
         13   -1    0    0    0    0  0.00000000000E+00  0.00000000000E+00  0.74505805969E-08  0.10566000000E+00  0.10566000000E+00 0. -1.
     999900   -1    0    0    0    0 -0.00000000000E+00 -0.00000000000E+00 -0.74505805969E-08  0.93827000000E+00  0.93827000000E+00 0. -1.
     999902    2    1    2    0    0 -0.19090577417E-01 -0.56633796526E-03  0.13676869424E-01  0.10204389881E+01  0.10201685648E+01 0.  0.
     999903    2    3    3    0    0  0.11986683794E-01  0.96692510598E-01 -0.82535638033E-01  0.12932624189E+00  0.20494465166E-01 0.  0.
         14    1    1    2    0    0  0.19090577417E-01  0.56633796526E-03 -0.13676869424E-01  0.23491011942E-01  0.00000000000E+00 0.  1.
     999901    1    3    3    0    0 -0.31077261211E-01 -0.97258848563E-01  0.96212507456E-01  0.89111274617E+00  0.88000000000E+00 0.  1.
        -11    1    4    4    0    0 -0.41548103118E-02  0.26246689332E-01 -0.29327484624E-01  0.39579206978E-01  0.51100000000E-03 0. -1.
         11    1    4    4    0    0  0.16141494105E-01  0.70445821266E-01 -0.53208153408E-01  0.89747034914E-01  0.51100000000E-03 0.  1.
</event>
<event>
 8    1  0.1132255E+005  0.1043930E+01  0.7957747E-01            NaN
         13   -1    0    0    0    0  0.00000000000E+00  0.00000000000E+00  0.74505805969E-08  0.10566000000E+00  0.10566000000E+00 0. -1.
     999900   -1    0    0    0    0 -0.00000000000E+00 -0.00000000000E+00 -0.74505805969E-08  0.93827000000E+00  0.93827000000E+00 0.  1.
     999902    2    1    2    0    0 -0.20653925761E-01 -0.11157828753E-01  0.41728626991E-02  0.10200868757E+01  0.10198081876E+01 0.  0.
     999903    2    3    3    0    0 -0.47067936434E-02  0.78476371796E-02  0.12913868293E+00  0.13091199137E+00  0.19427061991E-01 0.  0.
         14    1    1    2    0    0  0.20653925761E-01  0.11157828753E-01 -0.41728626991E-02  0.23843124269E-01  0.00000000000E+00 0.  1.
     999901    1    3    3    0    0 -0.15947132117E-01 -0.19005465933E-01 -0.12496582024E+00  0.88917488436E+00  0.88000000000E+00 0.  1.
        -11    1    4    4    0    0  0.25224176285E-02 -0.86294403299E-03  0.92975630299E-01  0.93015247210E-01  0.51100000000E-03 0.  1.
         11    1    4    4    0    0 -0.72292112719E-02  0.87105812126E-02  0.36163052636E-01  0.37896744156E-01  0.51100000000E-03 0. -1.
</event>
<event>
 8    1  0.1132255E+005  0.1043930E+01  0.7957747E-01            NaN
         13   -1    0    0    0    0  0.00000000000E+00  0.00000000000E+00  0.74505805969E-08  0.10566000000E+00  0.10566000000E+00 0.  1.
     999900   -1    0    0    0    0 -0.00000000000E+00 -0.00000000000E+00 -0.74505805969E-08  0.93827000000E+00  0.93827000000E+00 0. -1.
     999902    2    1    2    0    0 -0.23447784331E-02 -0.22823668274E-01 -0.72375144551E-02  0.10198717491E+01  0.10195879488E+01 0.  0.
     999903    2    3    3    0    0 -0.12649088478E+00 -0.19177736441E-01  0.18169434869E-01  0.13078735403E+00  0.20185987799E-01 0.  0.
         14    1    1    2    0    0  0.23447784331E-02  0.22823668274E-01  0.72375144551E-02  0.24058250869E-01  0.00000000000E+00 0.  1.
     999901    1    3    3    0    0  0.12414610635E+00 -0.36459318328E-02 -0.25406949324E-01  0.88908439510E+00  0.88000000000E+00 0. -1.
        -11    1    4    4    0    0 -0.19665553713E-01  0.30503714245E-02  0.70018009682E-02  0.21102727465E-01  0.51100000000E-03 0.  1.
         11    1    4    4    0    0 -0.10682533107E+00 -0.22228107866E-01  0.11167633901E-01  0.10968462656E+00  0.51100000000E-03 0. -1.
</event>
<event>
 8    1  0.1132255E+005  0.1043930E+01  0.7957747E-01            NaN
         13   -1    0    0    0    0  0.00000000000E+00  0.00000000000E+00  0.74505805969E-08  0.10566000000E+00  0.10566000000E+00 0. -1.
     999900   -1    0    0    0    0 -0.00000000000E+00 -0.00000000000E+00 -0.74505805969E-08  0.93827000000E+00  0.93827000000E+00 0. -1.
     999902    2    1    2    0    0  0.21142384050E-03 -0.88825279081E-02 -0.22744644724E-01  0.10195115057E+01  0.10192190379E+01 0.  0.
     999903    2    3    3    0    0  0.62721947364E-01  0.41014928969E-01  0.10132560358E+00  0.12721629203E+00  0.17344738022E-01 0.  0.
         14    1    1    2    0    0 -0.21142384050E-03  0.88825279081E-02  0.22744644724E-01  0.24418494337E-01  0.00000000000E+00 0. -1.
     999901    1    3    3    0    0 -0.62510523523E-01 -0.49897456877E-01 -0.12407024831E+00  0.89229521363E+00  0.88000000000E+00 0. -1.
        -11    1    4    4    0    0  0.42151451288E-01  0.19769390353E-01  0.70580369208E-01  0.84554262335E-01  0.51100000000E-03 0. -1.
         11    1    4    4    0    0  0.20570496076E-01  0.21245538616E-01  0.30745234377E-01  0.42662029696E-01  0.51100000000E-03 0.  1.
</event>
<event>
 8    1  0.1132255E+005  0.1043930E+01  0.7957747E-01            NaN
         13   -1    0    0    0    0  0.00000000000E+00  0.00000000000E+00  0.74505805969E-08  0.10566000000E+00  0.10566000000E+00 0. -1.
     999900   -1    0    0    0    0 -0.00000000000E+00 -0.00000000000E+00 -0.74505805969E-08  0.93827000000E+00  0.93827000000E+00 0. -1.
     999902    2    1    2    0    0  0.29656727786E-02 -0.19874100737E-01  0.12657754356E-01  0.10201814455E+01  0.10199049897E+01 0.  0.
     999903    2    3    3    0    0 -0.38212420854E-01  0.30529265276E-01 -0.11691328102E+00  0.12831554308E+00  0.20098213155E-01 0.  0.
         14    1    1    2    0    0 -0.29656727786E-02  0.19874100737E-01 -0.12657754356E-01  0.23748554492E-01  0.00000000000E+00 0.  1.
     999901    1    3    3    0    0  0.41178093632E-01 -0.50403366013E-01  0.12957103538E+00  0.89186590243E+00  0.88000000000E+00 0. -1.
        -11    1    4    4    0    0 -0.52675872804E-02  0.15392824153E-01 -0.29762183483E-01  0.33922488084E-01  0.51100000000E-03 0.  1.
         11    1    4    4    0    0 -0.32944833573E-01  0.15136441122E-01 -0.87151097537E-01  0.94393054998E-01  0.51100000000E-03 0. -1.
</event>
<event>
 8    1  0.1132255E+005  0.1043930E+01  0.7957747E-01            NaN
         13   -1    0    0    0    0  0.00000000000E+00  0.00000000000E+00  0.74505805969E-08  0.10566000000E+00  0.10566000000E+00 0. -1.
     999900   -1    0    0    0    0 -0.00000000000E+00 -0.00000000000E+00 -0.74505805969E-08  0.93827000000E+00  0.93827000000E+00 0. -1.
     999902    2    1    2    0    0 -0.19011562741E-01  0.24560584315E-02 -0.92677800054E-02  0.10226376660E+01  0.10224159782E+01 0.  0.
     999903    2    3    3    0    0 -0.27621835560E-01 -0.63766453917E-02  0.12731973082E+00  0.13201524232E+00  0.20349028006E-01 0.  0.
         14    1    1    2    0    0  0.19011562741E-01 -0.24560584315E-02  0.92677800054E-02  0.21292333998E-01  0.00000000000E+00 0. -1.
     999901    1    3    3    0    0  0.86102728189E-02  0.88327038232E-02 -0.13658751083E+00  0.89062242368E+00  0.88000000000E+00 0. -1.
        -11    1    4    4    0    0 -0.18289654685E-01  0.38971610104E-02  0.95210086898E-01  0.97030516336E-01  0.51100000000E-03 0. -1.
         11    1    4    4    0    0 -0.93321808752E-02 -0.10273806402E-01  0.32109643926E-01  0.34984725981E-01  0.51100000000E-03 0.  1.
</event>
<event>
 8    1  0.1132255E+005  0.1043930E+01  0.7957747E-01            NaN
         13   -1    0    0    0    0  0.00000000000E+00  0.00000000000E+00  0.74505805969E-08  0.10566000000E+00  0.10566000000E+00 0. -1.
     999900   -1    0    0    0    0 -0.00000000000E+00 -0.00000000000E+00 -0.74505805969E-08  0.93827000000E+00  0.93827000000E+00 0.  1.
     999902    2    1    2    0    0 -0.22067501600E-01 -0.60970187844E-02 -0.33616371059E-02  0.10207902319E+01  0.10205279264E+01 0.  0.
     999903    2    3    3    0    0  0.58374382277E-01 -0.64261599361E-01 -0.95382866183E-01  0.13044090621E+00  0.19488899198E-01 0.  0.
         14    1    1    2    0    0  0.22067501600E-01  0.60970187844E-02  0.33616371059E-02  0.23139768126E-01  0.00000000000E+00 0.  1.
     999901    1    3    3    0    0 -0.80441883877E-01  0.58164580577E-01  0.92021229077E-01  0.89034932567E+00  0.88000000000E+00 0.  1.
        -11    1    4    4    0    0  0.38736434683E-01 -0.50643735461E-01 -0.58762436720E-01  0.86709771097E-01  0.51100000000E-03 0.  1.
         11    1    4    4    0    0  0.19637947595E-01 -0.13617863900E-01 -0.36620429462E-01  0.43731135109E-01  0.51100000000E-03 0. -1.
</event>
<event>
 8    1  0.1132255E+005  0.1043930E+01  0.7957747E-01            NaN
         13   -1    0    0    0    0  0.00000000000E+00  0.00000000000E+00  0.74505805969E-08  0.10566000000E+00  0.10566000000E+00 0. -1.
     999900   -1    0    0    0    0 -0.00000000000E+00 -0.00000000000E+00 -0.74505805969E-08  0.93827000000E+00  0.93827000000E+00 0. -1.
     999902    2    1    2    0    0  0.11212462084E-01  0.83310360682E-02  0.18720290520E-01  0.10205724585E+01  0.10203051349E+01 0.  0.
     999903    2    3    3    0    0  0.10716776146E+00  0.24076587096E-01  0.72764258589E-01  0.13356846057E+00  0.21938212972E-01 0.  0.
         14    1    1    2    0    0 -0.11212462084E-01 -0.83310360682E-02 -0.18720290520E-01  0.23357541504E-01  0.00000000000E+00 0.  1.
     999901    1    3    3    0    0 -0.95955299375E-01 -0.15745551028E-01 -0.54043968069E-01  0.88700399793E+00  0.88000000000E+00 0.  1.
        -11    1    4    4    0    0  0.27220916790E-01  0.15618046404E-01  0.16679046087E-01  0.35543682754E-01  0.51100000000E-03 0. -1.
         11    1    4    4    0    0  0.79946844669E-01  0.84585406920E-02  0.56085212502E-01  0.98024777815E-01  0.51100000000E-03 0.  1.
</event>
<event>
 8    1  0.1132255E+005  0.1043930E+01  0.7957747E-01            NaN
         13   -1    0    0    0    0  0.00000000000E+00  0.00000000000E+00  0.74505805969E-08  0.10566000000E+00  0.10566000000E+00 0. -1.
     999900   -1    0    0    0    0 -0.00000000000E+00 -0.00000000000E+00 -0.74505805969E-08  0.93827000000E+00  0.93827000000E+00 0.  1.
     999902    2    1    2    0    0 -0.82628188470E-02  0.32349776868E-03  0.31860532095E-01  0.10110138591E+01  0.10104778825E+01 0.  0.
     999903    2    3    3    0    0  0.74491503785E-01  0.75692213676E-01 -0.51486463649E-01  0.12001697754E+00  0.21792742184E-01 0.  0.
         14    1    1    2    0    0  0.82628188470E-02 -0.32349776868E-03 -0.31860532095E-01  0.32916140896E-01  0.00000000000E+00 0.  1.
     999901    1    3    3    0    0 -0.82754322632E-01 -0.75368715908E-01  0.83346995745E-01  0.89099688156E+00  0.88000000000E+00 0. -1.
        -11    1    4    4    0    0  0.14707254910E-01  0.55681268940E-02 -0.11877583883E-01  0.19714094045E-01  0.51100000000E-03 0.  1.
         11    1    4    4    0    0  0.59784248875E-01  0.70124086782E-01 -0.39608879766E-01  0.10030288350E+00  0.51100000000E-03 0. -1.
</event>
<event>
 8    1  0.1132255E+005  0.1043930E+01  0.7957747E-01            NaN
         13   -1    0    0    0    0  0.00000000000E+00  0.00000000000E+00  0.74505805969E-08  0.10566000000E+00  0.10566000000E+00 0.  1.
     999900   -1    0    0    0    0 -0.00000000000E+00 -0.00000000000E+00 -0.74505805969E-08  0.93827000000E+00  0.93827000000E+00 0.  1.
     999902    2    1    2    0    0  0.72214417753E-02  0.22988297594E-01  0.61292586186E-02  0.10190667971E+01  0.10187634456E+01 0.  0.
     999903    2    3    3    0    0  0.11187384448E+00  0.15772272760E-01  0.63251777770E-01  0.13099744248E+00  0.19875132182E-01 0.  0.
         14    1    1    2    0    0 -0.72214417753E-02 -0.22988297594E-01 -0.61292586186E-02  0.24863202907E-01  0.00000000000E+00 0. -1.
     999901    1    3    3    0    0 -0.10465240270E+00  0.72160248346E-02 -0.57122519151E-01  0.88806935461E+00  0.88000000000E+00 0.  1.
        -11    1    4    4    0    0  0.59312585982E-01  0.28873214026E-02  0.42540580378E-01  0.73049856815E-01  0.51100000000E-03 0.  1.
         11    1    4    4    0    0  0.52561258496E-01  0.12884951357E-01  0.20711197392E-01  0.57947585667E-01  0.51100000000E-03 0. -1.
</event>
<event>
 8    1  0.1132255E+005  0.1043930E+01  0.7957747E-01            NaN
         13   -1    0    0    0    0  0.00000000000E+00  0.00000000000E+00  0.74505805969E-08  0.10566000000E+00  0.10566000000E+00 0. -1.
     999900   -1    0    0    0    0 -0.00000000000E+00 -0.00000000000E+00 -0.74505805969E-08  0.93827000000E+00  0.93827000000E+00 0.  1.
     999902    2    1    2    0    0  0.20996108952E-01  0.33980711432E-02 -0.10194659889E-01  0.10203436784E+01  0.10200710306E+01 0.  0.
     999903    2    3    3    0    0 -0.90464863370E-02  0.38667838643E-01  0.12149727453E+00  0.12933903211E+00  0.19747325128E-01 0.  0.
         14    1    1    2    0    0 -0.20996108952E-01 -0.33980711432E-02  0.10194659889E-01  0.23586321648E-01  0.00000000000E+00 0. -1.
     999901    1    3    3    0    0  0.30042595289E-01 -0.35269767500E-01 -0.13169193442E+00  0.89100464624E+00  0.88000000000E+00 0.  1.
        -11    1    4    4    0    0 -0.41010535871E-02  0.26082228975E-01  0.10353639709E+00  0.10685105499E+00  0.51100000000E-03 0. -1.
         11    1    4    4    0    0 -0.49454327500E-02  0.12585609668E-01  0.17960877441E-01  0.22487977127E-01  0.51100000000E-03 0.  1.
</event>
<event>
 8    1  0.1132255E+005  0.1043930E+01  0.7957747E-01            NaN
         13   -1    0    0    0    0  0.00000000000E+00  0.00000000000E+00  0.74505805969E-08  0.10566000000E+00  0.10566000000E+00 0.  1.
     999900   -1    0    0    0    0 -0.00000000000E+00 -0.00000000000E+00 -0.74505805969E-08  0.93827000000E+00  0.93827000000E+00 0.  1.
     999902    2    1    2    0    0  0.12239972427E-01  0.19834232524E-01 -0.29224146858E-02  0.10204405510E+01  0.10201701642E+01 0.  0.
     999903    2    3    3    0    0 -0.93926455390E-01 -0.33443628838E-01 -0.79738283966E-01  0.12914345204E+00  0.19472594686E-01 0.  0.
         14    1    1    2    0    0 -0.12239972427E-01 -0.19834232524E-01  0.29224146858E-02  0.23489448960E-01  0.00000000000E+00 0.  1.
     999901    1    3    3    0    0  0.10616642782E+00  0.53277861362E-01  0.76815869281E-01  0.89129709900E+00  0.88000000000E+00 0.  1.
        -11    1    4    4    0    0 -0.69180200990E-01 -0.31247052027E-01 -0.66852109917E-01  0.10115208446E+00  0.51100000000E-03 0.  1.
         11    1    4    4    0    0 -0.24746254400E-01 -0.21965768110E-02 -0.12886174049E-01  0.27991367582E-01  0.51100000000E-03 0. -1.
</event>
<event>
 8    1  0.1132255E+005  0.1043930E+01  0.7957747E-01            NaN
         13   -1    0    0    0    0  0.00000000000E+00  0.00000000000E+00  0.74505805969E-08  0.10566000000E+00  0.10566000000E+00 0.  1.
     999900   -1    0    0    0    0 -0.00000000000E+00 -0.00000000000E+00 -0.74505805969E-08  0.93827000000E+00  0.93827000000E+00 0.  1.
     999902    2    1    2    0    0  0.20878814141E-01 -0.64649038948E-02 -0.12311328261E-01  0.10188443733E+01  0.10185355018E+01 0.  0.
     999903    2    3    3    0    0  0.11379436024E+00 -0.48258339659E-01 -0.42137927320E-01  0.13246431037E+00  0.22207314894E-01 0.  0.
         14    1    1    2    0    0 -0.20878814141E-01  0.64649038948E-02  0.12311328261E-01  0.25085626679E-01  0.00000000000E+00 0.  1.
     999901    1    3    3    0    0 -0.92915546099E-01  0.41793435765E-01  0.29826599059E-01  0.88638006295E+00  0.88000000000E+00 0.  1.
        -11    1    4    4    0    0  0.21094826689E-01 -0.10042229025E-01 -0.17547988181E-01  0.29223810275E-01  0.51100000000E-03 0.  1.
         11    1    4    4    0    0  0.92699533551E-01 -0.38216110635E-01 -0.24589939139E-01  0.10324050010E+00  0.51100000000E-03 0. -1.
</event>
<event>
 8    1  0.1132255E+005  0.1043930E+01  0.7957747E-01            NaN
         13   -1    0    0    0    0  0.00000000000E+00  0.00000000000E+00  0.74505805969E-08  0.10566000000E+00  0.10566000000E+00 0.  1.
     999900   -1    0    0    0    0 -0.00000000000E+00 -0.00000000000E+00 -0.74505805969E-08  0.93827000000E+00  0.93827000000E+00 0. -1.
     999902    2    1    2    0    0  0.74186493043E-02  0.67575775619E-02 -0.21903218884E-01  0.10198374242E+01  0.10195528037E+01 0.  0.
     999903    2    3    3    0    0  0.39804666433E-01  0.54138240490E-01  0.10782038529E+00  0.12847779149E+00  0.19129737807E-01 0.  0.
         14    1    1    2    0    0 -0.74186493043E-02 -0.67575775619E-02  0.21903218884E-01  0.24092575817E-01  0.00000000000E+00 0.  1.
     999901    1    3    3    0    0 -0.32386017129E-01 -0.47380662928E-01 -0.12972360417E+00  0.89135963270E+00  0.88000000000E+00 0. -1.
        -11    1    4    4    0    0  0.20076722870E-01  0.22267641734E-01  0.31745646206E-01  0.43668865839E-01  0.51100000000E-03 0. -1.
         11    1    4    4    0    0  0.19727943564E-01  0.31870598756E-01  0.76074739080E-01  0.84808925647E-01  0.51100000000E-03 0.  1.
</event>
<event>
 8    1  0.1132255E+005  0.1043930E+01  0.7957747E-01            NaN
         13   -1    0    0    0    0  0.00000000000E+00  0.00000000000E+00  0.74505805969E-08  0.10566000000E+00  0.10566000000E+00 0.  1.
     999900   -1    0    0    0    0 -0.00000000000E+00 -0.00000000000E+00 -0.74505805969E-08  0.93827000000E+00  0.93827000000E+00 0.  1.
     999902    2    1    2    0    0 -0.10104439176E-02  0.20865872986E-01 -0.10304660155E-01  0.10206364027E+01  0.10203705577E+01 0.  0.
     999903    2    3    3    0    0 -0.10517929802E+00  0.49736701254E-01  0.57524795744E-01  0.13143141514E+00  0.20704844253E-01 0.  0.
         14    1    1    2    0    0  0.10104439176E-02 -0.20865872986E-01  0.10304660155E-01  0.23293597259E-01  0.00000000000E+00 0. -1.
     999901    1    3    3    0    0  0.10416885411E+00 -0.28870828268E-01 -0.67829455899E-01  0.88920498760E+00  0.88000000000E+00 0. -1.
        -11    1    4    4    0    0 -0.89545294463E-01  0.48312860616E-01  0.44616529051E-01  0.11110080129E+00  0.51100000000E-03 0. -1.
         11    1    4    4    0    0 -0.15634003560E-01  0.14238406376E-02  0.12908266693E-01  0.20330613850E-01  0.51100000000E-03 0.  1.
</event>
<event>
 8    1  0.1132255E+005  0.1043930E+01  0.7957747E-01            NaN
         13   -1    0    0    0    0  0.00000000000E+00  0.00000000000E+00  0.74505805969E-08  0.10566000000E+00  0.10566000000E+00 0.  1.
     999900   -1    0    0    0    0 -0.00000000000E+00 -0.00000000000E+00 -0.74505805969E-08  0.93827000000E+00  0.93827000000E+00 0.  1.
     999902    2    1    2    0    0 -0.22037320334E-01  0.73152231246E-02 -0.23149342018E-02  0.10205951570E+01  0.10203283587E+01 0.  0.
     999903    2    3    3    0    0  0.11079852775E+00 -0.52670134439E-01 -0.30862513892E-01  0.12814988140E+00  0.20480247226E-01 0.  0.
         14    1    1    2    0    0  0.22037320334E-01 -0.73152231246E-02  0.23149342018E-02  0.23334842987E-01  0.00000000000E+00 0.  1.
     999901    1    3    3    0    0 -0.13283584808E+00  0.59985357564E-01  0.28547579690E-01  0.89244527561E+00  0.88000000000E+00 0. -1.
        -11    1    4    4    0    0  0.10527583821E+00 -0.44403059978E-01 -0.26558236576E-01  0.11730402763E+00  0.51100000000E-03 0. -1.
         11    1    4    4    0    0  0.55226895349E-02 -0.82670744609E-02 -0.43042773162E-02  0.10845853773E-01  0.51100000000E-03 0.  1.
</event>
<event>
 8    1  0.1132255E+005  0.1043930E+01  0.7957747E-01            NaN
         13   -1    0    0    0    0  0.00000000000E+00  0.00000000000E+00  0.74505805969E-08  0.10566000000E+00  0.10566000000E+00 0.  1.
     999900   -1    0    0    0    0 -0.00000000000E+00 -0.00000000000E+00 -0.74505805969E-08  0.93827000000E+00  0.93827000000E+00 0. -1.
     999902    2    1    2    0    0 -0.75543478953E-02 -0.15119854411E-01  0.16608698092E-01  0.10202334386E+01  0.10199582061E+01 0.  0.
     999903    2    3    3    0    0 -0.31126976372E-01  0.96481626956E-01  0.79912146515E-01  0.13061673123E+00  0.19929533846E-01 0.  0.
         14    1    1    2    0    0  0.75543478953E-02  0.15119854411E-01 -0.16608698092E-01  0.23696561393E-01  0.00000000000E+00 0. -1.
     999901    1    3    3    0    0  0.23572628477E-01 -0.11160148137E+00 -0.63303448423E-01  0.88961670737E+00  0.88000000000E+00 0. -1.
        -11    1    4    4    0    0  0.14357892789E-02  0.99231438997E-02  0.34391709389E-02  0.10612223775E-01  0.51100000000E-03 0.  1.
         11    1    4    4    0    0 -0.32562765651E-01  0.86558483056E-01  0.76472975576E-01  0.12000450746E+00  0.51100000000E-03 0. -1.
</event>
<event>
 8    1  0.1132255E+005  0.1043930E+01  0.7957747E-01            NaN
         13   -1    0    0    0    0  0.00000000000E+00  0.00000000000E+00  0.74505805969E-08  0.10566000000E+00  0.10566000000E+00 0.  1.
     999900   -1    0    0    0    0 -0.00000000000E+00 -0.00000000000E+00 -0.74505805969E-08  0.93827000000E+00  0.93827000000E+00 0. -1.
     999902    2    1    2    0    0 -0.21476608295E-01 -0.94129420764E-02  0.41313750826E-02  0.10201199928E+01  0.10198420874E+01 0.  0.
     999903    2    3    3    0    0 -0.33977878018E-01 -0.82995741755E-01 -0.94121636995E-01  0.13151188766E+00  0.19841993378E-01 0.  0.
         14    1    1    2    0    0  0.21476608295E-01  0.94129420764E-02 -0.41313750826E-02  0.23810007191E-01  0.00000000000E+00 0. -1.
     999901    1    3    3    0    0  0.12501269723E-01  0.73582799679E-01  0.98253012078E-01  0.88860810515E+00  0.88000000000E+00 0.  1.
        -11    1    4    4    0    0 -0.26966588002E-01 -0.74748306969E-01 -0.89620598477E-01  0.11977737289E+00  0.51100000000E-03 0. -1.
         11    1    4    4    0    0 -0.70112900159E-02 -0.82474347856E-02 -0.45010385185E-02  0.11734514774E-01  0.51100000000E-03 0.  1.
</event>
<event>
 8    1  0.1132255E+005  0.1043930E+01  0.7957747E-01            NaN
         13   -1    0    0    0    0  0.00000000000E+00  0.00000000000E+00  0.74505805969E-08  0.10566000000E+00  0.10566000000E+00 0. -1.
     999900   -1    0    0    0    0 -0.00000000000E+00 -0.00000000000E+00 -0.74505805969E-08  0.93827000000E+00  0.93827000000E+00 0. -1.
     999902    2    1    2    0    0  0.17398207027E-01 -0.14288159195E-01  0.41686034646E-03  0.10214128316E+01  0.10211646046E+01 0.  0.
     999903    2    3    3    0    0 -0.99644331883E-01  0.76885956549E-01  0.18926562555E-01  0.12880189485E+00  0.19780549955E-01 0.  0.
         14    1    1    2    0    0 -0.17398207027E-01  0.14288159195E-01 -0.41686034646E-03  0.22517168416E-01  0.00000000000E+00 0.  1.
     999901    1    3    3    0    0  0.11704253891E+00 -0.91174115744E-01 -0.18509702208E-01  0.89261093673E+00  0.88000000000E+00 0. -1.
        -11    1    4    4    0    0 -0.94680197287E-01  0.66178088533E-01  0.15893228597E-01  0.11660503847E+00  0.51100000000E-03 0. -1.
         11    1    4    4    0    0 -0.49641345967E-02  0.10707868016E-01  0.30333339577E-02  0.12196856383E-01  0.51100000000E-03 0.  1.
</event>
<event>
 8    1  0.1132255E+005  0.1043930E+01  0.7957747E-01            NaN
         13   -1    0    0    0    0  0.00000000000E+00  0.00000000000E+00  0.74505805969E-08  0.10566000000E+00  0.10566000000E+00 0.  1.
     999900   -1    0    0    0    0 -0.00000000000E+00 -0.00000000000E+00 -0.74505805969E-08  0.93827000000E+00  0.93827000000E+00 0.  1.
     999902    2    1    2    0    0 -0.65935022201E-02 -0.19196583585E-01  0.96337737271E-02  0.10214624080E+01  0.10212152850E+01 0.  0.
     999903    2    3    3    0    0  0.40049281096E-02 -0.34025894542E-01  0.12739177682E+00  0.13343133735E+00  0.20036367888E-01 0.  0.
         14    1    1    2    0    0  0.65935022201E-02  0.19196583585E-01 -0.96337737271E-02  0.22467591974E-01  0.00000000000E+00 0. -1.
     999901    1    3    3    0    0 -0.10598430330E-01  0.14829310956E-01 -0.11775800309E+00  0.88803107067E+00  0.88000000000E+00 0.  1.
        -11    1    4    4    0    0  0.86406681826E-02 -0.31489112543E-01  0.91587307843E-01  0.97235391881E-01  0.51100000000E-03 0.  1.
         11    1    4    4    0    0 -0.46357400729E-02 -0.25367819990E-02  0.35804468977E-01  0.36195945472E-01  0.51100000000E-03 0. -1.
</event>
<event>
 8    1  0.1132255E+005  0.1043930E+01  0.7957747E-01            NaN
         13   -1    0    0    0    0  0.00000000000E+00  0.00000000000E+00  0.74505805969E-08  0.10566000000E+00  0.10566000000E+00 0.  1.
     999900   -1    0    0    0    0 -0.00000000000E+00 -0.00000000000E+00 -0.74505805969E-08  0.93827000000E+00  0.93827000000E+00 0.  1.
     999902    2    1    2    0    0  0.15430595001E-02  0.17473945637E-01 -0.13975905889E-01  0.10215013185E+01  0.10212550602E+01 0.  0.
     999903    2    3    3    0    0 -0.58509546213E-01  0.85350803486E-01  0.79243892646E-01  0.13194889501E+00  0.20561851063E-01 0.  0.
         14    1    1    2    0    0 -0.15430595001E-02 -0.17473945637E-01  0.13975905889E-01  0.22428681507E-01  0.00000000000E+00 0. -1.
     999901    1    3    3    0    0  0.60052605713E-01 -0.67876857849E-01 -0.93219798534E-01  0.88955242348E+00  0.88000000000E+00 0.  1.
        -11    1    4    4    0    0 -0.48364315012E-01  0.58939741011E-01  0.65379520472E-01  0.10043775612E+00  0.51100000000E-03 0. -1.
         11    1    4    4    0    0 -0.10145231201E-01  0.26411062475E-01  0.13864372173E-01  0.31511138887E-01  0.51100000000E-03 0.  1.
</event>
<event>
 8    1  0.1132255E+005  0.1043930E+01  0.7957747E-01            NaN
         13   -1    0    0    0    0  0.00000000000E+00  0.00000000000E+00  0.74505805969E-08  0.10566000000E+00  0.10566000000E+00 0. -1.
     999900   -1    0    0    0    0 -0.00000000000E+00 -0.00000000000E+00 -0.74505805969E-08  0.93827000000E+00  0.93827000000E+00 0. -1.
     999902    2    1    2    0    0  0.15186563970E-01 -0.13429169178E-01  0.11172480766E-01  0.10207826754E+01  0.10205201966E+01 0.  0.
     999903    2    3    3    0    0  0.12023515740E+00  0.46196922066E-01  0.22978730771E-01  0.13245285754E+00  0.20617679792E-01 0.  0.
         14    1    1    2    0    0 -0.15186563970E-01  0.13429169178E-01 -0.11172480766E-01  0.23147324607E-01  0.00000000000E+00 0.  1.
     999901    1    3    3    0    0 -0.10504859343E+00 -0.59626091244E-01 -0.11806250006E-01  0.88832981785E+00  0.88000000000E+00 0. -1.
        -11    1    4    4    0    0  0.70760844650E-01  0.32523341786E-01  0.22702602245E-01  0.81120491654E-01  0.51100000000E-03 0.  1.
         11    1    4    4    0    0  0.49474312752E-01  0.13673580280E-01  0.27612852630E-03  0.51332365890E-01  0.51100000000E-03 0. -1.
</event>
<event>
 8    1  0.1132255E+005  0.1043930E+01  0.7957747E-01            NaN
         13   -1    0    0    0    0  0.00000000000E+00  0.00000000000E+00  0.74505805969E-08  0.10566000000E+00  0.10566000000E+00 0.  1.
     999900   -1    0    0    0    0 -0.00000000000E+00 -0.00000000000E+00 -0.74505805969E-08  0.93827000000E+00  0.93827000000E+00 0.  1.
     999902    2    1    2    0    0 -0.42327543110E-02 -0.64891109096E-02 -0.20856668126E-01  0.10216808343E+01  0.10214385453E+01 0.  0.
     999903    2    3    3    0    0 -0.95528345560E-02  0.10108482987E+00  0.78308561649E-01  0.12958543649E+00  0.18728455454E-01 0.  0.
         14    1    1    2    0    0  0.42327543110E-02  0.64891109096E-02  0.20856668126E-01  0.22249165710E-01  0.00000000000E+00 0.  1.
     999901    1    3    3    0    0  0.53200802450E-02 -0.10757394078E+00 -0.99165229776E-01  0.89209539781E+00  0.88000000000E+00 0.  1.
        -11    1    4    4    0    0  0.21182928223E-02  0.62462310985E-01  0.53066419473E-01  0.81989837509E-01  0.51100000000E-03 0. -1.
         11    1    4    4    0    0 -0.11671127378E-01  0.38622518884E-01  0.25242142176E-01  0.47595598976E-01  0.51100000000E-03 0.  1.
</event>
<event>
 8    1  0.1132255E+005  0.1043930E+01  0.7957747E-01            NaN
         13   -1    0    0    0    0  0.00000000000E+00  0.00000000000E+00  0.74505805969E-08  0.10566000000E+00  0.10566000000E+00 0. -1.
     999900   -1    0    0    0    0 -0.00000000000E+00 -0.00000000000E+00 -0.74505805969E-08  0.93827000000E+00  0.93827000000E+00 0. -1.
     999902    2    1    2    0    0  0.21181462626E-02  0.22714452151E-01 -0.34872669412E-02  0.10208520038E+01  0.10205911129E+01 0.  0.
     999903    2    3    3    0    0 -0.11086881766E+00  0.54038663533E-01  0.42415941669E-01  0.13188948216E+00  0.19587024061E-01 0.  0.
         14    1    1    2    0    0 -0.21181462626E-02 -0.22714452151E-01  0.34872669412E-02  0.23077996248E-01  0.00000000000E+00 0.  1.
     999901    1    3    3    0    0  0.11298696392E+00 -0.31324211382E-01 -0.45903208610E-01  0.88896252159E+00  0.88000000000E+00 0.  1.
        -11    1    4    4    0    0 -0.95503991937E-01  0.42966001787E-01  0.42294678243E-01  0.11294330752E+00  0.51100000000E-03 0. -1.
         11    1    4    4    0    0 -0.15364825721E-01  0.11072661746E-01  0.12126342541E-03  0.18946174637E-01  0.51100000000E-03 0.  1.
</event>
<event>
 8    1  0.1132255E+005  0.1043930E+01  0.7957747E-01            NaN
         13   -1    0    0    0    0  0.00000000000E+00  0.00000000000E+00  0.74505805969E-08  0.10566000000E+00  0.10566000000E+00 0.  1.
     999900   -1    0    0    0    0 -0.00000000000E+00 -0.00000000000E+00 -0.74505805969E-08  0.93827000000E+00  0.93827000000E+00 0.  1.
     999902    2    1    2    0    0  0.23264559637E-01 -0.10755904448E-03 -0.34493527516E-02  0.10204108729E+01  0.10201397945E+01 0.  0.
     999903    2    3    3    0    0 -0.33641460235E-02  0.10433158811E+00 -0.75966602963E-01  0.13087426603E+00  0.21465110907E-01 0.  0.
         14    1    1    2    0    0 -0.23264559637E-01  0.10755904448E-03  0.34493527516E-02  0.23519127077E-01  0.00000000000E+00 0. -1.
     999901    1    3    3    0    0  0.26628705661E-01 -0.10443914716E+00  0.72517250211E-01  0.88953660689E+00  0.88000000000E+00 0. -1.
        -11    1    4    4    0    0  0.43537691406E-02  0.86179191565E-01 -0.56409583377E-01  0.10309272808E+00  0.51100000000E-03 0.  1.
         11    1    4    4    0    0 -0.77179151641E-02  0.18152396549E-01 -0.19557019586E-01  0.27781537953E-01  0.51100000000E-03 0. -1.
</event>
<event>
 8    1  0.1132255E+005  0.1043930E+01  0.7957747E-01            NaN
         13   -1    0    0    0    0  0.00000000000E+00  0.00000000000E+00  0.74505805969E-08  0.10566000000E+00  0.10566000000E+00 0. -1.
     999900   -1    0    0    0    0 -0.00000000000E+00 -0.00000000000E+00 -0.74505805969E-08  0.93827000000E+00  0.93827000000E+00 0. -1.
     999902    2    1    2    0    0 -0.10516208633E-01  0.13369591184E-01 -0.16415594423E-01  0.10202908724E+01  0.10200169881E+01 0.  0.
     999903    2    3    3    0    0 -0.84931426063E-01 -0.95555038101E-01 -0.16272861984E-01  0.13045818038E+00  0.20258784555E-01 0.  0.
         14    1    1    2    0    0  0.10516208633E-01 -0.13369591184E-01  0.16415594423E-01  0.23639127579E-01  0.00000000000E+00 0. -1.
     999901    1    3    3    0    0  0.74415217430E-01  0.10892462929E+00 -0.14273243828E-03  0.88983269204E+00  0.88000000000E+00 0.  1.
        -11    1    4    4    0    0 -0.36178593605E-01 -0.28194467511E-01 -0.80063131825E-03  0.45877235804E-01  0.51100000000E-03 0.  1.
         11    1    4    4    0    0 -0.48752832458E-01 -0.67360570590E-01 -0.15472230666E-01  0.84580944578E-01  0.51100000000E-03 0. -1.
</event>
<event>
 8    1  0.1132255E+005  0.1043930E+01  0.7957747E-01            NaN
         13   -1    0    0    0    0  0.00000000000E+00  0.00000000000E+00  0.74505805969E-08  0.10566000000E+00  0.10566000000E+00 0. -1.
     999900   -1    0    0    0    0 -0.00000000000E+00 -0.00000000000E+00 -0.74505805969E-08  0.93827000000E+00  0.93827000000E+00 0. -1.
     999902    2    1    2    0    0  0.14453526168E-01 -0.17312654124E-01  0.44253883634E-02  0.10209470395E+01  0.10206883173E+01 0.  0.
     999903    2    3    3    0    0 -0.32728359541E-01 -0.34068823281E-01 -0.12025303147E+00  0.13074952887E+00  0.20070313495E-01 0.  0.
         14    1    1    2    0    0 -0.14453526168E-01  0.17312654124E-01 -0.44253883634E-02  0.22982960507E-01  0.00000000000E+00 0.  1.
     999901    1    3    3    0    0  0.47181885709E-01  0.16756169156E-01  0.12467841984E+00  0.89019751062E+00  0.88000000000E+00 0.  1.
        -11    1    4    4    0    0 -0.62223336615E-02 -0.20381609940E-01 -0.44836572887E-01  0.49645814015E-01  0.51100000000E-03 0. -1.
         11    1    4    4    0    0 -0.26506025880E-01 -0.13687213341E-01 -0.75416458585E-01  0.81103714857E-01  0.51100000000E-03 0.  1.
</event>
<event>
 8    1  0.1132255E+005  0.1043930E+01  0.7957747E-01            NaN
         13   -1    0    0    0    0  0.00000000000E+00  0.00000000000E+00  0.74505805969E-08  0.10566000000E+00  0.10566000000E+00 0. -1.
     999900   -1    0    0    0    0 -0.00000000000E+00 -0.00000000000E+00 -0.74505805969E-08  0.93827000000E+00  0.93827000000E+00 0. -1.
     999902    2    1    2    0    0  0.75789211112E-02  0.24197242979E-01  0.47369710006E-03  0.10185691837E+01  0.10182534120E+01 0.  0.
     999903    2    3    3    0    0 -0.10267257144E+00  0.71386271494E-01 -0.29626992661E-01  0.12992513376E+00  0.19108244417E-01 0.  0.
         14    1    1    2    0    0 -0.75789211112E-02 -0.24197242979E-01 -0.47369710006E-03  0.25360816271E-01  0.00000000000E+00 0.  1.
     999901    1    3    3    0    0  0.11025149255E+00 -0.47189028515E-01  0.30100689761E-01  0.88864404997E+00  0.88000000000E+00 0. -1.
        -11    1    4    4    0    0 -0.18716586557E-01  0.47574748632E-02 -0.46182756226E-02  0.19862874166E-01  0.51100000000E-03 0. -1.
         11    1    4    4    0    0 -0.83955984882E-01  0.66628796631E-01 -0.25008717039E-01  0.11006225959E+00  0.51100000000E-03 0.  1.
</event>
<event>
 8    1  0.1132255E+005  0.1043930E+01  0.7957747E-01            NaN
         13   -1    0    0    0    0  0.00000000000E+00  0.00000000000E+00  0.74505805969E-08  0.10566000000E+00  0.10566000000E+00 0. -1.
     999900   -1    0    0    0    0 -0.00000000000E+00 -0.00000000000E+00 -0.74505805969E-08  0.93827000000E+00  0.93827000000E+00 0.  1.
     999902    2    1    2    0    0 -0.46974360276E-02  0.24390632032E-03  0.23780166428E-01  0.10196890901E+01  0.10194009117E+01 0.  0.
     999903    2    3    3    0    0  0.24203359483E-01  0.53270318296E-01 -0.11247014427E+00  0.12715830439E+00  0.98067120500E-02 0.  0.
         14    1    1    2    0    0  0.46974360276E-02 -0.24390632032E-03 -0.23780166428E-01  0.24240909861E-01  0.00000000000E+00 0.  1.
     999901    1    3    3    0    0 -0.28900795510E-01 -0.53026411976E-01  0.13625031070E+00  0.89253078575E+00  0.88000000000E+00 0. -1.
        -11    1    4    4    0    0  0.14784970605E-01  0.24434364001E-01 -0.46981643675E-01  0.54983356239E-01  0.51100000000E-03 0. -1.
         11    1    4    4    0    0  0.94183888774E-02  0.28835954295E-01 -0.65488500595E-01  0.72174948149E-01  0.51100000000E-03 0.  1.
</event>
<event>
 8    1  0.1132255E+005  0.1043930E+01  0.7957747E-01            NaN
         13   -1    0    0    0    0  0.00000000000E+00  0.00000000000E+00  0.74505805969E-08  0.10566000000E+00  0.10566000000E+00 0.  1.
     999900   -1    0    0    0    0 -0.00000000000E+00 -0.00000000000E+00 -0.74505805969E-08  0.93827000000E+00  0.93827000000E+00 0.  1.
     999902    2    1    2    0    0  0.11928241805E-01 -0.19902887107E-01 -0.87775092338E-02  0.10191216841E+01  0.10188196870E+01 0.  0.
     999903    2    3    3    0    0  0.12438991905E+00 -0.73820681180E-02 -0.38094159592E-01  0.13139207116E+00  0.16892734471E-01 0.  0.
         14    1    1    2    0    0 -0.11928241805E-01  0.19902887107E-01  0.87775092338E-02  0.24808315866E-01  0.00000000000E+00 0.  1.
     999901    1    3    3    0    0 -0.11246167725E+00 -0.12520818989E-01  0.29316650358E-01  0.88772961297E+00  0.88000000000E+00 0.  1.
        -11    1    4    4    0    0  0.40510143146E-01 -0.96420840813E-02 -0.16071440750E-01  0.44638479050E-01  0.51100000000E-03 0.  1.
         11    1    4    4    0    0  0.83879775906E-01  0.22600159633E-02 -0.22022718842E-01  0.86753592113E-01  0.51100000000E-03 0. -1.
</event>
<event>
 8    1  0.1132255E+005  0.1043930E+01  0.7957747E-01            NaN
         13   -1    0    0    0    0  0.00000000000E+00  0.00000000000E+00  0.74505805969E-08  0.10566000000E+00  0.10566000000E+00 0. -1.
     999900   -1    0    0    0    0 -0.00000000000E+00 -0.00000000000E+00 -0.74505805969E-08  0.93827000000E+00  0.93827000000E+00 0.  1.
     999902    2    1    2    0    0 -0.56484472600E-02 -0.90179263303E-02  0.21176347276E-01  0.10202305140E+01  0.10199552128E+01 0.  0.
     999903    2    3    3    0    0 -0.63531274092E-01 -0.60616367592E-01 -0.93089528551E-01  0.12946145800E+00  0.19596988906E-01 0.  0.
         14    1    1    2    0    0  0.56484472600E-02  0.90179263303E-02 -0.21176347276E-01  0.23699485979E-01  0.00000000000E+00 0.  1.
     999901    1    3    3    0    0  0.57882826832E-01  0.51598441262E-01  0.11426587583E+00  0.89076905602E+00  0.88000000000E+00 0. -1.
        -11    1    4    4    0    0 -0.37793116311E-01 -0.23908475405E-01 -0.40303966873E-01  0.60204698349E-01  0.51100000000E-03 0. -1.
         11    1    4    4    0    0 -0.25738157781E-01 -0.36707892187E-01 -0.52785561678E-01  0.69256759652E-01  0.51100000000E-03 0.  1.
</event>
<event>
 8    1  0.1132255E+005  0.1043930E+01  0.7957747E-01            NaN
         13   -1    0    0    0    0  0.00000000000E+00  0.00000000000E+00  0.74505805969E-08  0.10566000000E+00  0.10566000000E+00 0. -1.
     999900   -1    0    0    0    0 -0.00000000000E+00 -0.00000000000E+00 -0.74505805969E-08  0.93827000000E+00  0.93827000000E+00 0.  1.
     999902    2    1    2    0    0  0.41562099464E-02  0.20924491729E-01 -0.49459588747E-02  0.10220308917E+01  0.10217962481E+01 0.  0.
     999903    2    3    3    0    0  0.81073059897E-01 -0.30738051489E-01  0.96636694637E-01  0.13135460052E+00  0.19942704833E-01 0.  0.
         14    1    1    2    0    0 -0.41562099464E-02 -0.20924491729E-01  0.49459588747E-02  0.21899108302E-01  0.00000000000E+00 0. -1.
     999901    1    3    3    0    0 -0.76916849950E-01  0.51662543218E-01 -0.10158265351E+00  0.89067629118E+00  0.88000000000E+00 0.  1.
        -11    1    4    4    0    0  0.68416473282E-02 -0.76250412300E-02  0.18340464026E-01  0.21013879547E-01  0.51100000000E-03 0. -1.
         11    1    4    4    0    0  0.74231412568E-01 -0.23113010259E-01  0.78296230611E-01  0.11034072097E+00  0.51100000000E-03 0.  1.
</event>
<event>
 8    1  0.1132255E+005  0.1043930E+01  0.7957747E-01            NaN
         13   -1    0    0    0    0  0.00000000000E+00  0.00000000000E+00  0.74505805969E-08  0.10566000000E+00  0.10566000000E+00 0. -1.
     999900   -1    0    0    0    0 -0.00000000000E+00 -0.00000000000E+00 -0.74505805969E-08  0.93827000000E+00  0.93827000000E+00 0.  1.
     999902    2    1    2    0    0 -0.62099401924E-02 -0.87113816063E-03  0.21437222809E-01  0.10215944507E+01  0.10213502558E+01 0.  0.
     999903    2    3    3    0    0  0.73726733574E-01 -0.58261839449E-01  0.92490742597E-01  0.13326333732E+00  0.19352168532E-01 0.  0.
         14    1    1    2    0    0  0.62099401924E-02  0.87113816063E-03 -0.21437222809E-01  0.22335549258E-01  0.00000000000E+00 0.  1.
     999901    1    3    3    0    0 -0.79936673767E-01  0.57390701289E-01 -0.71053519788E-01  0.88833111343E+00  0.88000000000E+00 0. -1.
        -11    1    4    4    0    0  0.14516882299E-01 -0.22337271359E-01  0.24039065514E-01  0.35886367262E-01  0.51100000000E-03 0. -1.
         11    1    4    4    0    0  0.59209851276E-01 -0.35924568091E-01  0.68451677082E-01  0.97376970054E-01  0.51100000000E-03 0.  1.
</event>
<event>
 8    1  0.1132255E+005  0.1043930E+01  0.7957747E-01            NaN
         13   -1    0    0    0    0  0.00000000000E+00  0.00000000000E+00  0.74505805969E-08  0.10566000000E+00  0.10566000000E+00 0.  1.
     999900   -1    0    0    0    0 -0.00000000000E+00 -0.00000000000E+00 -0.74505805969E-08  0.93827000000E+00  0.93827000000E+00 0.  1.
     999902    2    1    2    0    0 -0.97408134522E-02  0.15027649359E-01 -0.14581013541E-01  0.10208362855E+01  0.10205750351E+01 0.  0.
     999903    2    3    3    0    0 -0.77439225684E-01  0.97807246549E-01  0.40506882391E-01  0.13265262603E+00  0.19819700292E-01 0.  0.
         14    1    1    2    0    0  0.97408134522E-02 -0.15027649359E-01  0.14581013541E-01  0.23093714467E-01  0.00000000000E+00 0.  1.
     999901    1    3    3    0    0  0.67698412232E-01 -0.82779597190E-01 -0.55087895932E-01  0.88818365950E+00  0.88000000000E+00 0.  1.
        -11    1    4    4    0    0 -0.58843296344E-01  0.61421132217E-01  0.22439029840E-01  0.87970791679E-01  0.51100000000E-03 0.  1.
         11    1    4    4    0    0 -0.18595929340E-01  0.36386114332E-01  0.18067852551E-01  0.44681834351E-01  0.51100000000E-03 0. -1.
</event>
<event>
 8    1  0.1132255E+005  0.1043930E+01  0.7957747E-01            NaN
         13   -1    0    0    0    0  0.00000000000E+00  0.00000000000E+00  0.74505805969E-08  0.10566000000E+00  0.10566000000E+00 0. -1.
     999900   -1    0    0    0    0 -0.00000000000E+00 -0.00000000000E+00 -0.74505805969E-08  0.93827000000E+00  0.93827000000E+00 0.  1.
     999902    2    1    2    0    0  0.38038068679E-02 -0.40885293692E-02 -0.23698448259E-01  0.10195824854E+01  0.10192917360E+01 0.  0.
     999903    2    3    3    0    0  0.75699177173E-01 -0.10192500301E+00 -0.26661583431E-01  0.13124150352E+00  0.19860024008E-01 0.  0.
         14    1    1    2    0    0 -0.38038068679E-02  0.40885293692E-02  0.23698448259E-01  0.24347514637E-01  0.00000000000E+00 0. -1.
     999901    1    3    3    0    0 -0.71895370305E-01  0.97836473638E-01  0.29631351715E-02  0.88834098184E+00  0.88000000000E+00 0. -1.
        -11    1    4    4    0    0  0.30691956500E-01 -0.41324782035E-01 -0.92077953907E-03  0.51486335663E-01  0.51100000000E-03 0.  1.
         11    1    4    4    0    0  0.45007220673E-01 -0.60600220972E-01 -0.25740803892E-01  0.79755167861E-01  0.51100000000E-03 0. -1.
</event>
<event>
 8    1  0.1132255E+005  0.1043930E+01  0.7957747E-01            NaN
         13   -1    0    0    0    0  0.00000000000E+00  0.00000000000E+00  0.74505805969E-08  0.10566000000E+00  0.10566000000E+00 0. -1.
     999900   -1    0    0    0    0 -0.00000000000E+00 -0.00000000000E+00 -0.74505805969E-08  0.93827000000E+00  0.93827000000E+00 0.  1.
     999902    2    1    2    0    0 -0.14330877813E-01 -0.95325078833E-02 -0.16790954967E-01  0.10198846484E+01  0.10196011559E+01 0.  0.
     999903    2    3    3    0    0  0.86810504085E-01  0.77259738685E-01 -0.54372498217E-01  0.12905646878E+00  0.13930998871E-01 0.  0.
         14    1    1    2    0    0  0.14330877813E-01  0.95325078833E-02  0.16790954967E-01  0.24045351612E-01  0.00000000000E+00 0.  1.
     999901    1    3    3    0    0 -0.10114138190E+00 -0.86792246568E-01  0.37581543250E-01  0.89082817961E+00  0.88000000000E+00 0. -1.
        -11    1    4    4    0    0  0.32454135226E-01  0.22154786301E-01 -0.13708216168E-01  0.41620689096E-01  0.51100000000E-03 0. -1.
         11    1    4    4    0    0  0.54356368859E-01  0.55104952384E-01 -0.40664282050E-01  0.87435779680E-01  0.51100000000E-03 0.  1.
</event>
<event>
 8    1  0.1132255E+005  0.1043930E+01  0.7957747E-01            NaN
         13   -1    0    0    0    0  0.00000000000E+00  0.00000000000E+00  0.74505805969E-08  0.10566000000E+00  0.10566000000E+00 0. -1.
     999900   -1    0    0    0    0 -0.00000000000E+00 -0.00000000000E+00 -0.74505805969E-08  0.93827000000E+00  0.93827000000E+00 0.  1.
     999902    2    1    2    0    0  0.11880778699E-01 -0.43074253100E-02 -0.13595928357E-02  0.10312195591E+01  0.10311412240E+01 0.  0.
     999903    2    3    3    0    0  0.49130559486E-01 -0.77866442384E-01  0.10493318201E+00  0.14099676162E+00  0.19802004318E-01 0.  0.
         14    1    1    2    0    0 -0.11880778699E-01  0.43074253100E-02  0.13595928357E-02  0.12710440904E-01  0.00000000000E+00 0.  1.
     999901    1    3    3    0    0 -0.37249780787E-01  0.73559017074E-01 -0.10629277485E+00  0.89022279748E+00  0.88000000000E+00 0.  1.
        -11    1    4    4    0    0  0.11086695450E-01 -0.56140233871E-02  0.15912436900E-01  0.20196505729E-01  0.51100000000E-03 0. -1.
         11    1    4    4    0    0  0.38043864036E-01 -0.72252418997E-01  0.89020745112E-01  0.12080025589E+00  0.51100000000E-03 0.  1.
</event>
<event>
 8    1  0.1132255E+005  0.1043930E+01  0.7957747E-01            NaN
         13   -1    0    0    0    0  0.00000000000E+00  0.00000000000E+00  0.74505805969E-08  0.10566000000E+00  0.10566000000E+00 0. -1.
     999900   -1    0    0    0    0 -0.00000000000E+00 -0.00000000000E+00 -0.74505805969E-08  0.93827000000E+00  0.93827000000E+00 0. -1.
     999902    2    1    2    0    0 -0.10305856175E-01  0.98065668214E-03  0.31761582674E-01  0.10105238555E+01  0.10099715303E+01 0.  0.
     999903    2    3    3    0    0 -0.13909098441E-01  0.11449221178E+00 -0.30371673934E-01  0.12105300261E+00  0.20723447702E-01 0.  0.
         14    1    1    2    0    0  0.10305856175E-01 -0.98065668214E-03 -0.31761582674E-01  0.33406144540E-01  0.00000000000E+00 0.  1.
     999901    1    3    3    0    0  0.36032422662E-02 -0.11351155510E+00  0.62133256608E-01  0.88947085285E+00  0.88000000000E+00 0.  1.
        -11    1    4    4    0    0  0.46050293165E-02  0.11209488398E-01 -0.48542857247E-02  0.13064613888E-01  0.51100000000E-03 0. -1.
         11    1    4    4    0    0 -0.18514127758E-01  0.10328272339E+00 -0.25517388209E-01  0.10798838872E+00  0.51100000000E-03 0.  1.
</event>
<event>
 8    1  0.1132255E+005  0.1043930E+01  0.7957747E-01            NaN
         13   -1    0    0    0    0  0.00000000000E+00  0.00000000000E+00  0.74505805969E-08  0.10566000000E+00  0.10566000000E+00 0. -1.
     999900   -1    0    0    0    0 -0.00000000000E+00 -0.00000000000E+00 -0.74505805969E-08  0.93827000000E+00  0.93827000000E+00 0. -1.
     999902    2    1    2    0    0 -0.65679800156E-02 -0.21616399879E-01 -0.84928725036E-02  0.10197942177E+01  0.10195085632E+01 0.  0.
     999903    2    3    3    0    0 -0.12500908434E+00 -0.65638120452E-02 -0.34489778194E-01  0.13135135811E+00  0.19831280411E-01 0.  0.
         14    1    1    2    0    0  0.65679800156E-02  0.21616399879E-01  0.84928725036E-02  0.24135782328E-01  0.00000000000E+00 0. -1.
     999901    1    3    3    0    0  0.11844110432E+00 -0.15052587834E-01  0.25996905690E-01  0.88844285956E+00  0.88000000000E+00 0.  1.
        -11    1    4    4    0    0 -0.95682951532E-01 -0.10000014089E-01 -0.19222293574E-01  0.98107008857E-01  0.51100000000E-03 0.  1.
         11    1    4    4    0    0 -0.29326132807E-01  0.34362020439E-02 -0.15267484620E-01  0.33244349257E-01  0.51100000000E-03 0. -1.
</event>
<event>
 8    1  0.1132255E+005  0.1043930E+01  0.7957747E-01            NaN
         13   -1    0    0    0    0  0.00000000000E+00  0.00000000000E+00  0.74505805969E-08  0.10566000000E+00  0.10566000000E+00 0.  1.
     999900   -1    0    0    0    0 -0.00000000000E+00 -0.00000000000E+00 -0.74505805969E-08  0.93827000000E+00  0.93827000000E+00 0.  1.
     999902    2    1    2    0    0  0.20519260657E-01  0.11000650288E-01 -0.17114128547E-02  0.10205851226E+01  0.10203180922E+01 0.  0.
     999903    2    3    3    0    0 -0.29660237398E-01  0.19911870223E-01 -0.12405431152E+00  0.13066086929E+00  0.20163786758E-01 0.  0.
         14    1    1    2    0    0 -0.20519260657E-01 -0.11000650288E-01  0.17114128547E-02  0.23344877353E-01  0.00000000000E+00 0.  1.
     999901    1    3    3    0    0  0.50179498055E-01 -0.89112199351E-02  0.12234289867E+00  0.88992425336E+00  0.88000000000E+00 0. -1.
        -11    1    4    4    0    0 -0.10920006722E-01 -0.30758867168E-02 -0.34977571452E-01  0.36774981327E-01  0.51100000000E-03 0.  1.
         11    1    4    4    0    0 -0.18740230676E-01  0.22987756940E-01 -0.89076740072E-01  0.93885887959E-01  0.51100000000E-03 0. -1.
</event>
<event>
 8    1  0.1132255E+005  0.1043930E+01  0.7957747E-01            NaN
         13   -1    0    0    0    0  0.00000000000E+00  0.00000000000E+00  0.74505805969E-08  0.10566000000E+00  0.10566000000E+00 0.  1.
     999900   -1    0    0    0    0 -0.00000000000E+00 -0.00000000000E+00 -0.74505805969E-08  0.93827000000E+00  0.93827000000E+00 0.  1.
     999902    2    1    2    0    0 -0.19180980798E-01 -0.12425882019E-02 -0.13905557553E-01  0.10202062022E+01  0.10199303292E+01 0.  0.
     999903    2    3    3    0    0 -0.99442774443E-01  0.67818832459E-01  0.49438706919E-01  0.13159834092E+00  0.19638690521E-01 0.  0.
         14    1    1    2    0    0  0.19180980798E-01  0.12425882019E-02  0.13905557553E-01  0.23723797771E-01  0.00000000000E+00 0.  1.
     999901    1    3    3    0    0  0.80261793645E-01 -0.69061420661E-01 -0.63344264472E-01  0.88860786131E+00  0.88000000000E+00 0.  1.
        -11    1    4    4    0    0 -0.13956347675E-01  0.12644273820E-01  0.88457681380E-03  0.18860034412E-01  0.51100000000E-03 0.  1.
         11    1    4    4    0    0 -0.85486426768E-01  0.55174558639E-01  0.48554130105E-01  0.11273830651E+00  0.51100000000E-03 0. -1.
</event>
<event>
 8    1  0.1132255E+005  0.1043930E+01  0.7957747E-01            NaN
         13   -1    0    0    0    0  0.00000000000E+00  0.00000000000E+00  0.74505805969E-08  0.10566000000E+00  0.10566000000E+00 0. -1.
     999900   -1    0    0    0    0 -0.00000000000E+00 -0.00000000000E+00 -0.74505805969E-08  0.93827000000E+00  0.93827000000E+00 0. -1.
     999902    2    1    2    0    0 -0.20614553103E-02  0.24718068979E-02 -0.22624216961E-01  0.10210779843E+01  0.10208222350E+01 0.  0.
     999903    2    3    3    0    0  0.62522913071E-01 -0.10615564675E+00 -0.41560849411E-01  0.13184817130E+00  0.21874644591E-01 0.  0.
         14    1    1    2    0    0  0.20614553103E-02 -0.24718068979E-02  0.22624216961E-01  0.22852015676E-01  0.00000000000E+00 0. -1.
     999901    1    3    3    0    0 -0.64584368381E-01  0.10862745364E+00  0.18936632450E-01  0.88922981303E+00  0.88000000000E+00 0.  1.
        -11    1    4    4    0    0  0.39907894387E-02 -0.16594234100E-01 -0.23438178671E-04  0.17075030778E-01  0.51100000000E-03 0. -1.
         11    1    4    4    0    0  0.58532123632E-01 -0.89561412646E-01 -0.41537411233E-01  0.11477314052E+00  0.51100000000E-03 0.  1.
</event>
<event>
 8    1  0.1132255E+005  0.1043930E+01  0.7957747E-01            NaN
         13   -1    0    0    0    0  0.00000000000E+00  0.00000000000E+00  0.74505805969E-08  0.10566000000E+00  0.10566000000E+00 0. -1.
     999900   -1    0    0    0    0 -0.00000000000E+00 -0.00000000000E+00 -0.74505805969E-08  0.93827000000E+00  0.93827000000E+00 0. -1.
     999902    2    1    2    0    0  0.16375788613E-01  0.37071668895E-02  0.16714302404E-01  0.10202387053E+01  0.10199635966E+01 0.  0.
     999903    2    3    3    0    0 -0.51449046056E-01 -0.10747389315E-01 -0.11475712712E+00  0.12777364764E+00  0.19859408081E-01 0.  0.
         14    1    1    2    0    0 -0.16375788613E-01 -0.37071668895E-02 -0.16714302404E-01  0.23691294686E-01  0.00000000000E+00 0. -1.
     999901    1    3    3    0    0  0.67824834669E-01  0.14454556204E-01  0.13147142952E+00  0.89246505768E+00  0.88000000000E+00 0.  1.
        -11    1    4    4    0    0 -0.22245865059E-01 -0.94677591486E-03 -0.69848432321E-01  0.73313296990E-01  0.51100000000E-03 0. -1.
         11    1    4    4    0    0 -0.29203180998E-01 -0.98006133999E-02 -0.44908694795E-01  0.54460350647E-01  0.51100000000E-03 0.  1.
</event>
<event>
 8    1  0.1132255E+005  0.1043930E+01  0.7957747E-01            NaN
         13   -1    0    0    0    0  0.00000000000E+00  0.00000000000E+00  0.74505805969E-08  0.10566000000E+00  0.10566000000E+00 0. -1.
     999900   -1    0    0    0    0 -0.00000000000E+00 -0.00000000000E+00 -0.74505805969E-08  0.93827000000E+00  0.93827000000E+00 0.  1.
     999902    2    1    2    0    0 -0.16955947213E-01  0.16695193895E-01 -0.15008338216E-02  0.10200870525E+01  0.10198083685E+01 0.  0.
     999903    2    3    3    0    0 -0.71424893605E-01 -0.37880985501E-01  0.10077926090E+00  0.13081395422E+00  0.20477956526E-01 0.  0.
         14    1    1    2    0    0  0.16955947213E-01 -0.16695193895E-01  0.15008338216E-02  0.23842947537E-01  0.00000000000E+00 0. -1.
     999901    1    3    3    0    0  0.54468946392E-01  0.54576179396E-01 -0.10228009472E+00  0.88927309824E+00  0.88000000000E+00 0.  1.
        -11    1    4    4    0    0 -0.52341742489E-01 -0.34328341617E-01  0.86207058664E-01  0.10653643100E+00  0.51100000000E-03 0. -1.
         11    1    4    4    0    0 -0.19083151116E-01 -0.35526438840E-02  0.14572202232E-01  0.24277523226E-01  0.51100000000E-03 0.  1.
</event>
<event>
 8    1  0.1132255E+005  0.1043930E+01  0.7957747E-01            NaN
         13   -1    0    0    0    0  0.00000000000E+00  0.00000000000E+00  0.74505805969E-08  0.10566000000E+00  0.10566000000E+00 0. -1.
     999900   -1    0    0    0    0 -0.00000000000E+00 -0.00000000000E+00 -0.74505805969E-08  0.93827000000E+00  0.93827000000E+00 0. -1.
     999902    2    1    2    0    0 -0.15259690611E-01  0.77277373465E-02  0.12942296619E-01  0.10224805449E+01  0.10222555383E+01 0.  0.
     999903    2    3    3    0    0 -0.10042416491E+00  0.82822470571E-01  0.27035675363E-01  0.13507374419E+00  0.23862399202E-01 0.  0.
         14    1    1    2    0    0  0.15259690611E-01 -0.77277373465E-02 -0.12942296619E-01  0.21449455094E-01  0.00000000000E+00 0.  1.
     999901    1    3    3    0    0  0.85164474303E-01 -0.75094733225E-01 -0.14093378743E-01  0.88740680072E+00  0.88000000000E+00 0.  1.
        -11    1    4    4    0    0 -0.45634144046E-01  0.51140845690E-01  0.19942665033E-01  0.71385097957E-01  0.51100000000E-03 0. -1.
         11    1    4    4    0    0 -0.54790020868E-01  0.31681624881E-01  0.70930103298E-02  0.63688646228E-01  0.51100000000E-03 0.  1.
</event>
<event>
 8    1  0.1132255E+005  0.1043930E+01  0.7957747E-01            NaN
         13   -1    0    0    0    0  0.00000000000E+00  0.00000000000E+00  0.74505805969E-08  0.10566000000E+00  0.10566000000E+00 0. -1.
     999900   -1    0    0    0    0 -0.00000000000E+00 -0.00000000000E+00 -0.74505805969E-08  0.93827000000E+00  0.93827000000E+00 0.  1.
     999902    2    1    2    0    0  0.19028461956E-01 -0.16114628535E-02  0.13680962259E-01  0.10204385568E+01  0.10201681235E+01 0.  0.
     999903    2    3    3    0    0 -0.96498811826E-01  0.47694145770E-01 -0.66121152384E-01  0.12794431503E+00  0.20272857008E-01 0.  0.
         14    1    1    2    0    0 -0.19028461956E-01  0.16114628535E-02 -0.13680962259E-01  0.23491443235E-01  0.00000000000E+00 0.  1.
     999901    1    3    3    0    0  0.11552727378E+00 -0.49305608623E-01  0.79802114644E-01  0.89249424174E+00  0.88000000000E+00 0.  1.
        -11    1    4    4    0    0 -0.44326212973E-01  0.17202969422E-01 -0.39886379158E-01  0.62063996623E-01  0.51100000000E-03 0. -1.
         11    1    4    4    0    0 -0.52172598853E-01  0.30491176348E-01 -0.26234773226E-01  0.65880318407E-01  0.51100000000E-03 0.  1.
</event>
<event>
 8    1  0.1132255E+005  0.1043930E+01  0.7957747E-01            NaN
         13   -1    0    0    0    0  0.00000000000E+00  0.00000000000E+00  0.74505805969E-08  0.10566000000E+00  0.10566000000E+00 0.  1.
     999900   -1    0    0    0    0 -0.00000000000E+00 -0.00000000000E+00 -0.74505805969E-08  0.93827000000E+00  0.93827000000E+00 0. -1.
     999902    2    1    2    0    0 -0.35413757223E-02 -0.89906751835E-03  0.24182383936E-01  0.10194731532E+01  0.10191797548E+01 0.  0.
     999903    2    3    3    0    0  0.36404638142E-01 -0.11933199376E+00  0.33569805101E-01  0.13059174053E+00  0.19022314989E-01 0.  0.
         14    1    1    2    0    0  0.35413757223E-02  0.89906751835E-03 -0.24182383936E-01  0.24456846837E-01  0.00000000000E+00 0. -1.
     999901    1    3    3    0    0 -0.39946013865E-01  0.11843292624E+00 -0.93874211654E-02  0.88888141263E+00  0.88000000000E+00 0.  1.
        -11    1    4    4    0    0  0.16315007974E-01 -0.82949365939E-01  0.20060892542E-01  0.86887728278E-01  0.51100000000E-03 0.  1.
         11    1    4    4    0    0  0.20089630169E-01 -0.36382627823E-01  0.13508912559E-01  0.43704012255E-01  0.51100000000E-03 0. -1.
</event>
<event>
 8    1  0.1132255E+005  0.1043930E+01  0.7957747E-01            NaN
         13   -1    0    0    0    0  0.00000000000E+00  0.00000000000E+00  0.74505805969E-08  0.10566000000E+00  0.10566000000E+00 0.  1.
     999900   -1    0    0    0    0 -0.00000000000E+00 -0.00000000000E+00 -0.74505805969E-08  0.93827000000E+00  0.93827000000E+00 0.  1.
     999902    2    1    2    0    0 -0.10420499491E-01 -0.20281457220E-01  0.65315390533E-02  0.10202111189E+01  0.10199353616E+01 0.  0.
     999903    2    3    3    0    0  0.10606139482E+00 -0.12477104139E-01 -0.69939036663E-01  0.12921353837E+00  0.19999301196E-01 0.  0.
         14    1    1    2    0    0  0.10420499491E-01  0.20281457220E-01 -0.65315390533E-02  0.23718881066E-01  0.00000000000E+00 0.  1.
     999901    1    3    3    0    0 -0.11648189431E+00 -0.78043530807E-02  0.76470575716E-01  0.89099758057E+00  0.88000000000E+00 0.  1.
        -11    1    4    4    0    0  0.28020177098E-01 -0.94730749176E-02 -0.27183897924E-01  0.40175799934E-01  0.51100000000E-03 0.  1.
         11    1    4    4    0    0  0.78041217724E-01 -0.30040292217E-02 -0.42755138738E-01  0.89037738431E-01  0.51100000000E-03 0. -1.
</event>
<event>
 8    1  0.1132255E+005  0.1043930E+01  0.7957747E-01            NaN
         13   -1    0    0    0    0  0.00000000000E+00  0.00000000000E+00  0.74505805969E-08  0.10566000000E+00  0.10566000000E+00 0. -1.
     999900   -1    0    0    0    0 -0.00000000000E+00 -0.00000000000E+00 -0.74505805969E-08  0.93827000000E+00  0.93827000000E+00 0. -1.
     999902    2    1    2    0    0  0.16074400619E-01 -0.16190771987E-01 -0.83353165010E-02  0.10196399824E+01  0.10193506211E+01 0.  0.
     999903    2    3    3    0    0  0.23431147004E-01  0.69141468971E-01  0.10379134745E+00  0.12840033910E+00  0.19607189852E-01 0.  0.
         14    1    1    2    0    0 -0.16074400619E-01  0.16190771987E-01  0.83353165010E-02  0.24290017579E-01  0.00000000000E+00 0. -1.
     999901    1    3    3    0    0 -0.73567463851E-02 -0.85332240958E-01 -0.11212666395E+00  0.89123964332E+00  0.88000000000E+00 0. -1.
        -11    1    4    4    0    0  0.14207980327E-01  0.18811476503E-01  0.24274559347E-01  0.33841597268E-01  0.51100000000E-03 0. -1.
         11    1    4    4    0    0  0.92231666771E-02  0.50329992468E-01  0.79516788101E-01  0.94558741829E-01  0.51100000000E-03 0.  1.
</event>
<event>
 8    1  0.1132255E+005  0.1043930E+01  0.7957747E-01            NaN
         13   -1    0    0    0    0  0.00000000000E+00  0.00000000000E+00  0.74505805969E-08  0.10566000000E+00  0.10566000000E+00 0.  1.
     999900   -1    0    0    0    0 -0.00000000000E+00 -0.00000000000E+00 -0.74505805969E-08  0.93827000000E+00  0.93827000000E+00 0.  1.
     999902    2    1    2    0    0  0.20959001224E-01  0.74522677759E-02 -0.72172482574E-02  0.10205440063E+01  0.10202760235E+01 0.  0.
     999903    2    3    3    0    0  0.27055813158E-01  0.11804864411E+00 -0.50925801816E-01  0.13252420519E+00  0.17370327232E-01 0.  0.
         14    1    1    2    0    0 -0.20959001224E-01 -0.74522677759E-02  0.72172482574E-02  0.23385993665E-01  0.00000000000E+00 0.  1.
     999901    1    3    3    0    0 -0.60968119343E-02 -0.11059637633E+00  0.43708553559E-01  0.88801980115E+00  0.88000000000E+00 0.  1.
        -11    1    4    4    0    0  0.13892712242E-01  0.87193887074E-01 -0.42185179282E-01  0.97855157598E-01  0.51100000000E-03 0. -1.
         11    1    4    4    0    0  0.13163100916E-01  0.30854757036E-01 -0.87406225343E-02  0.34669047590E-01  0.51100000000E-03 0.  1.
</event>
<event>
 8    1  0.1132255E+005  0.1043930E+01  0.7957747E-01            NaN
         13   -1    0    0    0    0  0.00000000000E+00  0.00000000000E+00  0.74505805969E-08  0.10566000000E+00  0.10566000000E+00 0.  1.
     999900   -1    0    0    0    0 -0.00000000000E+00 -0.00000000000E+00 -0.74505805969E-08  0.93827000000E+00  0.93827000000E+00 0. -1.
     999902    2    1    2    0    0  0.23536209472E-01 -0.38093741363E-02 -0.40847905934E-02  0.10197401260E+01  0.10194531743E+01 0.  0.
     999903    2    3    3    0    0  0.26099021715E-01 -0.11628139034E+00 -0.51393262982E-01  0.13131758356E+00  0.20012985787E-01 0.  0.
         14    1    1    2    0    0 -0.23536209472E-01  0.38093741363E-02  0.40847905934E-02  0.24189873952E-01  0.00000000000E+00 0.  1.
     999901    1    3    3    0    0 -0.25628122426E-02  0.11247201620E+00  0.47308472388E-01  0.88842254248E+00  0.88000000000E+00 0.  1.
        -11    1    4    4    0    0  0.17017469519E-01 -0.10186859974E+00 -0.48212426724E-01  0.11398028379E+00  0.51100000000E-03 0. -1.
         11    1    4    4    0    0  0.90815521962E-02 -0.14412790599E-01 -0.31808362577E-02  0.17337299773E-01  0.51100000000E-03 0.  1.
</event>
<event>
 8    1  0.1132255E+005  0.1043930E+01  0.7957747E-01            NaN
         13   -1    0    0    0    0  0.00000000000E+00  0.00000000000E+00  0.74505805969E-08  0.10566000000E+00  0.10566000000E+00 0. -1.
     999900   -1    0    0    0    0 -0.00000000000E+00 -0.00000000000E+00 -0.74505805969E-08  0.93827000000E+00  0.93827000000E+00 0. -1.
     999902    2    1    2    0    0  0.12696328218E-01 -0.12834440258E-01  0.15090288580E-01  0.10204005203E+01  0.10201292003E+01 0.  0.
     999903    2    3    3    0    0  0.22939172597E-01  0.93991023700E-01  0.85933686654E-01  0.13105504035E+00  0.20743840590E-01 0.  0.
         14    1    1    2    0    0 -0.12696328218E-01  0.12834440258E-01 -0.15090288580E-01  0.23529479730E-01  0.00000000000E+00 0.  1.
     999901    1    3    3    0    0 -0.10242844379E-01 -0.10682546396E+00 -0.70843398074E-01  0.88934547992E+00  0.88000000000E+00 0. -1.
        -11    1    4    4    0    0  0.23564239109E-01  0.80034722443E-01  0.64466573060E-01  0.10543732889E+00  0.51100000000E-03 0. -1.
         11    1    4    4    0    0 -0.62506651256E-03  0.13956301257E-01  0.21467113594E-01  0.25617711451E-01  0.51100000000E-03 0.  1.
</event>
<event>
 8    1  0.1132255E+005  0.1043930E+01  0.7957747E-01            NaN
         13   -1    0    0    0    0  0.00000000000E+00  0.00000000000E+00  0.74505805969E-08  0.10566000000E+00  0.10566000000E+00 0. -1.
     999900   -1    0    0    0    0 -0.00000000000E+00 -0.00000000000E+00 -0.74505805969E-08  0.93827000000E+00  0.93827000000E+00 0.  1.
     999902    2    1    2    0    0 -0.66343179203E-02  0.51674198451E-02  0.23232868103E-01  0.10192220547E+01  0.10189225261E+01 0.  0.
     999903    2    3    3    0    0 -0.83485596646E-01 -0.33685985397E-01 -0.88597955556E-01  0.12797470446E+00  0.20575149887E-01 0.  0.
         14    1    1    2    0    0  0.66343179203E-02 -0.51674198451E-02 -0.23232868103E-01  0.24707945329E-01  0.00000000000E+00 0.  1.
     999901    1    3    3    0    0  0.76851278726E-01  0.38853405242E-01  0.11183082366E+00  0.89124735021E+00  0.88000000000E+00 0. -1.
        -11    1    4    4    0    0 -0.24425070061E-01 -0.16420499739E-01 -0.18811257987E-01  0.34933385282E-01  0.51100000000E-03 0.  1.
         11    1    4    4    0    0 -0.59060526585E-01 -0.17265485658E-01 -0.69786697569E-01  0.93041319176E-01  0.51100000000E-03 0. -1.
</event>
<event>
 8    1  0.1132255E+005  0.1043930E+01  0.7957747E-01            NaN
         13   -1    0    0    0    0  0.00000000000E+00  0.00000000000E+00  0.74505805969E-08  0.10566000000E+00  0.10566000000E+00 0. -1.
     999900   -1    0    0    0    0 -0.00000000000E+00 -0.00000000000E+00 -0.74505805969E-08  0.93827000000E+00  0.93827000000E+00 0. -1.
     999902    2    1    2    0    0 -0.10636902221E-01  0.10283073099E-01  0.18692933127E-01  0.10200907251E+01  0.10198121279E+01 0.  0.
     999903    2    3    3    0    0  0.96003538418E-01  0.66930332101E-01  0.56418504268E-01  0.13104386788E+00  0.17120132609E-01 0.  0.
         14    1    1    2    0    0  0.10636902221E-01 -0.10283073099E-01 -0.18692933127E-01  0.23839274949E-01  0.00000000000E+00 0. -1.
     999901    1    3    3    0    0 -0.10664044064E+00 -0.56647259002E-01 -0.37725571141E-01  0.88904685717E+00  0.88000000000E+00 0. -1.
        -11    1    4    4    0    0  0.16498855843E-01  0.43932863667E-02  0.93865205354E-02  0.19490538678E-01  0.51100000000E-03 0. -1.
         11    1    4    4    0    0  0.79504682575E-01  0.62537045734E-01  0.47031983733E-01  0.11155332920E+00  0.51100000000E-03 0.  1.
</event>
<event>
 8    1  0.1132255E+005  0.1043930E+01  0.7957747E-01            NaN
         13   -1    0    0    0    0  0.00000000000E+00  0.00000000000E+00  0.74505805969E-08  0.10566000000E+00  0.10566000000E+00 0. -1.
     999900   -1    0    0    0    0 -0.00000000000E+00 -0.00000000000E+00 -0.74505805969E-08  0.93827000000E+00  0.93827000000E+00 0. -1.
     999902    2    1    2    0    0 -0.15177664578E-01 -0.17887708816E-01  0.36223775335E-02  0.10201928298E+01  0.10199166421E+01 0.  0.
     999903    2    3    3    0    0 -0.60527074568E-02 -0.65218281522E-01 -0.11202568064E+00  0.13131830476E+00  0.20116772372E-01 0.  0.
         14    1    1    2    0    0  0.15177664578E-01  0.17887708816E-01 -0.36223775335E-02  0.23737170171E-01  0.00000000000E+00 0. -1.
     999901    1    3    3    0    0 -0.91249571210E-02  0.47330572705E-01  0.11564805817E+00  0.88887452507E+00  0.88000000000E+00 0.  1.
        -11    1    4    4    0    0  0.20550154896E-03 -0.72687247380E-02 -0.28817018928E-01  0.29724708428E-01  0.51100000000E-03 0. -1.
         11    1    4    4    0    0 -0.62582090058E-02 -0.57949556784E-01 -0.83208661710E-01  0.10159359633E+00  0.51100000000E-03 0.  1.
</event>
<event>
 8    1  0.1132255E+005  0.1043930E+01  0.7957747E-01            NaN
         13   -1    0    0    0    0  0.00000000000E+00  0.00000000000E+00  0.74505805969E-08  0.10566000000E+00  0.10566000000E+00 0.  1.
     999900   -1    0    0    0    0 -0.00000000000E+00 -0.00000000000E+00 -0.74505805969E-08  0.93827000000E+00  0.93827000000E+00 0.  1.
     999902    2    1    2    0    0  0.20865763041E-02  0.30993364408E-02 -0.23094435137E-01  0.10205352865E+01  0.10202671014E+01 0.  0.
     999903    2    3    3    0    0  0.93599857666E-01  0.29002113384E-01 -0.87825741592E-01  0.13304682088E+00  0.19647893608E-01 0.  0.
         14    1    1    2    0    0 -0.20865763041E-02 -0.30993364408E-02  0.23094435137E-01  0.23394713535E-01  0.00000000000E+00 0.  1.
     999901    1    3    3    0    0 -0.91513281362E-01 -0.25902776943E-01  0.64731306455E-01  0.88748846559E+00  0.88000000000E+00 0. -1.
        -11    1    4    4    0    0  0.36990299756E-01  0.12193434885E-01 -0.48009655031E-01  0.61823541046E-01  0.51100000000E-03 0.  1.
         11    1    4    4    0    0  0.56609557910E-01  0.16808678499E-01 -0.39816086561E-01  0.71223279830E-01  0.51100000000E-03 0. -1.
</event>
<event>
 8    1  0.1132255E+005  0.1043930E+01  0.7957747E-01            NaN
         13   -1    0    0    0    0  0.00000000000E+00  0.00000000000E+00  0.74505805969E-08  0.10566000000E+00  0.10566000000E+00 0.  1.
     999900   -1    0    0    0    0 -0.00000000000E+00 -0.00000000000E+00 -0.74505805969E-08  0.93827000000E+00  0.93827000000E+00 0. -1.
     999902    2    1    2    0    0  0.97564726154E-03 -0.18283046130E-01 -0.16289378623E-01  0.10194235617E+01  0.10191289578E+01 0.  0.
     999903    2    3    3    0    0 -0.11259490374E+00  0.59921940558E-01  0.23664419696E-02  0.12849015808E+00  0.15358039208E-01 0.  0.
         14    1    1    2    0    0 -0.97564726154E-03  0.18283046130E-01  0.16289378623E-01  0.24506438323E-01  0.00000000000E+00 0.  1.
     999901    1    3    3    0    0  0.11357055100E+00 -0.78204986688E-01 -0.18655820592E-01  0.89093340359E+00  0.88000000000E+00 0.  1.
        -11    1    4    4    0    0 -0.10938302402E+00  0.57488555644E-01 -0.40680915201E-03  0.12357186811E+00  0.51100000000E-03 0.  1.
         11    1    4    4    0    0 -0.32118797219E-02  0.24333849135E-02  0.27732511216E-02  0.49182899740E-02  0.51100000000E-03 0. -1.
</event>
<event>
 8    1  0.1132255E+005  0.1043930E+01  0.7957747E-01            NaN
         13   -1    0    0    0    0  0.00000000000E+00  0.00000000000E+00  0.74505805969E-08  0.10566000000E+00  0.10566000000E+00 0.  1.
     999900   -1    0    0    0    0 -0.00000000000E+00 -0.00000000000E+00 -0.74505805969E-08  0.93827000000E+00  0.93827000000E+00 0. -1.
     999902    2    1    2    0    0 -0.88273228539E-02  0.20136035645E-01  0.90177362809E-02  0.10201665590E+01  0.10198897524E+01 0.  0.
     999903    2    3    3    0    0 -0.33552372121E-01  0.11411155119E+00 -0.54718705851E-01  0.13252639563E+00  0.20540228304E-01 0.  0.
         14    1    1    2    0    0  0.88273228539E-02 -0.20136035645E-01 -0.90177362809E-02  0.23763440994E-01  0.00000000000E+00 0.  1.
     999901    1    3    3    0    0  0.24725049267E-01 -0.93975515544E-01  0.63736442132E-01  0.88764016338E+00  0.88000000000E+00 0.  1.
        -11    1    4    4    0    0 -0.30497921345E-01  0.68837071712E-01 -0.35569266590E-01  0.83271240504E-01  0.51100000000E-03 0.  1.
         11    1    4    4    0    0 -0.30544507760E-02  0.45274479477E-01 -0.19149439261E-01  0.49255155125E-01  0.51100000000E-03 0. -1.
</event>
<event>
 8    1  0.1132255E+005  0.1043930E+01  0.7957747E-01            NaN
         13   -1    0    0    0    0  0.00000000000E+00  0.00000000000E+00  0.74505805969E-08  0.10566000000E+00  0.10566000000E+00 0. -1.
     999900   -1    0    0    0    0 -0.00000000000E+00 -0.00000000000E+00 -0.74505805969E-08  0.93827000000E+00  0.93827000000E+00 0.  1.
     999902    2    1    2    0    0 -0.12534591001E-01  0.21929499884E-01  0.42536819389E-02  0.10183153021E+01  0.10179930952E+01 0.  0.
     999903    2    3    3    0    0 -0.64806492358E-01 -0.95974200357E-01  0.49532574809E-01  0.12776277008E+00  0.21422438385E-01 0.  0.
         14    1    1    2    0    0  0.12534591001E-01 -0.21929499884E-01 -0.42536819389E-02  0.25614697866E-01  0.00000000000E+00 0.  1.
     999901    1    3    3    0    0  0.52271901357E-01  0.11790370024E+00 -0.45278892870E-01  0.89055253205E+00  0.88000000000E+00 0.  1.
        -11    1    4    4    0    0 -0.37569793966E-01 -0.38662905572E-01  0.28019585814E-01  0.60759098052E-01  0.51100000000E-03 0.  1.
         11    1    4    4    0    0 -0.27236698392E-01 -0.57311294786E-01  0.21512988995E-01  0.67003672032E-01  0.51100000000E-03 0. -1.
</event>
<event>
 8    1  0.1132255E+005  0.1043930E+01  0.7957747E-01            NaN
         13   -1    0    0    0    0  0.00000000000E+00  0.00000000000E+00  0.74505805969E-08  0.10566000000E+00  0.10566000000E+00 0. -1.
     999900   -1    0    0    0    0 -0.00000000000E+00 -0.00000000000E+00 -0.74505805969E-08  0.93827000000E+00  0.93827000000E+00 0.  1.
     999902    2    1    2    0    0  0.79986965302E-02 -0.11442944754E-01 -0.19646736175E-01  0.10198278347E+01  0.10195429849E+01 0.  0.
     999903    2    3    3    0    0  0.65355194163E-01  0.89090632433E-01 -0.67342798582E-01  0.13096806940E+00  0.20227221510E-01 0.  0.
         14    1    1    2    0    0 -0.79986965302E-02  0.11442944754E-01  0.19646736175E-01  0.24102165321E-01  0.00000000000E+00 0. -1.
     999901    1    3    3    0    0 -0.57356497633E-01 -0.10053357719E+00  0.47696062407E-01  0.88885976528E+00  0.88000000000E+00 0. -1.
        -11    1    4    4    0    0  0.56857593274E-01  0.62910533549E-01 -0.50751820477E-01  0.98825753461E-01  0.51100000000E-03 0.  1.
         11    1    4    4    0    0  0.84976008893E-02  0.26180098884E-01 -0.16590978105E-01  0.32142315939E-01  0.51100000000E-03 0. -1.
</event>
<event>
 8    1  0.1132255E+005  0.1043930E+01  0.7957747E-01            NaN
         13   -1    0    0    0    0  0.00000000000E+00  0.00000000000E+00  0.74505805969E-08  0.10566000000E+00  0.10566000000E+00 0.  1.
     999900   -1    0    0    0    0 -0.00000000000E+00 -0.00000000000E+00 -0.74505805969E-08  0.93827000000E+00  0.93827000000E+00 0.  1.
     999902    2    1    2    0    0 -0.22340060347E-01  0.32377813833E-02 -0.61195096233E-02  0.10205417567E+01  0.10202737218E+01 0.  0.
     999903    2    3    3    0    0  0.11603019995E+00 -0.38793760291E-01 -0.32876563990E-01  0.12833722896E+00  0.20533210666E-01 0.  0.
         14    1    1    2    0    0  0.22340060347E-01 -0.32377813833E-02  0.61195096233E-02  0.23388243257E-01  0.00000000000E+00 0.  1.
     999901    1    3    3    0    0 -0.13837026030E+00  0.42031541674E-01  0.26757054366E-01  0.89220452778E+00  0.88000000000E+00 0. -1.
        -11    1    4    4    0    0  0.72029929404E-01 -0.26521354984E-01 -0.30488177698E-01  0.82592270222E-01  0.51100000000E-03 0. -1.
         11    1    4    4    0    0  0.44000270548E-01 -0.12272405307E-01 -0.23883862919E-02  0.45744958743E-01  0.51100000000E-03 0.  1.
</event>
<event>
 8    1  0.1132255E+005  0.1043930E+01  0.7957747E-01            NaN
         13   -1    0    0    0    0  0.00000000000E+00  0.00000000000E+00  0.74505805969E-08  0.10566000000E+00  0.10566000000E+00 0. -1.
     999900   -1    0    0    0    0 -0.00000000000E+00 -0.00000000000E+00 -0.74505805969E-08  0.93827000000E+00  0.93827000000E+00 0. -1.
     999902    2    1    2    0    0 -0.54774725791E-02 -0.93042895697E-02 -0.22250725612E-02  0.10329062321E+01  0.10328474045E+01 0.  0.
     999903    2    3    3    0    0 -0.11235108317E+00  0.64003094039E-01  0.53995154544E-01  0.14163935006E+00  0.20665595414E-01 0.  0.
         14    1    1    2    0    0  0.54774725791E-02  0.93042895697E-02  0.22250725612E-02  0.11023767875E-01  0.00000000000E+00 0. -1.
     999901    1    3    3    0    0  0.10687361060E+00 -0.73307383609E-01 -0.56220227106E-01  0.89126688207E+00  0.88000000000E+00 0.  1.
        -11    1    4    4    0    0 -0.87904891205E-01  0.58562619743E-01  0.40014583424E-01  0.11295254905E+00  0.51100000000E-03 0.  1.
         11    1    4    4    0    0 -0.24446191969E-01  0.54404742964E-02  0.13980571121E-01  0.28686801011E-01  0.51100000000E-03 0. -1.
</event>
<event>
 8    1  0.1132255E+005  0.1043930E+01  0.7957747E-01            NaN
         13   -1    0    0    0    0  0.00000000000E+00  0.00000000000E+00  0.74505805969E-08  0.10566000000E+00  0.10566000000E+00 0. -1.
     999900   -1    0    0    0    0 -0.00000000000E+00 -0.00000000000E+00 -0.74505805969E-08  0.93827000000E+00  0.93827000000E+00 0. -1.
     999902    2    1    2    0    0 -0.19577673292E-01 -0.10950050058E-01 -0.56771692508E-02  0.10207908743E+01  0.10205285836E+01 0.  0.
     999903    2    3    3    0    0 -0.99382057189E-01  0.11751554162E-01  0.84054723353E-01  0.13234508806E+00  0.20859853773E-01 0.  0.
         14    1    1    2    0    0  0.19577673292E-01  0.10950050058E-01  0.56771692508E-02  0.23139125708E-01  0.00000000000E+00 0. -1.
     999901    1    3    3    0    0  0.79804383897E-01 -0.22701604221E-01 -0.89731892603E-01  0.88844578623E+00  0.88000000000E+00 0. -1.
        -11    1    4    4    0    0 -0.26443572092E-01  0.59291073878E-02  0.34926461180E-01  0.44210130411E-01  0.51100000000E-03 0.  1.
         11    1    4    4    0    0 -0.72938485098E-01  0.58224467746E-02  0.49128262173E-01  0.88134957649E-01  0.51100000000E-03 0. -1.
</event>
<event>
 8    1  0.1132255E+005  0.1043930E+01  0.7957747E-01            NaN
         13   -1    0    0    0    0  0.00000000000E+00  0.00000000000E+00  0.74505805969E-08  0.10566000000E+00  0.10566000000E+00 0.  1.
     999900   -1    0    0    0    0 -0.00000000000E+00 -0.00000000000E+00 -0.74505805969E-08  0.93827000000E+00  0.93827000000E+00 0. -1.
     999902    2    1    2    0    0 -0.20562489084E-01 -0.51248969138E-02 -0.11097297877E-01  0.10200086592E+01  0.10197281178E+01 0.  0.
     999903    2    3    3    0    0  0.87225752567E-01  0.84307585198E-01 -0.37715016033E-01  0.12853517287E+00  0.19564442198E-01 0.  0.
         14    1    1    2    0    0  0.20562489084E-01  0.51248969138E-02  0.11097297877E-01  0.23921340805E-01  0.00000000000E+00 0. -1.
     999901    1    3    3    0    0 -0.10778824165E+00 -0.89432482111E-01  0.26617718155E-01  0.89147348632E+00  0.88000000000E+00 0.  1.
        -11    1    4    4    0    0  0.39714360803E-01  0.35798497746E-01 -0.26629081925E-01  0.59733843171E-01  0.51100000000E-03 0. -1.
         11    1    4    4    0    0  0.47511391764E-01  0.48509087452E-01 -0.11085934108E-01  0.68801329702E-01  0.51100000000E-03 0.  1.
</event>
<event>
 8    1  0.1132255E+005  0.1043930E+01  0.7957747E-01            NaN
         13   -1    0    0    0    0  0.00000000000E+00  0.00000000000E+00  0.74505805969E-08  0.10566000000E+00  0.10566000000E+00 0.  1.
     999900   -1    0    0    0    0 -0.00000000000E+00 -0.00000000000E+00 -0.74505805969E-08  0.93827000000E+00  0.93827000000E+00 0.  1.
     999902    2    1    2    0    0 -0.14814693098E-01  0.17333909032E-01  0.51477270215E-02  0.10205539732E+01  0.10202862214E+01 0.  0.
     999903    2    3    3    0    0 -0.54100166223E-01 -0.11818097512E-01 -0.11734347274E+00  0.13072405583E+00  0.15899458000E-01 0.  0.
         14    1    1    2    0    0  0.14814693098E-01 -0.17333909032E-01 -0.51477270215E-02  0.23376026767E-01  0.00000000000E+00 0. -1.
     999901    1    3    3    0    0  0.39285473125E-01  0.29152006544E-01  0.12249119976E+00  0.88982991740E+00  0.88000000000E+00 0. -1.
        -11    1    4    4    0    0 -0.28255854631E-01 -0.77285531086E-03 -0.72276371031E-01  0.77608798191E-01  0.51100000000E-03 0.  1.
         11    1    4    4    0    0 -0.25844311593E-01 -0.11045242201E-01 -0.45067101707E-01  0.53115257641E-01  0.51100000000E-03 0. -1.
</event>
<event>
 8    1  0.1132255E+005  0.1043930E+01  0.7957747E-01            NaN
         13   -1    0    0    0    0  0.00000000000E+00  0.00000000000E+00  0.74505805969E-08  0.10566000000E+00  0.10566000000E+00 0. -1.
     999900   -1    0    0    0    0 -0.00000000000E+00 -0.00000000000E+00 -0.74505805969E-08  0.93827000000E+00  0.93827000000E+00 0.  1.
     999902    2    1    2    0    0  0.19488705375E-01  0.32772012054E-02  0.14045373818E-01  0.10196849549E+01  0.10193966770E+01 0.  0.
     999903    2    3    3    0    0 -0.92219286118E-01  0.85490171937E-01 -0.17098917675E-01  0.12827729576E+00  0.18700946317E-01 0.  0.
         14    1    1    2    0    0 -0.19488705375E-01 -0.32772012054E-02 -0.14045373818E-01  0.24245045074E-01  0.00000000000E+00 0. -1.
     999901    1    3    3    0    0  0.11170799149E+00 -0.82212970732E-01  0.31144291494E-01  0.89140765916E+00  0.88000000000E+00 0. -1.
        -11    1    4    4    0    0 -0.80185973704E-01  0.80781921815E-01 -0.12309219272E-01  0.11448706159E+00  0.51100000000E-03 0.  1.
         11    1    4    4    0    0 -0.12033312414E-01  0.47082501224E-02 -0.47896984030E-02  0.13790234177E-01  0.51100000000E-03 0. -1.
</event>
<event>
 8    1  0.1132255E+005  0.1043930E+01  0.7957747E-01            NaN
         13   -1    0    0    0    0  0.00000000000E+00  0.00000000000E+00  0.74505805969E-08  0.10566000000E+00  0.10566000000E+00 0.  1.
     999900   -1    0    0    0    0 -0.00000000000E+00 -0.00000000000E+00 -0.74505805969E-08  0.93827000000E+00  0.93827000000E+00 0. -1.
     999902    2    1    2    0    0  0.24003525268E-01  0.24572934880E-02 -0.29044013074E-03  0.10197992754E+01  0.10195137420E+01 0.  0.
     999903    2    3    3    0    0  0.15704802661E-01 -0.38954324042E-01 -0.12194064018E+00  0.13042727105E+00  0.19433813790E-01 0.  0.
         14    1    1    2    0    0 -0.24003525268E-01 -0.24572934880E-02  0.29044013074E-03  0.24130724648E-01  0.00000000000E+00 0.  1.
     999901    1    3    3    0    0  0.82987226066E-02  0.41411617530E-01  0.12165020005E+00  0.88937200430E+00  0.88000000000E+00 0. -1.
        -11    1    4    4    0    0  0.14589022761E-01 -0.15736341417E-01 -0.75495126123E-01  0.78487242375E-01  0.51100000000E-03 0.  1.
         11    1    4    4    0    0  0.11157798999E-02 -0.23217982625E-01 -0.46445514056E-01  0.51940028676E-01  0.51100000000E-03 0. -1.
</event>
<event>
 8    1  0.1132255E+005  0.1043930E+01  0.7957747E-01            NaN
         13   -1    0    0    0    0  0.00000000000E+00  0.00000000000E+00  0.74505805969E-08  0.10566000000E+00  0.10566000000E+00 0.  1.
     999900   -1    0    0    0    0 -0.00000000000E+00 -0.00000000000E+00 -0.74505805969E-08  0.93827000000E+00  0.93827000000E+00 0. -1.
     999902    2    1    2    0    0  0.10557089620E-01 -0.21245226893E-01 -0.15630276324E-02  0.10201549109E+01  0.10198778296E+01 0.  0.
     999903    2    3    3    0    0  0.29593102208E-01  0.89091185832E-01  0.85847271842E-01  0.12876439366E+00  0.19938001415E-01 0.  0.
         14    1    1    2    0    0 -0.10557089620E-01  0.21245226893E-01  0.15630276324E-02  0.23775089114E-01  0.00000000000E+00 0. -1.
     999901    1    3    3    0    0 -0.19036012588E-01 -0.11033641272E+00 -0.87410299474E-01  0.89139051723E+00  0.88000000000E+00 0. -1.
        -11    1    4    4    0    0  0.22130352732E-01  0.76431816082E-01  0.80300789511E-01  0.11304889623E+00  0.51100000000E-03 0.  1.
         11    1    4    4    0    0  0.74627494759E-02  0.12659369750E-01  0.55464823309E-02  0.15715497429E-01  0.51100000000E-03 0. -1.
</event>
<event>
 8    1  0.1132255E+005  0.1043930E+01  0.7957747E-01            NaN
         13   -1    0    0    0    0  0.00000000000E+00  0.00000000000E+00  0.74505805969E-08  0.10566000000E+00  0.10566000000E+00 0.  1.
     999900   -1    0    0    0    0 -0.00000000000E+00 -0.00000000000E+00 -0.74505805969E-08  0.93827000000E+00  0.93827000000E+00 0.  1.
     999902    2    1    2    0    0  0.63585676917E-02 -0.23482591627E-01  0.75708927145E-03  0.10195899779E+01  0.10192994096E+01 0.  0.
     999903    2    3    3    0    0  0.34919527174E-01 -0.11138744228E+00 -0.59677384029E-01  0.13268788817E+00  0.20448712058E-01 0.  0.
         14    1    1    2    0    0 -0.63585676917E-02  0.23482591627E-01 -0.75708927145E-03  0.24340022119E-01  0.00000000000E+00 0. -1.
     999901    1    3    3    0    0 -0.28560959482E-01  0.87904850658E-01  0.60434473300E-01  0.88690208971E+00  0.88000000000E+00 0. -1.
        -11    1    4    4    0    0  0.16484667200E-01 -0.23575292418E-01 -0.15266269056E-01  0.32570826781E-01  0.51100000000E-03 0. -1.
         11    1    4    4    0    0  0.18434859974E-01 -0.87812149866E-01 -0.44411114973E-01  0.10011706139E+00  0.51100000000E-03 0.  1.
</event>
<event>
 8    1  0.1132255E+005  0.1043930E+01  0.7957747E-01            NaN
         13   -1    0    0    0    0  0.00000000000E+00  0.00000000000E+00  0.74505805969E-08  0.10566000000E+00  0.10566000000E+00 0.  1.
     999900   -1    0    0    0    0 -0.00000000000E+00 -0.00000000000E+00 -0.74505805969E-08  0.93827000000E+00  0.93827000000E+00 0.  1.
     999902    2    1    2    0    0  0.99682855995E-02 -0.20741735379E-01 -0.53639641467E-02  0.10203003911E+01  0.10200267299E+01 0.  0.
     999903    2    3    3    0    0 -0.93620940248E-01  0.34106009163E-02 -0.87779617816E-01  0.13007210409E+00  0.20904026107E-01 0.  0.
         14    1    1    2    0    0 -0.99682855995E-02  0.20741735379E-01  0.53639641467E-02  0.23629608877E-01  0.00000000000E+00 0. -1.
     999901    1    3    3    0    0  0.10358922585E+00 -0.24152336295E-01  0.82415653669E-01  0.89022828703E+00  0.88000000000E+00 0. -1.
        -11    1    4    4    0    0 -0.25037088150E-01 -0.28391013386E-02 -0.35830321006E-01  0.43806270143E-01  0.51100000000E-03 0. -1.
         11    1    4    4    0    0 -0.68583852098E-01  0.62497022549E-02 -0.51949296810E-01  0.86265833949E-01  0.51100000000E-03 0.  1.
</event>
<event>
 8    1  0.1132255E+005  0.1043930E+01  0.7957747E-01            NaN
         13   -1    0    0    0    0  0.00000000000E+00  0.00000000000E+00  0.74505805969E-08  0.10566000000E+00  0.10566000000E+00 0.  1.
     999900   -1    0    0    0    0 -0.00000000000E+00 -0.00000000000E+00 -0.74505805969E-08  0.93827000000E+00  0.93827000000E+00 0. -1.
     999902    2    1    2    0    0 -0.19946299813E-01  0.10251241491E-01 -0.10417485227E-01  0.10192021447E+01  0.10189021273E+01 0.  0.
     999903    2    3    3    0    0 -0.77063782923E-01 -0.24297434724E-02  0.10272022265E+00  0.13003210744E+00  0.20302081927E-01 0.  0.
         14    1    1    2    0    0  0.19946299813E-01 -0.10251241491E-01  0.10417485227E-01  0.24727855281E-01  0.00000000000E+00 0.  1.
     999901    1    3    3    0    0  0.57117483110E-01  0.12680984963E-01 -0.11313770788E+00  0.88917003728E+00  0.88000000000E+00 0. -1.
        -11    1    4    4    0    0 -0.28830234555E-01 -0.95604737370E-02  0.47297574151E-01  0.56213047633E-01  0.51100000000E-03 0.  1.
         11    1    4    4    0    0 -0.48233548367E-01  0.71307302646E-02  0.55422648504E-01  0.73819059804E-01  0.51100000000E-03 0. -1.
</event>
<event>
 8    1  0.1132255E+005  0.1043930E+01  0.7957747E-01            NaN
         13   -1    0    0    0    0  0.00000000000E+00  0.00000000000E+00  0.74505805969E-08  0.10566000000E+00  0.10566000000E+00 0.  1.
     999900   -1    0    0    0    0 -0.00000000000E+00 -0.00000000000E+00 -0.74505805969E-08  0.93827000000E+00  0.93827000000E+00 0. -1.
     999902    2    1    2    0    0  0.62019461408E-02  0.86090193347E-02 -0.21278968560E-01  0.10201524086E+01  0.10198752683E+01 0.  0.
     999903    2    3    3    0    0  0.96987208293E-02  0.11043242163E+00 -0.70504335359E-01  0.13290758927E+00  0.20104254518E-01 0.  0.
         14    1    1    2    0    0 -0.62019461408E-02 -0.86090193347E-02  0.21278968560E-01  0.23777591401E-01  0.00000000000E+00 0.  1.
     999901    1    3    3    0    0 -0.34967746885E-02 -0.10182340229E+00  0.49225366800E-01  0.88724481933E+00  0.88000000000E+00 0. -1.
        -11    1    4    4    0    0  0.35832454556E-02  0.16867412303E-01 -0.33484097304E-02  0.17573338172E-01  0.51100000000E-03 0.  1.
         11    1    4    4    0    0  0.61154753738E-02  0.93565009323E-01 -0.67155925629E-01  0.11533425110E+00  0.51100000000E-03 0. -1.
</event>
<event>
 8    1  0.1132255E+005  0.1043930E+01  0.7957747E-01            NaN
         13   -1    0    0    0    0  0.00000000000E+00  0.00000000000E+00  0.74505805969E-08  0.10566000000E+00  0.10566000000E+00 0.  1.
     999900   -1    0    0    0    0 -0.00000000000E+00 -0.00000000000E+00 -0.74505805969E-08  0.93827000000E+00  0.93827000000E+00 0. -1.
     999902    2    1    2    0    0  0.18273775777E-01 -0.10472878858E-01  0.10318780073E-01  0.10204760175E+01  0.10202064561E+01 0.  0.
     999903    2    3    3    0    0 -0.25735424074E-01 -0.12739632391E+00  0.51183181121E-02  0.13163691706E+00  0.20247107319E-01 0.  0.
         14    1    1    2    0    0 -0.18273775777E-01  0.10472878858E-01 -0.10318780073E-01  0.23453982496E-01  0.00000000000E+00 0. -1.
     999901    1    3    3    0    0  0.44009199852E-01  0.11692344505E+00  0.52004619605E-02  0.88883910044E+00  0.88000000000E+00 0. -1.
        -11    1    4    4    0    0 -0.19758859929E-01 -0.90085210356E-01 -0.54737423894E-02  0.92390370966E-01  0.51100000000E-03 0. -1.
         11    1    4    4    0    0 -0.59765641448E-02 -0.37311113554E-01  0.10592060501E-01  0.39246546093E-01  0.51100000000E-03 0.  1.
</event>
<event>
 7    1  0.1132255E+005  0.1043930E+01  0.7957747E-01            NaN
         13   -1    0    0    0    0  0.00000000000E+00  0.00000000000E+00  0.74505805969E-08  0.10566000000E+00  0.10566000000E+00 0.  1.
     999900   -1    0    0    0    0 -0.00000000000E+00 -0.00000000000E+00 -0.74505805969E-08  0.93827000000E+00  0.93827000000E+00 0.  1.
     999903    2    1    2    0    0 -0.25946901931E-01 -0.51989691917E-01  0.99777337829E-01  0.11708636528E+00  0.19430131391E-01 0.  0.
         14    1    1    2    0    0  0.13863648743E-01  0.38782895026E-01 -0.18063921158E-02  0.41225923344E-01  0.00000000000E+00 0. -1.
     999901    1    1    2    0    0  0.12083253188E-01  0.13206796891E-01 -0.97970945713E-01  0.88561771137E+00  0.88000000000E+00 0.  1.
        -11    1    3    3    0    0 -0.10084568680E-01 -0.20748411653E-01  0.58822324673E-01  0.63186407656E-01  0.51100000000E-03 0. -1.
         11    1    3    3    0    0 -0.15862333251E-01 -0.31241280264E-01  0.40955013156E-01  0.53899957628E-01  0.51100000000E-03 0.  1.
</event>
<event>
 8    1  0.1132255E+005  0.1043930E+01  0.7957747E-01            NaN
         13   -1    0    0    0    0  0.00000000000E+00  0.00000000000E+00  0.74505805969E-08  0.10566000000E+00  0.10566000000E+00 0.  1.
     999900   -1    0    0    0    0 -0.00000000000E+00 -0.00000000000E+00 -0.74505805969E-08  0.93827000000E+00  0.93827000000E+00 0.  1.
     999902    2    1    2    0    0 -0.15028908976E-01  0.95690037779E-02 -0.15139101236E-01  0.10205499588E+01  0.10202821140E+01 0.  0.
     999903    2    3    3    0    0 -0.20186651694E-01  0.10159775271E+00  0.77674260052E-01  0.13088136157E+00  0.19158180246E-01 0.  0.
         14    1    1    2    0    0  0.15028908976E-01 -0.95690037779E-02  0.15139101236E-01  0.23380041157E-01  0.00000000000E+00 0.  1.
     999901    1    3    3    0    0  0.51577427189E-02 -0.92028748928E-01 -0.92813361287E-01  0.88966859727E+00  0.88000000000E+00 0.  1.
        -11    1    4    4    0    0 -0.83671904396E-02  0.59162907983E-01  0.33539657206E-01  0.68523202518E-01  0.51100000000E-03 0.  1.
         11    1    4    4    0    0 -0.11819461255E-01  0.42434844723E-01  0.44134602845E-01  0.62358159052E-01  0.51100000000E-03 0. -1.
</event>
<event>
 8    1  0.1132255E+005  0.1043930E+01  0.7957747E-01            NaN
         13   -1    0    0    0    0  0.00000000000E+00  0.00000000000E+00  0.74505805969E-08  0.10566000000E+00  0.10566000000E+00 0.  1.
     999900   -1    0    0    0    0 -0.00000000000E+00 -0.00000000000E+00 -0.74505805969E-08  0.93827000000E+00  0.93827000000E+00 0.  1.
     999902    2    1    2    0    0 -0.13972090260E-01 -0.57108236632E-03  0.19274281270E-01  0.10201173277E+01  0.10198393594E+01 0.  0.
     999903    2    3    3    0    0 -0.10262841212E+00 -0.75797119479E-01 -0.23814863108E-01  0.13142414423E+00  0.20672776463E-01 0.  0.
         14    1    1    2    0    0  0.13972090260E-01  0.57108236632E-03 -0.19274281270E-01  0.23812672252E-01  0.00000000000E+00 0.  1.
     999901    1    3    3    0    0  0.88656321860E-01  0.75226037113E-01  0.43089144378E-01  0.88869318352E+00  0.88000000000E+00 0. -1.
        -11    1    4    4    0    0 -0.49643224225E-01 -0.30825595261E-01 -0.15940393921E-02  0.58459123473E-01  0.51100000000E-03 0.  1.
         11    1    4    4    0    0 -0.52985187895E-01 -0.44971524218E-01 -0.22220823716E-01  0.72965020759E-01  0.51100000000E-03 0. -1.
</event>
<event>
 8    1  0.1132255E+005  0.1043930E+01  0.7957747E-01            NaN
         13   -1    0    0    0    0  0.00000000000E+00  0.00000000000E+00  0.74505805969E-08  0.10566000000E+00  0.10566000000E+00 0. -1.
     999900   -1    0    0    0    0 -0.00000000000E+00 -0.00000000000E+00 -0.74505805969E-08  0.93827000000E+00  0.93827000000E+00 0.  1.
     999902    2    1    2    0    0 -0.56856623957E-02  0.10536145341E-01  0.20389103933E-01  0.10202857052E+01  0.10200116998E+01 0.  0.
     999903    2    3    3    0    0  0.78926755505E-01  0.41113616105E-01 -0.91817692831E-01  0.12861053556E+00  0.13799238264E-01 0.  0.
         14    1    1    2    0    0  0.56856623957E-02 -0.10536145341E-01 -0.20389103933E-01  0.23644294761E-01  0.00000000000E+00 0.  1.
     999901    1    3    3    0    0 -0.84612417901E-01 -0.30577470764E-01  0.11220679676E+00  0.89167516968E+00  0.88000000000E+00 0. -1.
        -11    1    4    4    0    0  0.36980150110E-01  0.25722116127E-01 -0.51537861058E-01  0.68451230841E-01  0.51100000000E-03 0.  1.
         11    1    4    4    0    0  0.41946605395E-01  0.15391499978E-01 -0.40279831773E-01  0.60159304720E-01  0.51100000000E-03 0. -1.
</event>
<event>
 8    1  0.1132255E+005  0.1043930E+01  0.7957747E-01            NaN
         13   -1    0    0    0    0  0.00000000000E+00  0.00000000000E+00  0.74505805969E-08  0.10566000000E+00  0.10566000000E+00 0.  1.
     999900   -1    0    0    0    0 -0.00000000000E+00 -0.00000000000E+00 -0.74505805969E-08  0.93827000000E+00  0.93827000000E+00 0. -1.
     999902    2    1    2    0    0  0.15872216863E-02 -0.28539796037E-01  0.53018032259E-02  0.10148585647E+01  0.10144420920E+01 0.  0.
     999903    2    3    3    0    0 -0.61742018757E-01  0.34688546557E-01 -0.99921700529E-01  0.12408339572E+00  0.19924123935E-01 0.  0.
         14    1    1    2    0    0 -0.15872216863E-02  0.28539796037E-01 -0.53018032259E-02  0.29071435258E-01  0.00000000000E+00 0. -1.
     999901    1    3    3    0    0  0.63329240443E-01 -0.63228342594E-01  0.10522350375E+00  0.89077516902E+00  0.88000000000E+00 0. -1.
        -11    1    4    4    0    0 -0.30634400952E-01  0.24119787860E-01 -0.67310319685E-01  0.77789272687E-01  0.51100000000E-03 0. -1.
         11    1    4    4    0    0 -0.31107617805E-01  0.10568758697E-01 -0.32611380843E-01  0.46294123033E-01  0.51100000000E-03 0.  1.
</event>
<event>
 8    1  0.1132255E+005  0.1043930E+01  0.7957747E-01            NaN
         13   -1    0    0    0    0  0.00000000000E+00  0.00000000000E+00  0.74505805969E-08  0.10566000000E+00  0.10566000000E+00 0. -1.
     999900   -1    0    0    0    0 -0.00000000000E+00 -0.00000000000E+00 -0.74505805969E-08  0.93827000000E+00  0.93827000000E+00 0. -1.
     999902    2    1    2    0    0 -0.15801337672E-01  0.17336988297E-01 -0.76680632999E-02  0.10192510083E+01  0.10189521899E+01 0.  0.
     999903    2    3    3    0    0  0.10375125400E+00  0.66166897116E-01  0.32860404189E-01  0.12890290851E+00  0.19843706245E-01 0.  0.
         14    1    1    2    0    0  0.15801337672E-01 -0.17336988297E-01  0.76680632999E-02  0.24678991677E-01  0.00000000000E+00 0.  1.
     999901    1    3    3    0    0 -0.11955259167E+00 -0.48829908819E-01 -0.40528467489E-01  0.89034809982E+00  0.88000000000E+00 0.  1.
        -11    1    4    4    0    0  0.84900107088E-01  0.44801290704E-01  0.27968743052E-01  0.99988477042E-01  0.51100000000E-03 0.  1.
         11    1    4    4    0    0  0.18851146911E-01  0.21365606411E-01  0.48916611369E-02  0.28914431463E-01  0.51100000000E-03 0. -1.
</event>
<event>
 8    1  0.1132255E+005  0.1043930E+01  0.7957747E-01            NaN
         13   -1    0    0    0    0  0.00000000000E+00  0.00000000000E+00  0.74505805969E-08  0.10566000000E+00  0.10566000000E+00 0. -1.
     999900   -1    0    0    0    0 -0.00000000000E+00 -0.00000000000E+00 -0.74505805969E-08  0.93827000000E+00  0.93827000000E+00 0.  1.
     999902    2    1    2    0    0  0.90831114043E-02  0.19934516004E-01 -0.10454146673E-01  0.10196570310E+01  0.10193680807E+01 0.  0.
     999903    2    3    3    0    0 -0.58754032932E-01 -0.25698851338E-02  0.11234310613E+00  0.12826065928E+00  0.19266097916E-01 0.  0.
         14    1    1    2    0    0 -0.90831114043E-02 -0.19934516004E-01  0.10454146673E-01  0.24272968994E-01  0.00000000000E+00 0. -1.
     999901    1    3    3    0    0  0.67837144336E-01  0.22504401138E-01 -0.12279725281E+00  0.89139637172E+00  0.88000000000E+00 0.  1.
        -11    1    4    4    0    0 -0.27481343587E-01  0.80587889954E-02  0.46947895484E-01  0.54995766535E-01  0.51100000000E-03 0. -1.
         11    1    4    4    0    0 -0.31272689345E-01 -0.10628674129E-01  0.65395210650E-01  0.73264892749E-01  0.51100000000E-03 0.  1.
</event>
<event>
 8    1  0.1132255E+005  0.1043930E+01  0.7957747E-01            NaN
         13   -1    0    0    0    0  0.00000000000E+00  0.00000000000E+00  0.74505805969E-08  0.10566000000E+00  0.10566000000E+00 0.  1.
     999900   -1    0    0    0    0 -0.00000000000E+00 -0.00000000000E+00 -0.74505805969E-08  0.93827000000E+00  0.93827000000E+00 0.  1.
     999902    2    1    2    0    0 -0.17692146600E-01 -0.85147739989E-02 -0.13874343840E-01  0.10198881439E+01  0.10196047348E+01 0.  0.
     999903    2    3    3    0    0 -0.22994848304E-01 -0.12738603000E+00  0.11890982163E-01  0.13150627434E+00  0.19913338422E-01 0.  0.
         14    1    1    2    0    0  0.17692146600E-01  0.85147739989E-02  0.13874343840E-01  0.24041856096E-01  0.00000000000E+00 0.  1.
     999901    1    3    3    0    0  0.53027017039E-02  0.11887125600E+00 -0.25765326003E-01  0.88838186956E+00  0.88000000000E+00 0. -1.
        -11    1    4    4    0    0 -0.16934362409E-01 -0.63138279637E-01 -0.23683912316E-02  0.65414718403E-01  0.51100000000E-03 0.  1.
         11    1    4    4    0    0 -0.60604858949E-02 -0.64247750359E-01  0.14259373394E-01  0.66091555936E-01  0.51100000000E-03 0. -1.
</event>
<event>
 8    1  0.1132255E+005  0.1043930E+01  0.7957747E-01            NaN
         13   -1    0    0    0    0  0.00000000000E+00  0.00000000000E+00  0.74505805969E-08  0.10566000000E+00  0.10566000000E+00 0.  1.
     999900   -1    0    0    0    0 -0.00000000000E+00 -0.00000000000E+00 -0.74505805969E-08  0.93827000000E+00  0.93827000000E+00 0. -1.
     999902    2    1    2    0    0  0.17997796738E-01  0.11724314244E-01  0.10048440741E-01  0.10202160507E+01  0.10199404094E+01 0.  0.
     999903    2    3    3    0    0  0.66558548657E-01 -0.46523309222E-01 -0.99511999736E-01  0.13018547681E+00  0.21240564525E-01 0.  0.
         14    1    1    2    0    0 -0.17997796738E-01 -0.11724314244E-01 -0.10048440741E-01  0.23713949339E-01  0.00000000000E+00 0. -1.
     999901    1    3    3    0    0 -0.48560751919E-01  0.58247623466E-01  0.10956044048E+00  0.89003057385E+00  0.88000000000E+00 0.  1.
        -11    1    4    4    0    0  0.43428970081E-01 -0.37268788863E-01 -0.80843420631E-01  0.99050279383E-01  0.51100000000E-03 0. -1.
         11    1    4    4    0    0  0.23129578577E-01 -0.92545203585E-02 -0.18668579105E-01  0.31135197430E-01  0.51100000000E-03 0.  1.
</event>
<event>
 8    1  0.1132255E+005  0.1043930E+01  0.7957747E-01            NaN
         13   -1    0    0    0    0  0.00000000000E+00  0.00000000000E+00  0.74505805969E-08  0.10566000000E+00  0.10566000000E+00 0. -1.
     999900   -1    0    0    0    0 -0.00000000000E+00 -0.00000000000E+00 -0.74505805969E-08  0.93827000000E+00  0.93827000000E+00 0.  1.
     999902    2    1    2    0    0  0.35637002432E-02 -0.16867073673E-01  0.15679748726E-01  0.10206265098E+01  0.10203604363E+01 0.  0.
     999903    2    3    3    0    0 -0.23212191757E-01  0.12485110202E+00 -0.50411431497E-02  0.12864537490E+00  0.19940306902E-01 0.  0.
         14    1    1    2    0    0 -0.35637002432E-02  0.16867073673E-01 -0.15679748726E-01  0.23303490164E-01  0.00000000000E+00 0.  1.
     999901    1    3    3    0    0  0.26775892000E-01 -0.14171817569E+00  0.20720891875E-01  0.89198113493E+00  0.88000000000E+00 0. -1.
        -11    1    4    4    0    0 -0.16015498523E-01  0.40126888082E-01 -0.59089603386E-02  0.43610093710E-01  0.51100000000E-03 0.  1.
         11    1    4    4    0    0 -0.71966932339E-02  0.84724213934E-01  0.86781718891E-03  0.85035281195E-01  0.51100000000E-03 0. -1.
</event>
<event>
 8    1  0.1132255E+005  0.1043930E+01  0.7957747E-01            NaN
         13   -1    0    0    0    0  0.00000000000E+00  0.00000000000E+00  0.74505805969E-08  0.10566000000E+00  0.10566000000E+00 0. -1.
     999900   -1    0    0    0    0 -0.00000000000E+00 -0.00000000000E+00 -0.74505805969E-08  0.93827000000E+00  0.93827000000E+00 0. -1.
     999902    2    1    2    0    0 -0.31365754559E-03  0.21176275684E-01  0.10164972299E-01  0.10204383058E+01  0.10201678667E+01 0.  0.
     999903    2    3    3    0    0 -0.25995850199E-01  0.11227326601E+00 -0.60729836712E-01  0.13252822558E+00  0.24383334906E-01 0.  0.
         14    1    1    2    0    0  0.31365754559E-03 -0.21176275684E-01 -0.10164972299E-01  0.23491694165E-01  0.00000000000E+00 0.  1.
     999901    1    3    3    0    0  0.25682192653E-01 -0.91096990327E-01  0.70894809011E-01  0.88791008025E+00  0.88000000000E+00 0. -1.
        -11    1    4    4    0    0 -0.14493779195E-01  0.90232872487E-01 -0.56096210717E-01  0.10723379547E+00  0.51100000000E-03 0.  1.
         11    1    4    4    0    0 -0.11502071004E-01  0.22040393524E-01 -0.46336259952E-02  0.25294430117E-01  0.51100000000E-03 0. -1.
</event>
<event>
 8    1  0.1132255E+005  0.1043930E+01  0.7957747E-01            NaN
         13   -1    0    0    0    0  0.00000000000E+00  0.00000000000E+00  0.74505805969E-08  0.10566000000E+00  0.10566000000E+00 0. -1.
     999900   -1    0    0    0    0 -0.00000000000E+00 -0.00000000000E+00 -0.74505805969E-08  0.93827000000E+00  0.93827000000E+00 0. -1.
     999902    2    1    2    0    0  0.70719317692E-02 -0.19512947576E-01 -0.89015611249E-02  0.10213467068E+01  0.10210970034E+01 0.  0.
     999903    2    3    3    0    0  0.19119150865E-01 -0.70167373948E-01 -0.11123778013E+00  0.13388757639E+00  0.16218418110E-01 0.  0.
         14    1    1    2    0    0 -0.70719317692E-02  0.19512947576E-01  0.89015611249E-02  0.22583293217E-01  0.00000000000E+00 0. -1.
     999901    1    3    3    0    0 -0.12047219096E-01  0.50654426372E-01  0.10233621901E+00  0.88745913039E+00  0.88000000000E+00 0.  1.
        -11    1    4    4    0    0  0.15863227601E-01 -0.38662390641E-01 -0.74116453162E-01  0.85087791077E-01  0.51100000000E-03 0.  1.
         11    1    4    4    0    0  0.32559232640E-02 -0.31504983308E-01 -0.37121326970E-01  0.48799785313E-01  0.51100000000E-03 0. -1.
</event>
<event>
 8    1  0.1132255E+005  0.1043930E+01  0.7957747E-01            NaN
         13   -1    0    0    0    0  0.00000000000E+00  0.00000000000E+00  0.74505805969E-08  0.10566000000E+00  0.10566000000E+00 0. -1.
     999900   -1    0    0    0    0 -0.00000000000E+00 -0.00000000000E+00 -0.74505805969E-08  0.93827000000E+00  0.93827000000E+00 0. -1.
     999902    2    1    2    0    0 -0.15237742616E-01 -0.16694532855E-01 -0.72368019926E-02  0.10201967421E+01  0.10199206465E+01 0.  0.
     999903    2    3    3    0    0 -0.21239814207E-01 -0.12980429278E+00  0.59611130839E-02  0.13283885060E+00  0.17616504426E-01 0.  0.
         14    1    1    2    0    0  0.15237742616E-01  0.16694532855E-01  0.72368019926E-02  0.23733257896E-01  0.00000000000E+00 0.  1.
     999901    1    3    3    0    0  0.60020715910E-02  0.11310975992E+00 -0.13197915077E-01  0.88735789150E+00  0.88000000000E+00 0. -1.
        -11    1    4    4    0    0 -0.15903948451E-01 -0.10258179831E+00  0.11827603884E-01  0.10448020987E+00  0.51100000000E-03 0. -1.
         11    1    4    4    0    0 -0.53358657567E-02 -0.27222494470E-01 -0.58664908003E-02  0.28358640726E-01  0.51100000000E-03 0.  1.
</event>
<event>
 8    1  0.1132255E+005  0.1043930E+01  0.7957747E-01            NaN
         13   -1    0    0    0    0  0.00000000000E+00  0.00000000000E+00  0.74505805969E-08  0.10566000000E+00  0.10566000000E+00 0.  1.
     999900   -1    0    0    0    0 -0.00000000000E+00 -0.00000000000E+00 -0.74505805969E-08  0.93827000000E+00  0.93827000000E+00 0.  1.
     999902    2    1    2    0    0  0.15810922572E-01 -0.11867344824E-01 -0.14164003752E-01  0.10196104986E+01  0.10193204259E+01 0.  0.
     999903    2    3    3    0    0 -0.74354677579E-01 -0.84407445878E-01 -0.63449697805E-01  0.13066675385E+00  0.19867093686E-01 0.  0.
         14    1    1    2    0    0 -0.15810922572E-01  0.11867344824E-01  0.14164003752E-01  0.24319501394E-01  0.00000000000E+00 0.  1.
     999901    1    3    3    0    0  0.90165600151E-01  0.72540101054E-01  0.49285694052E-01  0.88894374476E+00  0.88000000000E+00 0. -1.
        -11    1    4    4    0    0 -0.48963398978E-01 -0.68704632906E-01 -0.46718169346E-01  0.96439563926E-01  0.51100000000E-03 0. -1.
         11    1    4    4    0    0 -0.25391278601E-01 -0.15702812972E-01 -0.16731528458E-01  0.34227189919E-01  0.51100000000E-03 0.  1.
</event>
<event>
 8    1  0.1132255E+005  0.1043930E+01  0.7957747E-01            NaN
         13   -1    0    0    0    0  0.00000000000E+00  0.00000000000E+00  0.74505805969E-08  0.10566000000E+00  0.10566000000E+00 0.  1.
     999900   -1    0    0    0    0 -0.00000000000E+00 -0.00000000000E+00 -0.74505805969E-08  0.93827000000E+00  0.93827000000E+00 0.  1.
     999902    2    1    2    0    0  0.41844723229E-02  0.23012376901E-01 -0.99726562527E-02  0.10185029834E+01  0.10181855401E+01 0.  0.
     999903    2    3    3    0    0 -0.54367159947E-01 -0.28119229053E-01  0.10947833956E+00  0.12703718197E+00  0.20160844372E-01 0.  0.
         14    1    1    2    0    0 -0.41844723229E-02 -0.23012376901E-01  0.99726562527E-02  0.25427016577E-01  0.00000000000E+00 0.  1.
     999901    1    3    3    0    0  0.58551632270E-01  0.51131605954E-01 -0.11945099581E+00  0.89146580146E+00  0.88000000000E+00 0.  1.
        -11    1    4    4    0    0 -0.46620649099E-01 -0.30481338956E-01  0.88817620707E-01  0.10484001057E+00  0.51100000000E-03 0.  1.
         11    1    4    4    0    0 -0.77465108475E-02  0.23621099035E-02  0.20660718852E-01  0.22197171396E-01  0.51100000000E-03 0. -1.
</event>
<event>
 8    1  0.1132255E+005  0.1043930E+01  0.7957747E-01            NaN
         13   -1    0    0    0    0  0.00000000000E+00  0.00000000000E+00  0.74505805969E-08  0.10566000000E+00  0.10566000000E+00 0.  1.
     999900   -1    0    0    0    0 -0.00000000000E+00 -0.00000000000E+00 -0.74505805969E-08  0.93827000000E+00  0.93827000000E+00 0. -1.
     999902    2    1    2    0    0 -0.20693799538E-01 -0.24968384518E-02 -0.10477409958E-01  0.10206009696E+01  0.10203343057E+01 0.  0.
     999903    2    3    3    0    0 -0.25134760589E-01 -0.12499076781E+00  0.24831071391E-01  0.13140404328E+00  0.19899554140E-01 0.  0.
         14    1    1    2    0    0  0.20693799538E-01  0.24968384518E-02  0.10477409958E-01  0.23329030434E-01  0.00000000000E+00 0.  1.
     999901    1    3    3    0    0  0.44409610513E-02  0.12249392936E+00 -0.35308481349E-01  0.88919692629E+00  0.88000000000E+00 0. -1.
        -11    1    4    4    0    0 -0.18287316190E-01 -0.51712903703E-01  0.16798570020E-01  0.57368139403E-01  0.51100000000E-03 0. -1.
         11    1    4    4    0    0 -0.68474443993E-02 -0.73277864110E-01  0.80325013710E-02  0.74035903875E-01  0.51100000000E-03 0.  1.
</event>
<event>
 8    1  0.1132255E+005  0.1043930E+01  0.7957747E-01            NaN
         13   -1    0    0    0    0  0.00000000000E+00  0.00000000000E+00  0.74505805969E-08  0.10566000000E+00  0.10566000000E+00 0. -1.
     999900   -1    0    0    0    0 -0.00000000000E+00 -0.00000000000E+00 -0.74505805969E-08  0.93827000000E+00  0.93827000000E+00 0. -1.
     999902    2    1    2    0    0  0.16158490717E-01  0.14273622185E-01 -0.99138797363E-02  0.10201998899E+01  0.10199238684E+01 0.  0.
     999903    2    3    3    0    0 -0.80642241790E-02  0.71322589797E-01 -0.10939749830E+00  0.13242834556E+00  0.20433074855E-01 0.  0.
         14    1    1    2    0    0 -0.16158490717E-01 -0.14273622185E-01  0.99138797363E-02  0.23730110071E-01  0.00000000000E+00 0. -1.
     999901    1    3    3    0    0  0.24222714896E-01 -0.57048967612E-01  0.99483618561E-01  0.88777154437E+00  0.88000000000E+00 0.  1.
        -11    1    4    4    0    0 -0.13295690422E-01  0.65143565816E-01 -0.98598257601E-01  0.11892155849E+00  0.51100000000E-03 0. -1.
         11    1    4    4    0    0  0.52314662425E-02  0.61790239816E-02 -0.10799240697E-01  0.13506787073E-01  0.51100000000E-03 0.  1.
</event>
<event>
 8    1  0.1132255E+005  0.1043930E+01  0.7957747E-01            NaN
         13   -1    0    0    0    0  0.00000000000E+00  0.00000000000E+00  0.74505805969E-08  0.10566000000E+00  0.10566000000E+00 0. -1.
     999900   -1    0    0    0    0 -0.00000000000E+00 -0.00000000000E+00 -0.74505805969E-08  0.93827000000E+00  0.93827000000E+00 0. -1.
     999902    2    1    2    0    0 -0.17749107548E-01  0.32933976694E-02 -0.14965725149E-01  0.10204811148E+01  0.10202116719E+01 0.  0.
     999903    2    3    3    0    0 -0.87795914674E-01  0.27101889595E-01 -0.94919890035E-01  0.13376466186E+00  0.20989620866E-01 0.  0.
         14    1    1    2    0    0  0.17749107548E-01 -0.32933976694E-02  0.14965725149E-01  0.23448885180E-01  0.00000000000E+00 0. -1.
     999901    1    3    3    0    0  0.70046807126E-01 -0.23808491926E-01  0.79954164886E-01  0.88671645297E+00  0.88000000000E+00 0.  1.
        -11    1    4    4    0    0 -0.24184748611E-01  0.99853393615E-02 -0.14890166973E-01  0.30109587527E-01  0.51100000000E-03 0.  1.
         11    1    4    4    0    0 -0.63611166062E-01  0.17116550234E-01 -0.80029723062E-01  0.10365507433E+00  0.51100000000E-03 0. -1.
</event>
<event>
 8    1  0.1132255E+005  0.1043930E+01  0.7957747E-01            NaN
         13   -1    0    0    0    0  0.00000000000E+00  0.00000000000E+00  0.74505805969E-08  0.10566000000E+00  0.10566000000E+00 0. -1.
     999900   -1    0    0    0    0 -0.00000000000E+00 -0.00000000000E+00 -0.74505805969E-08  0.93827000000E+00  0.93827000000E+00 0.  1.
     999902    2    1    2    0    0  0.13754578866E-01  0.19333060234E-01  0.19168148632E-02  0.10201260122E+01  0.10198482489E+01 0.  0.
     999903    2    3    3    0    0 -0.84000352141E-01  0.28464378060E-01  0.92852000841E-01  0.13000882013E+00  0.20359746394E-01 0.  0.
         14    1    1    2    0    0 -0.13754578866E-01 -0.19333060234E-01 -0.19168148632E-02  0.23803987839E-01  0.00000000000E+00 0. -1.
     999901    1    3    3    0    0  0.97754931007E-01 -0.91313178258E-02 -0.90935185978E-01  0.89011719203E+00  0.88000000000E+00 0.  1.
        -11    1    4    4    0    0 -0.19827080505E-01  0.59331721589E-02  0.10537597726E-01  0.23229673696E-01  0.51100000000E-03 0. -1.
         11    1    4    4    0    0 -0.64173271636E-01  0.22531205901E-01  0.82314403115E-01  0.10677914643E+00  0.51100000000E-03 0.  1.
</event>
<event>
 8    1  0.1132255E+005  0.1043930E+01  0.7957747E-01            NaN
         13   -1    0    0    0    0  0.00000000000E+00  0.00000000000E+00  0.74505805969E-08  0.10566000000E+00  0.10566000000E+00 0.  1.
     999900   -1    0    0    0    0 -0.00000000000E+00 -0.00000000000E+00 -0.74505805969E-08  0.93827000000E+00  0.93827000000E+00 0.  1.
     999902    2    1    2    0    0  0.12633085451E-02  0.73724391539E-02 -0.21745920122E-01  0.10209336123E+01  0.10206745842E+01 0.  0.
     999903    2    3    3    0    0 -0.12123784208E+00  0.47468850247E-01  0.29250452205E-02  0.13120168036E+00  0.15919137685E-01 0.  0.
         14    1    1    2    0    0 -0.12633085451E-02 -0.73724391539E-02  0.21745920122E-01  0.22996387749E-01  0.00000000000E+00 0.  1.
     999901    1    3    3    0    0  0.12250115063E+00 -0.40096411094E-01 -0.24670965343E-01  0.88973193189E+00  0.88000000000E+00 0.  1.
        -11    1    4    4    0    0 -0.20324139720E-01  0.61376347298E-02  0.61294577692E-02  0.22103678177E-01  0.51100000000E-03 0.  1.
         11    1    4    4    0    0 -0.10091370236E+00  0.41331215518E-01 -0.32044125487E-02  0.10909800219E+00  0.51100000000E-03 0. -1.
</event>
<event>
 8    1  0.1132255E+005  0.1043930E+01  0.7957747E-01            NaN
         13   -1    0    0    0    0  0.00000000000E+00  0.00000000000E+00  0.74505805969E-08  0.10566000000E+00  0.10566000000E+00 0.  1.
     999900   -1    0    0    0    0 -0.00000000000E+00 -0.00000000000E+00 -0.74505805969E-08  0.93827000000E+00  0.93827000000E+00 0.  1.
     999902    2    1    2    0    0 -0.20189282977E-01  0.13066412390E-02  0.85379922026E-02  0.10219706792E+01  0.10217347295E+01 0.  0.
     999903    2    3    3    0    0 -0.26551851792E-01 -0.12056542306E+00  0.44955712154E-01  0.13280279143E+00  0.19353120823E-01 0.  0.
         14    1    1    2    0    0  0.20189282977E-01 -0.13066412390E-02 -0.85379922026E-02  0.21959320784E-01  0.00000000000E+00 0. -1.
     999901    1    3    3    0    0  0.63625688153E-02  0.12187206430E+00 -0.36417719952E-01  0.88916788778E+00  0.88000000000E+00 0. -1.
        -11    1    4    4    0    0 -0.16237739735E-01 -0.48058066498E-01  0.10241376988E-01  0.51753153246E-01  0.51100000000E-03 0.  1.
         11    1    4    4    0    0 -0.10314112057E-01 -0.72507356562E-01  0.34714335166E-01  0.81049638187E-01  0.51100000000E-03 0. -1.
</event>
<event>
 8    1  0.1132255E+005  0.1043930E+01  0.7957747E-01            NaN
         13   -1    0    0    0    0  0.00000000000E+00  0.00000000000E+00  0.74505805969E-08  0.10566000000E+00  0.10566000000E+00 0.  1.
     999900   -1    0    0    0    0 -0.00000000000E+00 -0.00000000000E+00 -0.74505805969E-08  0.93827000000E+00  0.93827000000E+00 0.  1.
     999902    2    1    2    0    0 -0.14502749468E-01  0.10651230218E-01  0.15358182048E-01  0.10202730306E+01  0.10199987278E+01 0.  0.
     999903    2    3    3    0    0 -0.58332131957E-01  0.78369292125E-02 -0.11389881667E+00  0.12974717087E+00  0.19933209298E-01 0.  0.
         14    1    1    2    0    0  0.14502749468E-01 -0.10651230218E-01 -0.15358182048E-01  0.23656969440E-01  0.00000000000E+00 0. -1.
     999901    1    3    3    0    0  0.43829382489E-01  0.28143010051E-02  0.12925699871E+00  0.89052585969E+00  0.88000000000E+00 0. -1.
        -11    1    4    4    0    0 -0.10344867639E-01  0.12333552714E-02 -0.75227540825E-02  0.12860419965E-01  0.51100000000E-03 0.  1.
         11    1    4    4    0    0 -0.47987264318E-01  0.66035739412E-02 -0.10637606258E+00  0.11688675090E+00  0.51100000000E-03 0. -1.
</event>
<event>
 8    1  0.1132255E+005  0.1043930E+01  0.7957747E-01            NaN
         13   -1    0    0    0    0  0.00000000000E+00  0.00000000000E+00  0.74505805969E-08  0.10566000000E+00  0.10566000000E+00 0. -1.
     999900   -1    0    0    0    0 -0.00000000000E+00 -0.00000000000E+00 -0.74505805969E-08  0.93827000000E+00  0.93827000000E+00 0. -1.
     999902    2    1    2    0    0 -0.17166516080E-01 -0.78090954546E-02 -0.13448004383E-01  0.10207670972E+01  0.10205042609E+01 0.  0.
     999903    2    3    3    0    0 -0.23944522414E-01  0.83672673267E-01 -0.97134953326E-01  0.13204984133E+00  0.20676194845E-01 0.  0.
         14    1    1    2    0    0  0.17166516080E-01  0.78090954546E-02  0.13448004383E-01  0.23162902842E-01  0.00000000000E+00 0. -1.
     999901    1    3    3    0    0  0.67780063332E-02 -0.91481768721E-01  0.83686948942E-01  0.88871725583E+00  0.88000000000E+00 0. -1.
        -11    1    4    4    0    0 -0.17105106474E-01  0.30268315103E-01 -0.29491425958E-01  0.45593430368E-01  0.51100000000E-03 0. -1.
         11    1    4    4    0    0 -0.68394159400E-02  0.53404358164E-01 -0.67643527368E-01  0.86456410965E-01  0.51100000000E-03 0.  1.
</event>
<event>
 8    1  0.1132255E+005  0.1043930E+01  0.7957747E-01            NaN
         13   -1    0    0    0    0  0.00000000000E+00  0.00000000000E+00  0.74505805969E-08  0.10566000000E+00  0.10566000000E+00 0. -1.
     999900   -1    0    0    0    0 -0.00000000000E+00 -0.00000000000E+00 -0.74505805969E-08  0.93827000000E+00  0.93827000000E+00 0. -1.
     999902    2    1    2    0    0 -0.22037711330E-01 -0.81257465851E-02 -0.75454355261E-02  0.10192597330E+01  0.10189611284E+01 0.  0.
     999903    2    3    3    0    0 -0.76925938252E-01 -0.91322421574E-01 -0.52979930921E-01  0.13246849623E+00  0.21991924758E-01 0.  0.
         14    1    1    2    0    0  0.22037711330E-01  0.81257465851E-02  0.75454355261E-02  0.24670267034E-01  0.00000000000E+00 0.  1.
     999901    1    3    3    0    0  0.54888226922E-01  0.83196674988E-01  0.45434495395E-01  0.88679123674E+00  0.88000000000E+00 0.  1.
        -11    1    4    4    0    0 -0.45166784150E-01 -0.41230277691E-01 -0.18658105914E-01  0.63940286410E-01  0.51100000000E-03 0.  1.
         11    1    4    4    0    0 -0.31759154102E-01 -0.50092143883E-01 -0.34321825007E-01  0.68528209818E-01  0.51100000000E-03 0. -1.
</event>
<event>
 8    1  0.1132255E+005  0.1043930E+01  0.7957747E-01            NaN
         13   -1    0    0    0    0  0.00000000000E+00  0.00000000000E+00  0.74505805969E-08  0.10566000000E+00  0.10566000000E+00 0. -1.
     999900   -1    0    0    0    0 -0.00000000000E+00 -0.00000000000E+00 -0.74505805969E-08  0.93827000000E+00  0.93827000000E+00 0. -1.
     999902    2    1    2    0    0  0.13547997143E-01  0.15576216457E-01  0.11661290999E-01  0.10202202456E+01  0.10199447030E+01 0.  0.
     999903    2    3    3    0    0 -0.33826429322E-01 -0.33856017259E-01 -0.11730305897E+00  0.12818903226E+00  0.19543876861E-01 0.  0.
         14    1    1    2    0    0 -0.13547997143E-01 -0.15576216457E-01 -0.11661290999E-01  0.23709754395E-01  0.00000000000E+00 0.  1.
     999901    1    3    3    0    0  0.47374426466E-01  0.49432233716E-01  0.12896434997E+00  0.89203121334E+00  0.88000000000E+00 0.  1.
        -11    1    4    4    0    0 -0.15490037937E-01 -0.29901970721E-02 -0.36723380316E-01  0.39971869317E-01  0.51100000000E-03 0. -1.
         11    1    4    4    0    0 -0.18336391385E-01 -0.30865820187E-01 -0.80579678657E-01  0.88217162946E-01  0.51100000000E-03 0.  1.
</event>
<event>
 8    1  0.1132255E+005  0.1043930E+01  0.7957747E-01            NaN
         13   -1    0    0    0    0  0.00000000000E+00  0.00000000000E+00  0.74505805969E-08  0.10566000000E+00  0.10566000000E+00 0.  1.
     999900   -1    0    0    0    0 -0.00000000000E+00 -0.00000000000E+00 -0.74505805969E-08  0.93827000000E+00  0.93827000000E+00 0.  1.
     999902    2    1    2    0    0  0.76878760885E-03 -0.18082241657E-01 -0.17250382250E-01  0.10189273164E+01  0.10186205093E+01 0.  0.
     999903    2    3    3    0    0  0.66076765002E-01  0.48328520113E-02  0.10716794924E+00  0.12748457871E+00  0.19438444705E-01 0.  0.
         14    1    1    2    0    0 -0.76878760885E-03  0.18082241657E-01  0.17250382250E-01  0.25002683566E-01  0.00000000000E+00 0.  1.
     999901    1    3    3    0    0 -0.65307977393E-01 -0.22915093669E-01 -0.12441833149E+00  0.89144273772E+00  0.88000000000E+00 0.  1.
        -11    1    4    4    0    0  0.37834550441E-01  0.11386333895E-01  0.69508401565E-01  0.79954867367E-01  0.51100000000E-03 0. -1.
         11    1    4    4    0    0  0.28242214560E-01 -0.65534818839E-02  0.37659547677E-01  0.47529711343E-01  0.51100000000E-03 0.  1.
</event>
<event>
 8    1  0.1132255E+005  0.1043930E+01  0.7957747E-01            NaN
         13   -1    0    0    0    0  0.00000000000E+00  0.00000000000E+00  0.74505805969E-08  0.10566000000E+00  0.10566000000E+00 0.  1.
     999900   -1    0    0    0    0 -0.00000000000E+00 -0.00000000000E+00 -0.74505805969E-08  0.93827000000E+00  0.93827000000E+00 0.  1.
     999902    2    1    2    0    0 -0.24241492684E-02  0.22415844926E-01  0.54793570552E-02  0.10207271994E+01  0.10204634465E+01 0.  0.
     999903    2    3    3    0    0  0.99422717278E-01 -0.78512816821E-01 -0.13053486271E-01  0.12892966334E+00  0.20082964637E-01 0.  0.
         14    1    1    2    0    0  0.24241492684E-02 -0.22415844926E-01 -0.54793570552E-02  0.23202800631E-01  0.00000000000E+00 0.  1.
     999901    1    3    3    0    0 -0.10184686655E+00  0.10092866175E+00  0.18532843326E-01  0.89179753603E+00  0.88000000000E+00 0.  1.
        -11    1    4    4    0    0  0.35506230419E-02 -0.60499728017E-03 -0.34606053555E-02  0.50209417564E-02  0.51100000000E-03 0. -1.
         11    1    4    4    0    0  0.95872094236E-01 -0.77907819541E-01 -0.95928809155E-02  0.12390872158E+00  0.51100000000E-03 0.  1.
</event>
<event>
 8    1  0.1132255E+005  0.1043930E+01  0.7957747E-01            NaN
         13   -1    0    0    0    0  0.00000000000E+00  0.00000000000E+00  0.74505805969E-08  0.10566000000E+00  0.10566000000E+00 0. -1.
     999900   -1    0    0    0    0 -0.00000000000E+00 -0.00000000000E+00 -0.74505805969E-08  0.93827000000E+00  0.93827000000E+00 0. -1.
     999902    2    1    2    0    0 -0.14001092296E-01  0.20347242023E-01  0.54783186206E-02  0.10186307348E+01  0.10183165132E+01 0.  0.
     999903    2    3    3    0    0 -0.44633910674E-01  0.56081008869E-01  0.10829986246E+00  0.13139483523E+00  0.19961888173E-01 0.  0.
         14    1    1    2    0    0  0.14001092296E-01 -0.20347242023E-01 -0.54783186206E-02  0.25299265174E-01  0.00000000000E+00 0.  1.
     999901    1    3    3    0    0  0.30632818378E-01 -0.35733766846E-01 -0.10282154384E+00  0.88723589960E+00  0.88000000000E+00 0. -1.
        -11    1    4    4    0    0 -0.99159296708E-02  0.21467252577E-01  0.22896857297E-01  0.32919535074E-01  0.51100000000E-03 0. -1.
         11    1    4    4    0    0 -0.34717981003E-01  0.34613756292E-01  0.85403005159E-01  0.98475300156E-01  0.51100000000E-03 0.  1.
</event>
<event>
 8    1  0.1132255E+005  0.1043930E+01  0.7957747E-01            NaN
         13   -1    0    0    0    0  0.00000000000E+00  0.00000000000E+00  0.74505805969E-08  0.10566000000E+00  0.10566000000E+00 0.  1.
     999900   -1    0    0    0    0 -0.00000000000E+00 -0.00000000000E+00 -0.74505805969E-08  0.93827000000E+00  0.93827000000E+00 0. -1.
     999902    2    1    2    0    0  0.21936517824E-02  0.31062386722E-02 -0.23007603327E-01  0.10206102522E+01  0.10203438030E+01 0.  0.
     999903    2    3    3    0    0  0.96803752336E-01  0.84445320266E-01 -0.20033390778E-01  0.13180433229E+00  0.21657947333E-01 0.  0.
         14    1    1    2    0    0 -0.21936517824E-02 -0.31062386722E-02  0.23007603327E-01  0.23319747805E-01  0.00000000000E+00 0.  1.
     999901    1    3    3    0    0 -0.94610100554E-01 -0.81339081594E-01 -0.29742125489E-02  0.88880591991E+00  0.88000000000E+00 0.  1.
        -11    1    4    4    0    0  0.86583160610E-01  0.80828032745E-01 -0.13701265400E-01  0.11923841819E+00  0.51100000000E-03 0. -1.
         11    1    4    4    0    0  0.10220591726E-01  0.36172875209E-02 -0.63321253776E-02  0.12565914095E-01  0.51100000000E-03 0.  1.
</event>
<event>
 8    1  0.1132255E+005  0.1043930E+01  0.7957747E-01            NaN
         13   -1    0    0    0    0  0.00000000000E+00  0.00000000000E+00  0.74505805969E-08  0.10566000000E+00  0.10566000000E+00 0.  1.
     999900   -1    0    0    0    0 -0.00000000000E+00 -0.00000000000E+00 -0.74505805969E-08  0.93827000000E+00  0.93827000000E+00 0.  1.
     999902    2    1    2    0    0 -0.14883573986E-01  0.27203648693E-02 -0.19743136436E-01  0.10190560659E+01  0.10187524493E+01 0.  0.
     999903    2    3    3    0    0  0.28527506553E-01  0.19150680892E-01 -0.12530321538E+00  0.13153287893E+00  0.20480118344E-01 0.  0.
         14    1    1    2    0    0  0.14883573986E-01 -0.27203648693E-02  0.19743136436E-01  0.24873934067E-01  0.00000000000E+00 0.  1.
     999901    1    3    3    0    0 -0.43411080540E-01 -0.16430316023E-01  0.10556007894E+00  0.88752318700E+00  0.88000000000E+00 0. -1.
        -11    1    4    4    0    0  0.23018860815E-01  0.33731591277E-02 -0.74387368437E-01  0.77942208461E-01  0.51100000000E-03 0.  1.
         11    1    4    4    0    0  0.55086457384E-02  0.15777521764E-01 -0.50915846940E-01  0.53590670471E-01  0.51100000000E-03 0. -1.
</event>
<event>
 8    1  0.1132255E+005  0.1043930E+01  0.7957747E-01            NaN
         13   -1    0    0    0    0  0.00000000000E+00  0.00000000000E+00  0.74505805969E-08  0.10566000000E+00  0.10566000000E+00 0.  1.
     999900   -1    0    0    0    0 -0.00000000000E+00 -0.00000000000E+00 -0.74505805969E-08  0.93827000000E+00  0.93827000000E+00 0.  1.
     999902    2    1    2    0    0 -0.85071889438E-02 -0.10496444691E-01  0.19223123839E-01  0.10204337002E+01  0.10201631538E+01 0.  0.
     999903    2    3    3    0    0  0.94508231874E-01  0.85717433070E-01  0.73114265884E-03  0.12902400730E+00  0.19167046366E-01 0.  0.
         14    1    1    2    0    0  0.85071889438E-02  0.10496444691E-01 -0.19223123839E-01  0.23496299815E-01  0.00000000000E+00 0. -1.
     999901    1    3    3    0    0 -0.10301542082E+00 -0.96213877761E-01  0.18491981180E-01  0.89140969288E+00  0.88000000000E+00 0.  1.
        -11    1    4    4    0    0  0.50393608722E-01  0.58369135437E-01  0.57740989858E-03  0.77117224372E-01  0.51100000000E-03 0. -1.
         11    1    4    4    0    0  0.44114623152E-01  0.27348297633E-01  0.15373276027E-03  0.51906782929E-01  0.51100000000E-03 0.  1.
</event>
<event>
 8    1  0.1132255E+005  0.1043930E+01  0.7957747E-01            NaN
         13   -1    0    0    0    0  0.00000000000E+00  0.00000000000E+00  0.74505805969E-08  0.10566000000E+00  0.10566000000E+00 0. -1.
     999900   -1    0    0    0    0 -0.00000000000E+00 -0.00000000000E+00 -0.74505805969E-08  0.93827000000E+00  0.93827000000E+00 0. -1.
     999902    2    1    2    0    0  0.22644117200E-01 -0.80509362306E-02 -0.23338972298E-02  0.10197841785E+01  0.10194982835E+01 0.  0.
     999903    2    3    3    0    0  0.71075782365E-01  0.36614904885E-01  0.10204116279E+00  0.13117019220E+00  0.20020047978E-01 0.  0.
         14    1    1    2    0    0 -0.22644117200E-01  0.80509362306E-02  0.23338972298E-02  0.24145821465E-01  0.00000000000E+00 0. -1.
     999901    1    3    3    0    0 -0.48431665165E-01 -0.44665841115E-01 -0.10437506002E+00  0.88861398633E+00  0.88000000000E+00 0. -1.
        -11    1    4    4    0    0  0.60257978113E-01  0.25796252979E-01  0.91610743417E-01  0.11264661568E+00  0.51100000000E-03 0.  1.
         11    1    4    4    0    0  0.10817804252E-01  0.10818651906E-01  0.10430419368E-01  0.18523576520E-01  0.51100000000E-03 0. -1.
</event>
<event>
 8    1  0.1132255E+005  0.1043930E+01  0.7957747E-01            NaN
         13   -1    0    0    0    0  0.00000000000E+00  0.00000000000E+00  0.74505805969E-08  0.10566000000E+00  0.10566000000E+00 0.  1.
     999900   -1    0    0    0    0 -0.00000000000E+00 -0.00000000000E+00 -0.74505805969E-08  0.93827000000E+00  0.93827000000E+00 0.  1.
     999902    2    1    2    0    0 -0.17656806176E-01  0.78416954949E-02 -0.13064392391E-01  0.10206076215E+01  0.10203411114E+01 0.  0.
     999903    2    3    3    0    0  0.59485488412E-01  0.40763644110E-01  0.10483911637E+00  0.12879148250E+00  0.19894914727E-01 0.  0.
         14    1    1    2    0    0  0.17656806176E-01 -0.78416954949E-02  0.13064392391E-01  0.23322378548E-01  0.00000000000E+00 0. -1.
     999901    1    3    3    0    0 -0.77142294588E-01 -0.32921948615E-01 -0.11790350876E+00  0.89181613895E+00  0.88000000000E+00 0.  1.
        -11    1    4    4    0    0  0.38518016417E-01  0.15116620713E-01  0.63848103000E-01  0.76085420339E-01  0.51100000000E-03 0. -1.
         11    1    4    4    0    0  0.20967471995E-01  0.25647023396E-01  0.40991013365E-01  0.52706062162E-01  0.51100000000E-03 0.  1.
</event>
<event>
 8    1  0.1132255E+005  0.1043930E+01  0.7957747E-01            NaN
         13   -1    0    0    0    0  0.00000000000E+00  0.00000000000E+00  0.74505805969E-08  0.10566000000E+00  0.10566000000E+00 0. -1.
     999900   -1    0    0    0    0 -0.00000000000E+00 -0.00000000000E+00 -0.74505805969E-08  0.93827000000E+00  0.93827000000E+00 0. -1.
     999902    2    1    2    0    0 -0.21110655082E-01  0.85961117221E-02  0.12546861951E-01  0.10179112252E+01  0.10175786387E+01 0.  0.
     999903    2    3    3    0    0  0.45873331915E-01  0.11794114212E+00 -0.65689333919E-02  0.12841215059E+00  0.20785907450E-01 0.  0.
         14    1    1    2    0    0  0.21110655082E-01 -0.85961117221E-02 -0.12546861951E-01  0.26018774751E-01  0.00000000000E+00 0.  1.
     999901    1    3    3    0    0 -0.66983986997E-01 -0.10934503040E+00  0.19115795343E-01  0.88949907466E+00  0.88000000000E+00 0. -1.
        -11    1    4    4    0    0  0.36356886087E-01  0.71018234368E-01  0.17992971577E-02  0.79805459525E-01  0.51100000000E-03 0.  1.
         11    1    4    4    0    0  0.95164458274E-02  0.46922907749E-01 -0.83682305496E-02  0.48606691066E-01  0.51100000000E-03 0. -1.
</event>
<event>
 7    1  0.1132255E+005  0.1043930E+01  0.7957747E-01            NaN
         13   -1    0    0    0    0  0.00000000000E+00  0.00000000000E+00  0.74505805969E-08  0.10566000000E+00  0.10566000000E+00 0. -1.
     999900   -1    0    0    0    0 -0.00000000000E+00 -0.00000000000E+00 -0.74505805969E-08  0.93827000000E+00  0.93827000000E+00 0. -1.
     999902    2    1    2    0    0 -0.86437492652E-02  0.12017672604E-02 -0.22350957138E-01  0.10199357521E+01  0.10196534777E+01 0.  0.
         14    1    1    2    0    0  0.86437492652E-02 -0.12017672604E-02  0.22350957138E-01  0.23994247871E-01  0.00000000000E+00 0. -1.
     999901    1    3    3    0    0  0.56269644368E-01 -0.10155310276E+00  0.81727497659E-02  0.88766328041E+00  0.88000000000E+00 0. -1.
        -11    1    3    3    0    0 -0.52966190064E-01  0.71020650752E-01 -0.30882914965E-02  0.88651840299E-01  0.51100000000E-03 0.  1.
         11    1    3    3    0    0 -0.11947203569E-01  0.31734219266E-01 -0.27435415407E-01  0.43620631416E-01  0.51100000000E-03 0. -1.
</event>
<event>
 8    1  0.1132255E+005  0.1043930E+01  0.7957747E-01            NaN
         13   -1    0    0    0    0  0.00000000000E+00  0.00000000000E+00  0.74505805969E-08  0.10566000000E+00  0.10566000000E+00 0.  1.
     999900   -1    0    0    0    0 -0.00000000000E+00 -0.00000000000E+00 -0.74505805969E-08  0.93827000000E+00  0.93827000000E+00 0.  1.
     999902    2    1    2    0    0  0.13065852705E-01  0.36042410600E-02 -0.22511209244E-01  0.10176533639E+01  0.10173140653E+01 0.  0.
     999903    2    3    3    0    0  0.49686504712E-02  0.95162649262E-01  0.81194999208E-01  0.12680911018E+00  0.20181804353E-01 0.  0.
         14    1    1    2    0    0 -0.13065852705E-01 -0.36042410600E-02  0.22511209244E-01  0.26276636051E-01  0.00000000000E+00 0.  1.
     999901    1    3    3    0    0  0.80972022337E-02 -0.91558408202E-01 -0.10370620845E+00  0.89084425377E+00  0.88000000000E+00 0.  1.
        -11    1    4    4    0    0  0.31299111159E-02  0.93974425501E-02  0.16928757886E-01  0.19620199659E-01  0.51100000000E-03 0. -1.
         11    1    4    4    0    0  0.18387393552E-02  0.85765206712E-01  0.64266241322E-01  0.10718891052E+00  0.51100000000E-03 0.  1.
</event>
<event>
 8    1  0.1132255E+005  0.1043930E+01  0.7957747E-01            NaN
         13   -1    0    0    0    0  0.00000000000E+00  0.00000000000E+00  0.74505805969E-08  0.10566000000E+00  0.10566000000E+00 0. -1.
     999900   -1    0    0    0    0 -0.00000000000E+00 -0.00000000000E+00 -0.74505805969E-08  0.93827000000E+00  0.93827000000E+00 0.  1.
     999902    2    1    2    0    0  0.22056727360E-01  0.52980058051E-02  0.34504815107E-02  0.10209849807E+01  0.10207271217E+01 0.  0.
     999903    2    3    3    0    0 -0.74906798938E-01  0.96963223161E-01 -0.37895259852E-01  0.12996651411E+00  0.21032092078E-01 0.  0.
         14    1    1    2    0    0 -0.22056727360E-01 -0.52980058051E-02 -0.34504815107E-02  0.22945019285E-01  0.00000000000E+00 0. -1.
     999901    1    3    3    0    0  0.96963526298E-01 -0.91665217356E-01  0.41345741363E-01  0.89101846661E+00  0.88000000000E+00 0.  1.
        -11    1    4    4    0    0 -0.44797733698E-01  0.73628219122E-01 -0.24841219999E-01  0.89695590346E-01  0.51100000000E-03 0. -1.
         11    1    4    4    0    0 -0.30109065239E-01  0.23335004040E-01 -0.13054039853E-01  0.40270923762E-01  0.51100000000E-03 0.  1.
</event>
<event>
 8    1  0.1132255E+005  0.1043930E+01  0.7957747E-01            NaN
         13   -1    0    0    0    0  0.00000000000E+00  0.00000000000E+00  0.74505805969E-08  0.10566000000E+00  0.10566000000E+00 0. -1.
     999900   -1    0    0    0    0 -0.00000000000E+00 -0.00000000000E+00 -0.74505805969E-08  0.93827000000E+00  0.93827000000E+00 0.  1.
     999902    2    1    2    0    0  0.20802931039E-01  0.26935001676E-02 -0.10660347711E-01  0.10204000213E+01  0.10201286897E+01 0.  0.
     999903    2    3    3    0    0  0.12703210234E+00  0.14801478077E-01 -0.33119024211E-01  0.13364434353E+00  0.20191632236E-01 0.  0.
         14    1    1    2    0    0 -0.20802931039E-01 -0.26935001676E-02  0.10660347711E-01  0.23529978672E-01  0.00000000000E+00 0. -1.
     999901    1    3    3    0    0 -0.10622917131E+00 -0.12107977909E-01  0.22458676500E-01  0.88675567780E+00  0.88000000000E+00 0. -1.
        -11    1    4    4    0    0  0.64479750002E-01  0.17460243530E-01 -0.15048455155E-01  0.68477845965E-01  0.51100000000E-03 0. -1.
         11    1    4    4    0    0  0.62552352343E-01 -0.26587654532E-02 -0.18070569055E-01  0.65166497561E-01  0.51100000000E-03 0.  1.
</event>
<event>
 8    1  0.1132255E+005  0.1043930E+01  0.7957747E-01            NaN
         13   -1    0    0    0    0  0.00000000000E+00  0.00000000000E+00  0.74505805969E-08  0.10566000000E+00  0.10566000000E+00 0.  1.
     999900   -1    0    0    0    0 -0.00000000000E+00 -0.00000000000E+00 -0.74505805969E-08  0.93827000000E+00  0.93827000000E+00 0.  1.
     999902    2    1    2    0    0  0.15284034839E-01  0.51559260479E-02  0.16503723816E-01  0.10208527776E+01  0.10205919044E+01 0.  0.
     999903    2    3    3    0    0 -0.29748426309E-01 -0.55355452939E-01 -0.11051220298E+00  0.12853971862E+00  0.18982023538E-01 0.  0.
         14    1    1    2    0    0 -0.15284034839E-01 -0.51559260479E-02 -0.16503723816E-01  0.23077222410E-01  0.00000000000E+00 0. -1.
     999901    1    3    3    0    0  0.45032461147E-01  0.60511378987E-01  0.12701592680E+00  0.89231305897E+00  0.88000000000E+00 0. -1.
        -11    1    4    4    0    0 -0.13696566054E-01 -0.87485004730E-02 -0.30399884724E-01  0.34475299773E-01  0.51100000000E-03 0.  1.
         11    1    4    4    0    0 -0.16051860255E-01 -0.46606952466E-01 -0.80112318258E-01  0.94064418850E-01  0.51100000000E-03 0. -1.
</event>
<event>
 8    1  0.1132255E+005  0.1043930E+01  0.7957747E-01            NaN
         13   -1    0    0    0    0  0.00000000000E+00  0.00000000000E+00  0.74505805969E-08  0.10566000000E+00  0.10566000000E+00 0.  1.
     999900   -1    0    0    0    0 -0.00000000000E+00 -0.00000000000E+00 -0.74505805969E-08  0.93827000000E+00  0.93827000000E+00 0. -1.
     999902    2    1    2    0    0  0.18847598674E-01 -0.11117680735E-01  0.71336099460E-02  0.10209142838E+01  0.10206548152E+01 0.  0.
     999903    2    3    3    0    0 -0.75433571284E-01 -0.15465916434E-01  0.10363906905E+00  0.13062155117E+00  0.19786731630E-01 0.  0.
         14    1    1    2    0    0 -0.18847598674E-01  0.11117680735E-01 -0.71336099460E-02  0.23015716186E-01  0.00000000000E+00 0. -1.
     999901    1    3    3    0    0  0.94281169958E-01  0.43482356991E-02 -0.96505459104E-01  0.89029273264E+00  0.88000000000E+00 0. -1.
        -11    1    4    4    0    0 -0.63460627367E-01 -0.10476363236E-01  0.72701527584E-01  0.97070997968E-01  0.51100000000E-03 0. -1.
         11    1    4    4    0    0 -0.11972943916E-01 -0.49895531980E-02  0.30937541466E-01  0.33550553201E-01  0.51100000000E-03 0.  1.
</event>
<event>
 8    1  0.1132255E+005  0.1043930E+01  0.7957747E-01            NaN
         13   -1    0    0    0    0  0.00000000000E+00  0.00000000000E+00  0.74505805969E-08  0.10566000000E+00  0.10566000000E+00 0. -1.
     999900   -1    0    0    0    0 -0.00000000000E+00 -0.00000000000E+00 -0.74505805969E-08  0.93827000000E+00  0.93827000000E+00 0. -1.
     999902    2    1    2    0    0 -0.92660366168E-02  0.13761646744E-01  0.17251219455E-01  0.10199957791E+01  0.10197149320E+01 0.  0.
     999903    2    3    3    0    0  0.10696828377E+00  0.67455144345E-01  0.25672917282E-01  0.13069024451E+00  0.20698577189E-01 0.  0.
         14    1    1    2    0    0  0.92660366168E-02 -0.13761646744E-01 -0.17251219455E-01  0.23934220865E-01  0.00000000000E+00 0.  1.
     999901    1    3    3    0    0 -0.11623432038E+00 -0.53693497601E-01 -0.84216978264E-02  0.88930553462E+00  0.88000000000E+00 0. -1.
        -11    1    4    4    0    0  0.81615123636E-01  0.61104742061E-01  0.19013826010E-01  0.10371405213E+00  0.51100000000E-03 0.  1.
         11    1    4    4    0    0  0.25353160132E-01  0.63504022839E-02  0.66590912723E-02  0.26976192382E-01  0.51100000000E-03 0. -1.
</event>
<event>
 8    1  0.1132255E+005  0.1043930E+01  0.7957747E-01            NaN
         13   -1    0    0    0    0  0.00000000000E+00  0.00000000000E+00  0.74505805969E-08  0.10566000000E+00  0.10566000000E+00 0. -1.
     999900   -1    0    0    0    0 -0.00000000000E+00 -0.00000000000E+00 -0.74505805969E-08  0.93827000000E+00  0.93827000000E+00 0. -1.
     999902    2    1    2    0    0 -0.53045827836E-02  0.22493130150E-01 -0.73352627790E-02  0.10196836481E+01  0.10193953387E+01 0.  0.
     999903    2    3    3    0    0 -0.27671985886E-01  0.72874168921E-01  0.10337496184E+00  0.13103562796E+00  0.20188357033E-01 0.  0.
         14    1    1    2    0    0  0.53045827836E-02 -0.22493130150E-01  0.73352627790E-02  0.24246351941E-01  0.00000000000E+00 0.  1.
     999901    1    3    3    0    0  0.22367403102E-01 -0.50381038772E-01 -0.11071022462E+00  0.88864802010E+00  0.88000000000E+00 0. -1.
        -11    1    4    4    0    0 -0.10996072599E-01  0.54921167496E-01  0.72240511903E-01  0.91412258110E-01  0.51100000000E-03 0.  1.
         11    1    4    4    0    0 -0.16675913287E-01  0.17953001426E-01  0.31134449941E-01  0.39623369850E-01  0.51100000000E-03 0. -1.
</event>
<event>
 8    1  0.1132255E+005  0.1043930E+01  0.7957747E-01            NaN
         13   -1    0    0    0    0  0.00000000000E+00  0.00000000000E+00  0.74505805969E-08  0.10566000000E+00  0.10566000000E+00 0. -1.
     999900   -1    0    0    0    0 -0.00000000000E+00 -0.00000000000E+00 -0.74505805969E-08  0.93827000000E+00  0.93827000000E+00 0. -1.
     999902    2    1    2    0    0  0.11437881017E-01  0.90285394925E-02 -0.18680414455E-01  0.10202382814E+01  0.10199631627E+01 0.  0.
     999903    2    3    3    0    0  0.17400593129E-01  0.38177441355E-01  0.12068233704E+00  0.12877477178E+00  0.16075375743E-01 0.  0.
         14    1    1    2    0    0 -0.11437881017E-01 -0.90285394925E-02  0.18680414455E-01  0.23691718632E-01  0.00000000000E+00 0. -1.
     999901    1    3    3    0    0 -0.59627121112E-02 -0.29148901862E-01 -0.13936275149E+00  0.89146350958E+00  0.88000000000E+00 0. -1.
        -11    1    4    4    0    0  0.18581328869E-01  0.34383490060E-01  0.94139883812E-01  0.10193168799E+00  0.51100000000E-03 0. -1.
         11    1    4    4    0    0 -0.11807357400E-02  0.37939512947E-02  0.26542453226E-01  0.26843083794E-01  0.51100000000E-03 0.  1.
</event>
<event>
 8    1  0.1132255E+005  0.1043930E+01  0.7957747E-01            NaN
         13   -1    0    0    0    0  0.00000000000E+00  0.00000000000E+00  0.74505805969E-08  0.10566000000E+00  0.10566000000E+00 0.  1.
     999900   -1    0    0    0    0 -0.00000000000E+00 -0.00000000000E+00 -0.74505805969E-08  0.93827000000E+00  0.93827000000E+00 0. -1.
     999902    2    1    2    0    0  0.21800195108E-01  0.10306830868E-01 -0.22675248936E-02  0.10197097412E+01  0.10194220594E+01 0.  0.
     999903    2    3    3    0    0 -0.34669267973E-01  0.11181655845E+00 -0.54151398520E-01  0.13056129382E+00  0.20223169795E-01 0.  0.
         14    1    1    2    0    0 -0.21800195108E-01 -0.10306830868E-01  0.22675248936E-02  0.24220258843E-01  0.00000000000E+00 0. -1.
     999901    1    3    3    0    0  0.56469463081E-01 -0.10150972759E+00  0.51883873627E-01  0.88914844733E+00  0.88000000000E+00 0.  1.
        -11    1    4    4    0    0 -0.19719341070E-01  0.80797688650E-01 -0.46489203962E-01  0.95281824654E-01  0.51100000000E-03 0.  1.
         11    1    4    4    0    0 -0.14949926903E-01  0.31018869804E-01 -0.76621945583E-02  0.35279469168E-01  0.51100000000E-03 0. -1.
</event>
<event>
 8    1  0.1132255E+005  0.1043930E+01  0.7957747E-01            NaN
         13   -1    0    0    0    0  0.00000000000E+00  0.00000000000E+00  0.74505805969E-08  0.10566000000E+00  0.10566000000E+00 0. -1.
     999900   -1    0    0    0    0 -0.00000000000E+00 -0.00000000000E+00 -0.74505805969E-08  0.93827000000E+00  0.93827000000E+00 0.  1.
     999902    2    1    2    0    0  0.22800597775E-01 -0.15895307397E-01 -0.73683408924E-02  0.10151755133E+01  0.10147682013E+01 0.  0.
     999903    2    3    3    0    0  0.56984938739E-01  0.10855186874E+00  0.18440614149E-01  0.12538802692E+00  0.18743254660E-01 0.  0.
         14    1    1    2    0    0 -0.22800597775E-01  0.15895307397E-01  0.73683408924E-02  0.28754486670E-01  0.00000000000E+00 0. -1.
     999901    1    3    3    0    0 -0.34184340964E-01 -0.12444717613E+00 -0.25808955041E-01  0.88978748641E+00  0.88000000000E+00 0.  1.
        -11    1    4    4    0    0  0.48311150054E-01  0.78834768385E-01  0.84139075493E-02  0.92843647532E-01  0.51100000000E-03 0.  1.
         11    1    4    4    0    0  0.86737886850E-02  0.29717100351E-01  0.10026706599E-01  0.32544379386E-01  0.51100000000E-03 0. -1.
</event>
<event>
 8    1  0.1132255E+005  0.1043930E+01  0.7957747E-01            NaN
         13   -1    0    0    0    0  0.00000000000E+00  0.00000000000E+00  0.74505805969E-08  0.10566000000E+00  0.10566000000E+00 0. -1.
     999900   -1    0    0    0    0 -0.00000000000E+00 -0.00000000000E+00 -0.74505805969E-08  0.93827000000E+00  0.93827000000E+00 0. -1.
     999902    2    1    2    0    0  0.15659228129E-01 -0.41919222790E-02 -0.17616609420E-01  0.10199898963E+01  0.10197089094E+01 0.  0.
     999903    2    3    3    0    0  0.48399313751E-03 -0.47242676739E-01 -0.12225322324E+00  0.13261597501E+00  0.20224773933E-01 0.  0.
         14    1    1    2    0    0 -0.15659228129E-01  0.41919222790E-02  0.17616609420E-01  0.23940103706E-01  0.00000000000E+00 0. -1.
     999901    1    3    3    0    0  0.15175234991E-01  0.43050754460E-01  0.10463661382E+00  0.88737392128E+00  0.88000000000E+00 0.  1.
        -11    1    4    4    0    0 -0.11712672024E-02 -0.32863550948E-01 -0.57300243059E-01  0.66067872854E-01  0.51100000000E-03 0. -1.
         11    1    4    4    0    0  0.16552603399E-02 -0.14379125791E-01 -0.64952980184E-01  0.66548102160E-01  0.51100000000E-03 0.  1.
</event>
<event>
 8    1  0.1132255E+005  0.1043930E+01  0.7957747E-01            NaN
         13   -1    0    0    0    0  0.00000000000E+00  0.00000000000E+00  0.74505805969E-08  0.10566000000E+00  0.10566000000E+00 0. -1.
     999900   -1    0    0    0    0 -0.00000000000E+00 -0.00000000000E+00 -0.74505805969E-08  0.93827000000E+00  0.93827000000E+00 0.  1.
     999902    2    1    2    0    0  0.20921847573E-01 -0.10611543604E-01 -0.42861491188E-02  0.10200825759E+01  0.10198037860E+01 0.  0.
     999903    2    3    3    0    0 -0.12233359515E+00 -0.33444932117E-01 -0.31247653134E-02  0.12820543505E+00  0.18514789513E-01 0.  0.
         14    1    1    2    0    0 -0.20921847573E-01  0.10611543604E-01  0.42861491188E-02  0.23847424134E-01  0.00000000000E+00 0.  1.
     999901    1    3    3    0    0  0.14325544272E+00  0.22833388513E-01 -0.11613838054E-02  0.89187714082E+00  0.88000000000E+00 0. -1.
        -11    1    4    4    0    0 -0.20680683864E-01 -0.97374902835E-02  0.53439402113E-02  0.23480379470E-01  0.51100000000E-03 0.  1.
         11    1    4    4    0    0 -0.10165291129E+00 -0.23707441834E-01 -0.84687055247E-02  0.10472505558E+00  0.51100000000E-03 0. -1.
</event>
<event>
 8    1  0.1132255E+005  0.1043930E+01  0.7957747E-01            NaN
         13   -1    0    0    0    0  0.00000000000E+00  0.00000000000E+00  0.74505805969E-08  0.10566000000E+00  0.10566000000E+00 0. -1.
     999900   -1    0    0    0    0 -0.00000000000E+00 -0.00000000000E+00 -0.74505805969E-08  0.93827000000E+00  0.93827000000E+00 0.  1.
     999902    2    1    2    0    0 -0.16762228190E-02 -0.87613089445E-02  0.21531221818E-01  0.10206241258E+01  0.10203579972E+01 0.  0.
     999903    2    3    3    0    0  0.77891941237E-01 -0.75234931743E-01 -0.68863144914E-01  0.12993844795E+00  0.20357260733E-01 0.  0.
         14    1    1    2    0    0  0.16762228190E-02  0.87613089445E-02 -0.21531221818E-01  0.23305874160E-01  0.00000000000E+00 0.  1.
     999901    1    3    3    0    0 -0.79568164056E-01  0.66473622799E-01  0.90394366732E-01  0.89068567789E+00  0.88000000000E+00 0.  1.
        -11    1    4    4    0    0  0.40051074312E-01 -0.46175725246E-01 -0.28512683579E-01  0.67450132701E-01  0.51100000000E-03 0.  1.
         11    1    4    4    0    0  0.37840866925E-01 -0.29059206498E-01 -0.40350461335E-01  0.62488315251E-01  0.51100000000E-03 0. -1.
</event>
<event>
 8    1  0.1132255E+005  0.1043930E+01  0.7957747E-01            NaN
         13   -1    0    0    0    0  0.00000000000E+00  0.00000000000E+00  0.74505805969E-08  0.10566000000E+00  0.10566000000E+00 0. -1.
     999900   -1    0    0    0    0 -0.00000000000E+00 -0.00000000000E+00 -0.74505805969E-08  0.93827000000E+00  0.93827000000E+00 0.  1.
     999902    2    1    2    0    0  0.19908882354E-01 -0.12639868766E-01  0.47739612632E-03  0.10203427622E+01  0.10200700930E+01 0.  0.
     999903    2    3    3    0    0 -0.73556800675E-01 -0.12644690187E-01  0.10360765966E+00  0.12940410822E+00  0.20985351307E-01 0.  0.
         14    1    1    2    0    0 -0.19908882354E-01  0.12639868766E-01 -0.47739612632E-03  0.23587237780E-01  0.00000000000E+00 0. -1.
     999901    1    3    3    0    0  0.93465683028E-01  0.48214203011E-05 -0.10313026353E+00  0.89093865400E+00  0.88000000000E+00 0.  1.
        -11    1    4    4    0    0 -0.15912263207E-01  0.57047448171E-02  0.25720222391E-01  0.30782059623E-01  0.51100000000E-03 0. -1.
         11    1    4    4    0    0 -0.57644537467E-01 -0.18349435004E-01  0.77887437270E-01  0.98622048601E-01  0.51100000000E-03 0.  1.
</event>
<event>
 8    1  0.1132255E+005  0.1043930E+01  0.7957747E-01            NaN
         13   -1    0    0    0    0  0.00000000000E+00  0.00000000000E+00  0.74505805969E-08  0.10566000000E+00  0.10566000000E+00 0. -1.
     999900   -1    0    0    0    0 -0.00000000000E+00 -0.00000000000E+00 -0.74505805969E-08  0.93827000000E+00  0.93827000000E+00 0. -1.
     999902    2    1    2    0    0 -0.18845958685E-01 -0.93122274411E-03  0.13895720294E-01  0.10204965116E+01  0.10202274265E+01 0.  0.
     999903    2    3    3    0    0 -0.22169756055E-01  0.12376163148E+00 -0.28590038952E-01  0.13068507360E+00  0.21278125483E-01 0.  0.
         14    1    1    2    0    0  0.18845958685E-01  0.93122274411E-03 -0.13895720294E-01  0.23433488367E-01  0.00000000000E+00 0.  1.
     999901    1    3    3    0    0  0.33237973703E-02 -0.12469285422E+00  0.42485759245E-01  0.88981143804E+00  0.88000000000E+00 0. -1.
        -11    1    4    4    0    0 -0.52927946163E-02  0.81098793397E-01 -0.13511856182E-01  0.82388466085E-01  0.51100000000E-03 0. -1.
         11    1    4    4    0    0 -0.16876961439E-01  0.42662838080E-01 -0.15078182769E-01  0.48296607511E-01  0.51100000000E-03 0.  1.
</event>
<event>
 8    1  0.1132255E+005  0.1043930E+01  0.7957747E-01            NaN
         13   -1    0    0    0    0  0.00000000000E+00  0.00000000000E+00  0.74505805969E-08  0.10566000000E+00  0.10566000000E+00 0.  1.
     999900   -1    0    0    0    0 -0.00000000000E+00 -0.00000000000E+00 -0.74505805969E-08  0.93827000000E+00  0.93827000000E+00 0.  1.
     999902    2    1    2    0    0 -0.82758395804E-02  0.10747228498E-02  0.21860116346E-01  0.10205310847E+01  0.10202628022E+01 0.  0.
     999903    2    3    3    0    0 -0.96874907192E-01 -0.77460693536E-01 -0.36407259733E-01  0.13069250748E+00  0.19238925774E-01 0.  0.
         14    1    1    2    0    0  0.82758395804E-02 -0.10747228498E-02 -0.21860116346E-01  0.23398915287E-01  0.00000000000E+00 0. -1.
     999901    1    3    3    0    0  0.88599067611E-01  0.78535416385E-01  0.58267376079E-01  0.88983857723E+00  0.88000000000E+00 0. -1.
        -11    1    4    4    0    0 -0.21802890408E-01 -0.28253329261E-01 -0.12255535851E-01  0.37736930512E-01  0.51100000000E-03 0.  1.
         11    1    4    4    0    0 -0.75072016784E-01 -0.49207364274E-01 -0.24151723882E-01  0.92955576973E-01  0.51100000000E-03 0. -1.
</event>
<event>
 8    1  0.1132255E+005  0.1043930E+01  0.7957747E-01            NaN
         13   -1    0    0    0    0  0.00000000000E+00  0.00000000000E+00  0.74505805969E-08  0.10566000000E+00  0.10566000000E+00 0. -1.
     999900   -1    0    0    0    0 -0.00000000000E+00 -0.00000000000E+00 -0.74505805969E-08  0.93827000000E+00  0.93827000000E+00 0. -1.
     999902    2    1    2    0    0 -0.18298096618E-01 -0.11888016147E-01 -0.69721875194E-02  0.10210224321E+01  0.10207654237E+01 0.  0.
     999903    2    3    3    0    0  0.11882517508E+00 -0.28777129012E-01  0.36585627111E-01  0.12917865824E+00  0.20026788258E-01 0.  0.
         14    1    1    2    0    0  0.18298096618E-01  0.11888016147E-01  0.69721875194E-02  0.22907567889E-01  0.00000000000E+00 0. -1.
     999901    1    3    3    0    0 -0.13712327170E+00  0.16889112865E-01 -0.43557814631E-01  0.89184377387E+00  0.88000000000E+00 0. -1.
        -11    1    4    4    0    0  0.84445166810E-01 -0.17960098603E-01  0.34812624413E-01  0.93089909652E-01  0.51100000000E-03 0.  1.
         11    1    4    4    0    0  0.34380008266E-01 -0.10817030408E-01  0.17730026987E-02  0.36088748590E-01  0.51100000000E-03 0. -1.
</event>
<event>
 8    1  0.1132255E+005  0.1043930E+01  0.7957747E-01            NaN
         13   -1    0    0    0    0  0.00000000000E+00  0.00000000000E+00  0.74505805969E-08  0.10566000000E+00  0.10566000000E+00 0.  1.
     999900   -1    0    0    0    0 -0.00000000000E+00 -0.00000000000E+00 -0.74505805969E-08  0.93827000000E+00  0.93827000000E+00 0. -1.
     999902    2    1    2    0    0  0.18925563928E-01  0.87035928287E-02  0.43191114450E-02  0.10226559731E+01  0.10224346703E+01 0.  0.
     999903    2    3    3    0    0  0.76603918226E-01 -0.70131819631E-01  0.82159223914E-01  0.13383602622E+00  0.19372956090E-01 0.  0.
         14    1    1    2    0    0 -0.18925563928E-01 -0.87035928287E-02 -0.43191114450E-02  0.21274026930E-01  0.00000000000E+00 0.  1.
     999901    1    3    3    0    0 -0.57678354297E-01  0.78835412459E-01 -0.77840112469E-01  0.88881994685E+00  0.88000000000E+00 0.  1.
        -11    1    4    4    0    0  0.61017385065E-01 -0.45598661084E-01  0.64564458907E-01  0.99855844335E-01  0.51100000000E-03 0. -1.
         11    1    4    4    0    0  0.15586533161E-01 -0.24533158546E-01  0.17594765007E-01  0.33980181884E-01  0.51100000000E-03 0.  1.
</event>
<event>
 8    1  0.1132255E+005  0.1043930E+01  0.7957747E-01            NaN
         13   -1    0    0    0    0  0.00000000000E+00  0.00000000000E+00  0.74505805969E-08  0.10566000000E+00  0.10566000000E+00 0.  1.
     999900   -1    0    0    0    0 -0.00000000000E+00 -0.00000000000E+00 -0.74505805969E-08  0.93827000000E+00  0.93827000000E+00 0.  1.
     999902    2    1    2    0    0  0.20002121614E-01  0.12630539231E-01 -0.10533613105E-01  0.10180345874E+01  0.10177051875E+01 0.  0.
     999903    2    3    3    0    0  0.22866091161E-01  0.61138286874E-01  0.10918073530E+00  0.12860064990E+00  0.18893013197E-01 0.  0.
         14    1    1    2    0    0 -0.20002121614E-01 -0.12630539231E-01  0.10533613105E-01  0.25895412632E-01  0.00000000000E+00 0.  1.
     999901    1    3    3    0    0 -0.28639695478E-02 -0.48507747643E-01 -0.11971434841E+00  0.88943393747E+00  0.88000000000E+00 0.  1.
        -11    1    4    4    0    0 -0.19006555061E-02  0.14544821699E-01  0.17725834280E-01  0.23013705732E-01  0.51100000000E-03 0. -1.
         11    1    4    4    0    0  0.24766746667E-01  0.46593465174E-01  0.91454901020E-01  0.10558694417E+00  0.51100000000E-03 0.  1.
</event>
<event>
 8    1  0.1132255E+005  0.1043930E+01  0.7957747E-01            NaN
         13   -1    0    0    0    0  0.00000000000E+00  0.00000000000E+00  0.74505805969E-08  0.10566000000E+00  0.10566000000E+00 0. -1.
     999900   -1    0    0    0    0 -0.00000000000E+00 -0.00000000000E+00 -0.74505805969E-08  0.93827000000E+00  0.93827000000E+00 0.  1.
     999902    2    1    2    0    0  0.22807716795E-02  0.44559564333E-02 -0.23346590299E-01  0.10200527986E+01  0.10197733038E+01 0.  0.
     999903    2    3    3    0    0  0.51160591869E-01 -0.55355622636E-01 -0.10717748079E+00  0.13270039962E+00  0.20993631223E-01 0.  0.
         14    1    1    2    0    0 -0.22807716795E-02 -0.44559564333E-02  0.23346590299E-01  0.23877201381E-01  0.00000000000E+00 0. -1.
     999901    1    3    3    0    0 -0.48879820189E-01  0.59811579070E-01  0.83830890493E-01  0.88735239900E+00  0.88000000000E+00 0. -1.
        -11    1    4    4    0    0  0.33954117286E-01 -0.49345366115E-01 -0.79085421995E-01  0.99209940686E-01  0.51100000000E-03 0.  1.
         11    1    4    4    0    0  0.17206474583E-01 -0.60102565208E-02 -0.28092058797E-01  0.33490458932E-01  0.51100000000E-03 0. -1.
</event>
<event>
 8    1  0.1132255E+005  0.1043930E+01  0.7957747E-01            NaN
         13   -1    0    0    0    0  0.00000000000E+00  0.00000000000E+00  0.74505805969E-08  0.10566000000E+00  0.10566000000E+00 0.  1.
     999900   -1    0    0    0    0 -0.00000000000E+00 -0.00000000000E+00 -0.74505805969E-08  0.93827000000E+00  0.93827000000E+00 0.  1.
     999902    2    1    2    0    0  0.16456685229E-01  0.16413012668E-01 -0.35963533830E-02  0.10204110028E+01  0.10201399273E+01 0.  0.
     999903    2    3    3    0    0  0.99140059659E-01  0.83244963715E-01  0.24659446747E-01  0.13356183840E+00  0.21730185206E-01 0.  0.
         14    1    1    2    0    0 -0.16456685229E-01 -0.16413012668E-01  0.35963533830E-02  0.23518997241E-01  0.00000000000E+00 0.  1.
     999901    1    3    3    0    0 -0.82683374431E-01 -0.66831951046E-01 -0.28255800130E-01  0.88684916436E+00  0.88000000000E+00 0.  1.
        -11    1    4    4    0    0  0.52568251848E-01  0.54366762049E-01  0.68357336119E-02  0.75935197986E-01  0.51100000000E-03 0.  1.
         11    1    4    4    0    0  0.46571807811E-01  0.28878201666E-01  0.17823713136E-01  0.57626640412E-01  0.51100000000E-03 0. -1.
</event>
<event>
 8    1  0.1132255E+005  0.1043930E+01  0.7957747E-01            NaN
         13   -1    0    0    0    0  0.00000000000E+00  0.00000000000E+00  0.74505805969E-08  0.10566000000E+00  0.10566000000E+00 0. -1.
     999900   -1    0    0    0    0 -0.00000000000E+00 -0.00000000000E+00 -0.74505805969E-08  0.93827000000E+00  0.93827000000E+00 0. -1.
     999902    2    1    2    0    0  0.12655520068E-01 -0.19389550701E-01  0.48768777275E-02  0.10202677769E+01  0.10199933509E+01 0.  0.
     999903    2    3    3    0    0  0.38983092130E-01  0.10494062641E+00  0.61570695842E-01  0.12933269343E+00  0.20094239464E-01 0.  0.
         14    1    1    2    0    0 -0.12655520068E-01  0.19389550701E-01 -0.48768777275E-02  0.23662223077E-01  0.00000000000E+00 0.  1.
     999901    1    3    3    0    0 -0.26327572061E-01 -0.12433017711E+00 -0.56693818115E-01  0.89093508350E+00  0.88000000000E+00 0. -1.
        -11    1    4    4    0    0  0.15006095896E-01  0.26628020362E-01  0.25626184581E-01  0.39889808718E-01  0.51100000000E-03 0. -1.
         11    1    4    4    0    0  0.23976996234E-01  0.78312606047E-01  0.35944511261E-01  0.89442884709E-01  0.51100000000E-03 0.  1.
</event>
<event>
 8    1  0.1132255E+005  0.1043930E+01  0.7957747E-01            NaN
         13   -1    0    0    0    0  0.00000000000E+00  0.00000000000E+00  0.74505805969E-08  0.10566000000E+00  0.10566000000E+00 0. -1.
     999900   -1    0    0    0    0 -0.00000000000E+00 -0.00000000000E+00 -0.74505805969E-08  0.93827000000E+00  0.93827000000E+00 0.  1.
     999902    2    1    2    0    0  0.15396083953E-01 -0.15657211491E-01  0.80969173131E-02  0.10205259887E+01  0.10202575880E+01 0.  0.
     999903    2    3    3    0    0  0.10052630530E+00  0.73471495100E-01  0.37080062496E-01  0.13146406535E+00  0.20106486373E-01 0.  0.
         14    1    1    2    0    0 -0.15396083953E-01  0.15657211491E-01 -0.80969173131E-02  0.23404011253E-01  0.00000000000E+00 0. -1.
     999901    1    3    3    0    0 -0.85130221350E-01 -0.89128706591E-01 -0.28983145182E-01  0.88906192339E+00  0.88000000000E+00 0.  1.
        -11    1    4    4    0    0  0.17251335499E-01  0.14489801071E-01 -0.96270825928E-03  0.22555505753E-01  0.51100000000E-03 0. -1.
         11    1    4    4    0    0  0.83274969804E-01  0.58981694029E-01  0.38042770755E-01  0.10890855960E+00  0.51100000000E-03 0.  1.
</event>
<event>
 8    1  0.1132255E+005  0.1043930E+01  0.7957747E-01            NaN
         13   -1    0    0    0    0  0.00000000000E+00  0.00000000000E+00  0.74505805969E-08  0.10566000000E+00  0.10566000000E+00 0. -1.
     999900   -1    0    0    0    0 -0.00000000000E+00 -0.00000000000E+00 -0.74505805969E-08  0.93827000000E+00  0.93827000000E+00 0.  1.
     999902    2    1    2    0    0 -0.19740806752E-01 -0.23282369690E-01 -0.76337801236E-03  0.10133955779E+01  0.10129354601E+01 0.  0.
     999903    2    3    3    0    0 -0.75952782243E-01 -0.44014872261E-01  0.89185312098E-01  0.12678383098E+00  0.20346640826E-01 0.  0.
         14    1    1    2    0    0  0.19740806752E-01  0.23282369690E-01  0.76337801236E-03  0.30534422142E-01  0.00000000000E+00 0.  1.
     999901    1    3    3    0    0  0.56211975491E-01  0.20732502571E-01 -0.89948690111E-01  0.88661174688E+00  0.88000000000E+00 0.  1.
        -11    1    4    4    0    0 -0.37152641098E-01 -0.10761496801E-01  0.33135559352E-01  0.50934810970E-01  0.51100000000E-03 0.  1.
         11    1    4    4    0    0 -0.38800141145E-01 -0.33253375460E-01  0.56049752747E-01  0.75849020009E-01  0.51100000000E-03 0. -1.
</event>
<event>
 8    1  0.1132255E+005  0.1043930E+01  0.7957747E-01            NaN
         13   -1    0    0    0    0  0.00000000000E+00  0.00000000000E+00  0.74505805969E-08  0.10566000000E+00  0.10566000000E+00 0. -1.
     999900   -1    0    0    0    0 -0.00000000000E+00 -0.00000000000E+00 -0.74505805969E-08  0.93827000000E+00  0.93827000000E+00 0. -1.
     999902    2    1    2    0    0  0.12104194666E-01 -0.14318843285E-02 -0.19715294880E-01  0.10207512452E+01  0.10204880450E+01 0.  0.
     999903    2    3    3    0    0  0.48430254057E-01  0.64260316047E-02  0.11795153222E+00  0.12927298708E+00  0.20301671022E-01 0.  0.
         14    1    1    2    0    0 -0.12104194666E-01  0.14318843285E-02  0.19715294880E-01  0.23178754786E-01  0.00000000000E+00 0. -1.
     999901    1    3    3    0    0 -0.36326059391E-01 -0.78579159333E-02 -0.13766682710E+00  0.89147825813E+00  0.88000000000E+00 0. -1.
        -11    1    4    4    0    0  0.37763925915E-01  0.12887017624E-01  0.81528103924E-01  0.90770491759E-01  0.51100000000E-03 0. -1.
         11    1    4    4    0    0  0.10666328141E-01 -0.64609860191E-02  0.36423428297E-01  0.38502495325E-01  0.51100000000E-03 0.  1.
</event>
<event>
 8    1  0.1132255E+005  0.1043930E+01  0.7957747E-01            NaN
         13   -1    0    0    0    0  0.00000000000E+00  0.00000000000E+00  0.74505805969E-08  0.10566000000E+00  0.10566000000E+00 0.  1.
     999900   -1    0    0    0    0 -0.00000000000E+00 -0.00000000000E+00 -0.74505805969E-08  0.93827000000E+00  0.93827000000E+00 0. -1.
     999902    2    1    2    0    0  0.17415667180E-01 -0.56599048843E-03 -0.18677627863E-01  0.10183863199E+01  0.10180659198E+01 0.  0.
     999903    2    3    3    0    0  0.98723363687E-01 -0.81842262977E-01 -0.17145659636E-01  0.13090723798E+00  0.19956772408E-01 0.  0.
         14    1    1    2    0    0 -0.17415667180E-01  0.56599048843E-03  0.18677627863E-01  0.25543680062E-01  0.00000000000E+00 0.  1.
     999901    1    3    3    0    0 -0.81307696507E-01  0.81276272489E-01 -0.15319682269E-02  0.88747908195E+00  0.88000000000E+00 0.  1.
        -11    1    4    4    0    0  0.76009462285E-01 -0.54225300422E-01 -0.18210644793E-01  0.95129965140E-01  0.51100000000E-03 0.  1.
         11    1    4    4    0    0  0.22713901402E-01 -0.27616962555E-01  0.10649851572E-02  0.35777272843E-01  0.51100000000E-03 0. -1.
</event>
<event>
 8    1  0.1132255E+005  0.1043930E+01  0.7957747E-01            NaN
         13   -1    0    0    0    0  0.00000000000E+00  0.00000000000E+00  0.74505805969E-08  0.10566000000E+00  0.10566000000E+00 0. -1.
     999900   -1    0    0    0    0 -0.00000000000E+00 -0.00000000000E+00 -0.74505805969E-08  0.93827000000E+00  0.93827000000E+00 0.  1.
     999902    2    1    2    0    0  0.88465344946E-02  0.13336801243E-01  0.16947727453E-01  0.10206199827E+01  0.10203537584E+01 0.  0.
     999903    2    3    3    0    0 -0.24213428456E-01 -0.32148778475E-01 -0.12015480151E+00  0.12823049232E+00  0.19648123605E-01 0.  0.
         14    1    1    2    0    0 -0.88465344946E-02 -0.13336801243E-01 -0.16947727453E-01  0.23310017285E-01  0.00000000000E+00 0. -1.
     999901    1    3    3    0    0  0.33059962951E-01  0.45485579718E-01  0.13710252896E+00  0.89238949039E+00  0.88000000000E+00 0. -1.
        -11    1    4    4    0    0 -0.68841216536E-02 -0.21961522158E-01 -0.46593359436E-01  0.51970201568E-01  0.51100000000E-03 0.  1.
         11    1    4    4    0    0 -0.17329306802E-01 -0.10187256316E-01 -0.73561442072E-01  0.76260290756E-01  0.51100000000E-03 0. -1.
</event>
<event>
 8    1  0.1132255E+005  0.1043930E+01  0.7957747E-01            NaN
         13   -1    0    0    0    0  0.00000000000E+00  0.00000000000E+00  0.74505805969E-08  0.10566000000E+00  0.10566000000E+00 0. -1.
     999900   -1    0    0    0    0 -0.00000000000E+00 -0.00000000000E+00 -0.74505805969E-08  0.93827000000E+00  0.93827000000E+00 0. -1.
     999902    2    1    2    0    0 -0.17435944133E-01  0.12853969844E-01 -0.75029635751E-02  0.10210055338E+01  0.10207481417E+01 0.  0.
     999903    2    3    3    0    0  0.25260083345E-01 -0.44805721307E-01 -0.11933062065E+00  0.13103192990E+00  0.16850672263E-01 0.  0.
         14    1    1    2    0    0  0.17435944133E-01 -0.12853969844E-01  0.75029635751E-02  0.22924466208E-01  0.00000000000E+00 0. -1.
     999901    1    3    3    0    0 -0.42696027478E-01  0.57659691150E-01  0.11182765707E+00  0.88997360390E+00  0.88000000000E+00 0.  1.
        -11    1    4    4    0    0  0.13815335524E-01 -0.23026944905E-01 -0.82289396338E-01  0.86561594012E-01  0.51100000000E-03 0.  1.
         11    1    4    4    0    0  0.11444747822E-01 -0.21778776401E-01 -0.37041224309E-01  0.44470335883E-01  0.51100000000E-03 0. -1.
</event>
<event>
 8    1  0.1132255E+005  0.1043930E+01  0.7957747E-01            NaN
         13   -1    0    0    0    0  0.00000000000E+00  0.00000000000E+00  0.74505805969E-08  0.10566000000E+00  0.10566000000E+00 0. -1.
     999900   -1    0    0    0    0 -0.00000000000E+00 -0.00000000000E+00 -0.74505805969E-08  0.93827000000E+00  0.93827000000E+00 0. -1.
     999902    2    1    2    0    0 -0.20279006223E-01  0.20859558225E-02  0.99959657512E-02  0.10212251847E+01  0.10209727564E+01 0.  0.
     999903    2    3    3    0    0 -0.10783268058E+00  0.75864440081E-01  0.10583607584E-01  0.13380800214E+00  0.20230383549E-01 0.  0.
         14    1    1    2    0    0  0.20279006223E-01 -0.20859558225E-02 -0.99959657512E-02  0.22704815269E-01  0.00000000000E+00 0.  1.
     999901    1    3    3    0    0  0.87553674353E-01 -0.73778484258E-01 -0.58764183300E-03  0.88741718259E+00  0.88000000000E+00 0. -1.
        -11    1    4    4    0    0 -0.62781629103E-01  0.54635058473E-01  0.11345879003E-01  0.83997099108E-01  0.51100000000E-03 0. -1.
         11    1    4    4    0    0 -0.45051051474E-01  0.21229381608E-01 -0.76227141869E-03  0.49810903034E-01  0.51100000000E-03 0.  1.
</event>
<event>
 8    1  0.1132255E+005  0.1043930E+01  0.7957747E-01            NaN
         13   -1    0    0    0    0  0.00000000000E+00  0.00000000000E+00  0.74505805969E-08  0.10566000000E+00  0.10566000000E+00 0.  1.
     999900   -1    0    0    0    0 -0.00000000000E+00 -0.00000000000E+00 -0.74505805969E-08  0.93827000000E+00  0.93827000000E+00 0. -1.
     999902    2    1    2    0    0  0.23145478104E-01 -0.22988098600E-02  0.11324366434E-02  0.10206430917E+01  0.10203774011E+01 0.  0.
     999903    2    3    3    0    0 -0.11324439099E-01  0.80524670553E-01 -0.99912968398E-01  0.13032961999E+00  0.19767222993E-01 0.  0.
         14    1    1    2    0    0 -0.23145478104E-01  0.22988098600E-02 -0.11324366434E-02  0.23286908257E-01  0.00000000000E+00 0.  1.
     999901    1    3    3    0    0  0.34469917203E-01 -0.82823480413E-01  0.10104540504E+00  0.89031347175E+00  0.88000000000E+00 0.  1.
        -11    1    4    4    0    0 -0.16447050919E-01  0.55154529913E-01 -0.64231500660E-01  0.86246590958E-01  0.51100000000E-03 0. -1.
         11    1    4    4    0    0  0.51226118203E-02  0.25370140640E-01 -0.35681467738E-01  0.44083029035E-01  0.51100000000E-03 0.  1.
</event>
<event>
 8    1  0.1132255E+005  0.1043930E+01  0.7957747E-01            NaN
         13   -1    0    0    0    0  0.00000000000E+00  0.00000000000E+00  0.74505805969E-08  0.10566000000E+00  0.10566000000E+00 0. -1.
     999900   -1    0    0    0    0 -0.00000000000E+00 -0.00000000000E+00 -0.74505805969E-08  0.93827000000E+00  0.93827000000E+00 0. -1.
     999902    2    1    2    0    0 -0.30392859558E-02  0.21209373150E-01 -0.74638795582E-02  0.10212411422E+01  0.10209890726E+01 0.  0.
     999903    2    3    3    0    0  0.70164748618E-01  0.25737044926E-01  0.10568711391E+00  0.13097012855E+00  0.19947959654E-01 0.  0.
         14    1    1    2    0    0  0.30392859558E-02 -0.21209373150E-01  0.74638795582E-02  0.22688857763E-01  0.00000000000E+00 0. -1.
     999901    1    3    3    0    0 -0.73204034574E-01 -0.45276717752E-02 -0.11315099347E+00  0.89027101369E+00  0.88000000000E+00 0. -1.
        -11    1    4    4    0    0  0.27618730147E-01  0.14170804916E-01  0.59515173119E-01  0.67126171642E-01  0.51100000000E-03 0. -1.
         11    1    4    4    0    0  0.42546018471E-01  0.11566240010E-01  0.46171940795E-01  0.63843956907E-01  0.51100000000E-03 0.  1.
</event>
<event>
 8    1  0.1132255E+005  0.1043930E+01  0.7957747E-01            NaN
         13   -1    0    0    0    0  0.00000000000E+00  0.00000000000E+00  0.74505805969E-08  0.10566000000E+00  0.10566000000E+00 0. -1.
     999900   -1    0    0    0    0 -0.00000000000E+00 -0.00000000000E+00 -0.74505805969E-08  0.93827000000E+00  0.93827000000E+00 0.  1.
     999902    2    1    2    0    0  0.15285555580E-01 -0.60295857175E-02  0.17348349832E-01  0.10200350349E+01  0.10197551192E+01 0.  0.
     999903    2    3    3    0    0 -0.49295153124E-01  0.21509158526E-01  0.11837115940E+00  0.13147740686E+00  0.19542802080E-01 0.  0.
         14    1    1    2    0    0 -0.15285555580E-01  0.60295857175E-02 -0.17348349832E-01  0.23894965060E-01  0.00000000000E+00 0.  1.
     999901    1    3    3    0    0  0.64580708704E-01 -0.27538744244E-01 -0.10102280957E+00  0.88855762808E+00  0.88000000000E+00 0.  1.
        -11    1    4    4    0    0 -0.74509483037E-02  0.95639171557E-03  0.36442890945E-01  0.37212588424E-01  0.51100000000E-03 0. -1.
         11    1    4    4    0    0 -0.41844204820E-01  0.20552766811E-01  0.81928268459E-01  0.94264818433E-01  0.51100000000E-03 0.  1.
</event>
<event>
 8    1  0.1132255E+005  0.1043930E+01  0.7957747E-01            NaN
         13   -1    0    0    0    0  0.00000000000E+00  0.00000000000E+00  0.74505805969E-08  0.10566000000E+00  0.10566000000E+00 0. -1.
     999900   -1    0    0    0    0 -0.00000000000E+00 -0.00000000000E+00 -0.74505805969E-08  0.93827000000E+00  0.93827000000E+00 0.  1.
     999902    2    1    2    0    0  0.13299666845E-01  0.95001830543E-02 -0.18008004998E-01  0.10196108129E+01  0.10193207478E+01 0.  0.
     999903    2    3    3    0    0 -0.80504671318E-01 -0.94528051246E-01  0.21386169698E-01  0.12766180743E+00  0.20581891221E-01 0.  0.
         14    1    1    2    0    0 -0.13299666845E-01 -0.95001830543E-02  0.18008004998E-01  0.24319187081E-01  0.00000000000E+00 0. -1.
     999901    1    3    3    0    0  0.93804338163E-01  0.10402823430E+00 -0.39394174696E-01  0.89194900549E+00  0.88000000000E+00 0.  1.
        -11    1    4    4    0    0 -0.60806558393E-01 -0.56574732307E-01  0.15590797363E-01  0.84507230239E-01  0.51100000000E-03 0. -1.
         11    1    4    4    0    0 -0.19698112925E-01 -0.37953318938E-01  0.57953723354E-02  0.43154577193E-01  0.51100000000E-03 0.  1.
</event>
<event>
 8    1  0.1132255E+005  0.1043930E+01  0.7957747E-01            NaN
         13   -1    0    0    0    0  0.00000000000E+00  0.00000000000E+00  0.74505805969E-08  0.10566000000E+00  0.10566000000E+00 0. -1.
     999900   -1    0    0    0    0 -0.00000000000E+00 -0.00000000000E+00 -0.74505805969E-08  0.93827000000E+00  0.93827000000E+00 0. -1.
     999902    2    1    2    0    0  0.21258822080E-01  0.12479550777E-01 -0.22477165033E-02  0.10191766379E+01  0.10188759936E+01 0.  0.
     999903    2    3    3    0    0  0.30871642815E-01  0.85070857382E-01 -0.93733310268E-01  0.13140892171E+00  0.17095676200E-01 0.  0.
         14    1    1    2    0    0 -0.21258822080E-01 -0.12479550777E-01  0.22477165033E-02  0.24753362061E-01  0.00000000000E+00 0. -1.
     999901    1    3    3    0    0 -0.96128207341E-02 -0.72591306604E-01  0.91485593764E-01  0.88776771623E+00  0.88000000000E+00 0. -1.
        -11    1    4    4    0    0  0.20510533019E-01  0.33559420541E-01 -0.35668146641E-01  0.53097970560E-01  0.51100000000E-03 0.  1.
         11    1    4    4    0    0  0.10361109796E-01  0.51511436841E-01 -0.58065163627E-01  0.78310951147E-01  0.51100000000E-03 0. -1.
</event>
<event>
 8    1  0.1132255E+005  0.1043930E+01  0.7957747E-01            NaN
         13   -1    0    0    0    0  0.00000000000E+00  0.00000000000E+00  0.74505805969E-08  0.10566000000E+00  0.10566000000E+00 0. -1.
     999900   -1    0    0    0    0 -0.00000000000E+00 -0.00000000000E+00 -0.74505805969E-08  0.93827000000E+00  0.93827000000E+00 0.  1.
     999902    2    1    2    0    0 -0.34632580662E-02 -0.19987049308E-01 -0.14973578331E-01  0.10187172186E+01  0.10184051685E+01 0.  0.
     999903    2    3    3    0    0  0.50089744868E-01 -0.48748744407E-01 -0.10967686594E+00  0.13155101553E+00  0.19779589085E-01 0.  0.
         14    1    1    2    0    0  0.34632580662E-02  0.19987049308E-01  0.14973578331E-01  0.25212781372E-01  0.00000000000E+00 0.  1.
     999901    1    3    3    0    0 -0.53553002934E-01  0.28761695099E-01  0.94703287605E-01  0.88716620309E+00  0.88000000000E+00 0. -1.
        -11    1    4    4    0    0  0.47231945789E-01 -0.49304331091E-01 -0.97566047517E-01  0.11908471151E+00  0.51100000000E-03 0.  1.
         11    1    4    4    0    0  0.28577990791E-02  0.55558668421E-03 -0.12110818419E-01  0.12466304020E-01  0.51100000000E-03 0. -1.
</event>
<event>
 8    1  0.1132255E+005  0.1043930E+01  0.7957747E-01            NaN
         13   -1    0    0    0    0  0.00000000000E+00  0.00000000000E+00  0.74505805969E-08  0.10566000000E+00  0.10566000000E+00 0. -1.
     999900   -1    0    0    0    0 -0.00000000000E+00 -0.00000000000E+00 -0.74505805969E-08  0.93827000000E+00  0.93827000000E+00 0. -1.
     999902    2    1    2    0    0  0.15482750684E-01  0.48655607289E-02 -0.15966324448E-01  0.10211635166E+01  0.10209096997E+01 0.  0.
     999903    2    3    3    0    0 -0.26519366322E-02  0.13020561186E+00 -0.71385743476E-02  0.13205332969E+00  0.20654019263E-01 0.  0.
         14    1    1    2    0    0 -0.15482750684E-01 -0.48655607289E-02  0.15966324448E-01  0.22766483398E-01  0.00000000000E+00 0. -1.
     999901    1    3    3    0    0  0.18134687316E-01 -0.12534005113E+00 -0.88277501005E-02  0.88911018691E+00  0.88000000000E+00 0.  1.
        -11    1    4    4    0    0 -0.27183310692E-02  0.32962747971E-01 -0.10635269914E-01  0.34746253967E-01  0.51100000000E-03 0.  1.
         11    1    4    4    0    0  0.66394437086E-04  0.97242863885E-01  0.34966955666E-02  0.97307075722E-01  0.51100000000E-03 0. -1.
</event>
<event>
 8    1  0.1132255E+005  0.1043930E+01  0.7957747E-01            NaN
         13   -1    0    0    0    0  0.00000000000E+00  0.00000000000E+00  0.74505805969E-08  0.10566000000E+00  0.10566000000E+00 0. -1.
     999900   -1    0    0    0    0 -0.00000000000E+00 -0.00000000000E+00 -0.74505805969E-08  0.93827000000E+00  0.93827000000E+00 0. -1.
     999902    2    1    2    0    0 -0.38329180733E-02  0.18378790585E-01 -0.16101599935E-01  0.10191967688E+01  0.10188966193E+01 0.  0.
     999903    2    3    3    0    0  0.92102567405E-01  0.86555826899E-01  0.25457779512E-01  0.13038919252E+00  0.19453763044E-01 0.  0.
         14    1    1    2    0    0  0.38329180733E-02 -0.18378790585E-01  0.16101599935E-01  0.24733231184E-01  0.00000000000E+00 0. -1.
     999901    1    3    3    0    0 -0.95935485479E-01 -0.68177036313E-01 -0.41559379447E-01  0.88880757629E+00  0.88000000000E+00 0. -1.
        -11    1    4    4    0    0  0.50512346744E-01  0.34270368809E-01  0.13456752524E-01  0.62508404726E-01  0.51100000000E-03 0. -1.
         11    1    4    4    0    0  0.41590220661E-01  0.52285458089E-01  0.12001026988E-01  0.67880787798E-01  0.51100000000E-03 0.  1.
</event>
<event>
 8    1  0.1132255E+005  0.1043930E+01  0.7957747E-01            NaN
         13   -1    0    0    0    0  0.00000000000E+00  0.00000000000E+00  0.74505805969E-08  0.10566000000E+00  0.10566000000E+00 0. -1.
     999900   -1    0    0    0    0 -0.00000000000E+00 -0.00000000000E+00 -0.74505805969E-08  0.93827000000E+00  0.93827000000E+00 0. -1.
     999902    2    1    2    0    0 -0.10215561017E-01 -0.95592620547E-02  0.17648752144E-01  0.10214085518E+01  0.10211602294E+01 0.  0.
     999903    2    3    3    0    0  0.10991517359E+00  0.32906800401E-01 -0.55780572068E-01  0.12920530951E+00  0.20453285492E-01 0.  0.
         14    1    1    2    0    0  0.10215561017E-01  0.95592620547E-02 -0.17648752144E-01  0.22521448226E-01  0.00000000000E+00 0.  1.
     999901    1    3    3    0    0 -0.12013073460E+00 -0.42466062456E-01  0.73429324212E-01  0.89220324227E+00  0.88000000000E+00 0. -1.
        -11    1    4    4    0    0  0.87452967025E-01  0.17395443241E-01 -0.44638670017E-01  0.99717074109E-01  0.51100000000E-03 0. -1.
         11    1    4    4    0    0  0.22462206562E-01  0.15511357160E-01 -0.11141902051E-01  0.29488235399E-01  0.51100000000E-03 0.  1.
</event>
<event>
 8    1  0.1132255E+005  0.1043930E+01  0.7957747E-01            NaN
         13   -1    0    0    0    0  0.00000000000E+00  0.00000000000E+00  0.74505805969E-08  0.10566000000E+00  0.10566000000E+00 0.  1.
     999900   -1    0    0    0    0 -0.00000000000E+00 -0.00000000000E+00 -0.74505805969E-08  0.93827000000E+00  0.93827000000E+00 0. -1.
     999902    2    1    2    0    0  0.65558427245E-02 -0.31854199048E-02 -0.22598515127E-01  0.10201851298E+01  0.10199087607E+01 0.  0.
     999903    2    3    3    0    0 -0.53438505068E-01 -0.63888204846E-01 -0.10110944807E+00  0.13257704262E+00  0.20400372517E-01 0.  0.
         14    1    1    2    0    0 -0.65558427245E-02  0.31854199048E-02  0.22598515127E-01  0.23744870178E-01  0.00000000000E+00 0.  1.
     999901    1    3    3    0    0  0.59994347793E-01  0.60702784942E-01  0.78510932947E-01  0.88760808720E+00  0.88000000000E+00 0. -1.
        -11    1    4    4    0    0 -0.14513713585E-01 -0.30933833360E-01 -0.48218604089E-01  0.59100294666E-01  0.51100000000E-03 0.  1.
         11    1    4    4    0    0 -0.38924791483E-01 -0.32954371486E-01 -0.52890843986E-01  0.73476747958E-01  0.51100000000E-03 0. -1.
</event>
<event>
 8    1  0.1132255E+005  0.1043930E+01  0.7957747E-01            NaN
         13   -1    0    0    0    0  0.00000000000E+00  0.00000000000E+00  0.74505805969E-08  0.10566000000E+00  0.10566000000E+00 0. -1.
     999900   -1    0    0    0    0 -0.00000000000E+00 -0.00000000000E+00 -0.74505805969E-08  0.93827000000E+00  0.93827000000E+00 0.  1.
     999902    2    1    2    0    0 -0.13583915081E-01  0.18353770401E-01  0.54247612308E-02  0.10204606227E+01  0.10201907031E+01 0.  0.
     999903    2    3    3    0    0 -0.70679458501E-01 -0.22704475282E-01  0.10789739868E+00  0.13172763577E+00  0.14115322609E-01 0.  0.
         14    1    1    2    0    0  0.13583915081E-01 -0.18353770401E-01 -0.54247612308E-02  0.23469377309E-01  0.00000000000E+00 0.  1.
     999901    1    3    3    0    0  0.57095543420E-01  0.41058245683E-01 -0.10247263745E+00  0.88873298692E+00  0.88000000000E+00 0.  1.
        -11    1    4    4    0    0 -0.53667100665E-01 -0.16077398821E-01  0.70011864622E-01  0.89669185094E-01  0.51100000000E-03 0.  1.
         11    1    4    4    0    0 -0.17012357836E-01 -0.66270764613E-02  0.37885534056E-01  0.42058450676E-01  0.51100000000E-03 0. -1.
</event>
<event>
 8    1  0.1132255E+005  0.1043930E+01  0.7957747E-01            NaN
         13   -1    0    0    0    0  0.00000000000E+00  0.00000000000E+00  0.74505805969E-08  0.10566000000E+00  0.10566000000E+00 0.  1.
     999900   -1    0    0    0    0 -0.00000000000E+00 -0.00000000000E+00 -0.74505805969E-08  0.93827000000E+00  0.93827000000E+00 0. -1.
     999902    2    1    2    0    0  0.19763657333E-01 -0.30268100769E-02 -0.12795203603E-01  0.10201922460E+01  0.10199160445E+01 0.  0.
     999903    2    3    3    0    0 -0.72702081181E-01 -0.49301130847E-01 -0.94709624227E-01  0.13036012819E+00  0.17540125096E-01 0.  0.
         14    1    1    2    0    0 -0.19763657333E-01  0.30268100769E-02  0.12795203603E-01  0.23737754015E-01  0.00000000000E+00 0. -1.
     999901    1    3    3    0    0  0.92465738514E-01  0.46274320770E-01  0.81914420624E-01  0.88983211780E+00  0.88000000000E+00 0.  1.
        -11    1    4    4    0    0 -0.57945375920E-01 -0.30048836626E-01 -0.67337024266E-01  0.93782381774E-01  0.51100000000E-03 0.  1.
         11    1    4    4    0    0 -0.14756705260E-01 -0.19252294221E-01 -0.27372599962E-01  0.36577746412E-01  0.51100000000E-03 0. -1.
</event>
<event>
 8    1  0.1132255E+005  0.1043930E+01  0.7957747E-01            NaN
         13   -1    0    0    0    0  0.00000000000E+00  0.00000000000E+00  0.74505805969E-08  0.10566000000E+00  0.10566000000E+00 0. -1.
     999900   -1    0    0    0    0 -0.00000000000E+00 -0.00000000000E+00 -0.74505805969E-08  0.93827000000E+00  0.93827000000E+00 0.  1.
     999902    2    1    2    0    0 -0.82613221716E-02 -0.68456396489E-02  0.21209353614E-01  0.10201613461E+01  0.10198844166E+01 0.  0.
     999903    2    3    3    0    0 -0.30287766291E-01  0.10489562145E+00  0.70607492939E-01  0.13144797848E+00  0.19305771136E-01 0.  0.
         14    1    1    2    0    0  0.82613221716E-02  0.68456396489E-02 -0.21209353614E-01  0.23768653873E-01  0.00000000000E+00 0.  1.
     999901    1    3    3    0    0  0.22026444119E-01 -0.11174126110E+00 -0.49398139326E-01  0.88871336765E+00  0.88000000000E+00 0.  1.
        -11    1    4    4    0    0 -0.17280298746E-01  0.40691365389E-01  0.19317176508E-01  0.48247387196E-01  0.51100000000E-03 0. -1.
         11    1    4    4    0    0 -0.13007467545E-01  0.64204256064E-01  0.51290316431E-01  0.83200591280E-01  0.51100000000E-03 0.  1.
</event>
<event>
 8    1  0.1132255E+005  0.1043930E+01  0.7957747E-01            NaN
         13   -1    0    0    0    0  0.00000000000E+00  0.00000000000E+00  0.74505805969E-08  0.10566000000E+00  0.10566000000E+00 0.  1.
     999900   -1    0    0    0    0 -0.00000000000E+00 -0.00000000000E+00 -0.74505805969E-08  0.93827000000E+00  0.93827000000E+00 0.  1.
     999902    2    1    2    0    0 -0.43042213289E-02 -0.75118588276E-02 -0.19678931390E-01  0.10224308213E+01  0.10222047592E+01 0.  0.
     999903    2    3    3    0    0  0.19777657847E-01  0.12844824227E+00  0.26713539466E-02  0.13138389703E+00  0.19091505315E-01 0.  0.
         14    1    1    2    0    0  0.43042213289E-02  0.75118588276E-02  0.19678931390E-01  0.21499178704E-01  0.00000000000E+00 0.  1.
     999901    1    3    3    0    0 -0.24081879176E-01 -0.13596010109E+00 -0.22350285337E-01  0.89104692427E+00  0.88000000000E+00 0. -1.
        -11    1    4    4    0    0  0.11936831288E-01  0.37297940465E-01  0.70344710294E-02  0.39791572070E-01  0.51100000000E-03 0.  1.
         11    1    4    4    0    0  0.78408265589E-02  0.91150301800E-01 -0.43631170828E-02  0.91592324957E-01  0.51100000000E-03 0. -1.
</event>
<event>
 8    1  0.1132255E+005  0.1043930E+01  0.7957747E-01            NaN
         13   -1    0    0    0    0  0.00000000000E+00  0.00000000000E+00  0.74505805969E-08  0.10566000000E+00  0.10566000000E+00 0.  1.
     999900   -1    0    0    0    0 -0.00000000000E+00 -0.00000000000E+00 -0.74505805969E-08  0.93827000000E+00  0.93827000000E+00 0.  1.
     999902    2    1    2    0    0  0.10218108962E-01  0.20684723827E-01  0.31851210778E-02  0.10206402480E+01  0.10203744917E+01 0.  0.
     999903    2    3    3    0    0  0.12067715238E+00 -0.54976370077E-02  0.49267478957E-01  0.13215260039E+00  0.21067182734E-01 0.  0.
         14    1    1    2    0    0 -0.10218108962E-01 -0.20684723827E-01 -0.31851210778E-02  0.23289751970E-01  0.00000000000E+00 0. -1.
     999901    1    3    3    0    0 -0.11045904342E+00  0.26182360835E-01 -0.46082357879E-01  0.88848764764E+00  0.88000000000E+00 0. -1.
        -11    1    4    4    0    0  0.49373507361E-01 -0.75454523925E-02  0.29981742883E-01  0.58256700114E-01  0.51100000000E-03 0. -1.
         11    1    4    4    0    0  0.71303645022E-01  0.20478153848E-02  0.19285736074E-01  0.73895900280E-01  0.51100000000E-03 0.  1.
</event>
<event>
 8    1  0.1345233E+005  0.1043930E+01  0.7957747E-01            NaN
         13   -1    0    0    0    0  0.00000000000E+00  0.00000000000E+00  0.74505805969E-08  0.10566000000E+00  0.10566000000E+00 0. -1.
     999900   -1    0    0    0    0 -0.00000000000E+00 -0.00000000000E+00 -0.74505805969E-08  0.93827000000E+00  0.93827000000E+00 0.  1.
     999902    2    1    2    0    0  0.16090106403E-01  0.16539887166E-01  0.62170492111E-02  0.10200320693E+01  0.10197520832E+01 0.  0.
     999903    2    3    3    0    0  0.74759696518E-01 -0.58221528376E-02 -0.10521883327E+00  0.13078511959E+00  0.20269063759E-01 0.  0.
         14    1    1    2    0    0 -0.16090106403E-01 -0.16539887166E-01 -0.62170492111E-02  0.23897930714E-01  0.00000000000E+00 0.  1.
     999901    1    3    3    0    0 -0.58669590115E-01  0.22362040003E-01  0.11143588248E+00  0.88924694969E+00  0.88000000000E+00 0. -1.
        -11    1    4    4    0    0  0.62847460446E-01  0.13844531681E-02 -0.77750065362E-01  0.99985267814E-01  0.51100000000E-03 0.  1.
         11    1    4    4    0    0  0.11912236072E-01 -0.72066060057E-02 -0.27468767904E-01  0.30799851777E-01  0.51100000000E-03 0. -1.
</event>
<event>
 8    1  0.1132255E+005  0.1043930E+01  0.7957747E-01            NaN
         13   -1    0    0    0    0  0.00000000000E+00  0.00000000000E+00  0.74505805969E-08  0.10566000000E+00  0.10566000000E+00 0. -1.
     999900   -1    0    0    0    0 -0.00000000000E+00 -0.00000000000E+00 -0.74505805969E-08  0.93827000000E+00  0.93827000000E+00 0.  1.
     999902    2    1    2    0    0  0.13764208330E-01 -0.34353820068E-02  0.20759742951E-01  0.10187859707E+01  0.10184756413E+01 0.  0.
     999903    2    3    3    0    0  0.26835430304E-01 -0.12500777986E+00 -0.92915777851E-02  0.12982377432E+00  0.20513254673E-01 0.  0.
         14    1    1    2    0    0 -0.13764208330E-01  0.34353820068E-02 -0.20759742951E-01  0.25144029269E-01  0.00000000000E+00 0.  1.
     999901    1    3    3    0    0 -0.13071221974E-01  0.12157239785E+00  0.30051320737E-01  0.88896219641E+00  0.88000000000E+00 0. -1.
        -11    1    4    4    0    0  0.23281356374E-01 -0.10492504686E+00 -0.15287042633E-01  0.10855985357E+00  0.51100000000E-03 0.  1.
         11    1    4    4    0    0  0.35540739301E-02 -0.20082732994E-01  0.59954648479E-02  0.21263920752E-01  0.51100000000E-03 0. -1.
</event>
<event>
 8    1  0.1132255E+005  0.1043930E+01  0.7957747E-01            NaN
         13   -1    0    0    0    0  0.00000000000E+00  0.00000000000E+00  0.74505805969E-08  0.10566000000E+00  0.10566000000E+00 0.  1.
     999900   -1    0    0    0    0 -0.00000000000E+00 -0.00000000000E+00 -0.74505805969E-08  0.93827000000E+00  0.93827000000E+00 0.  1.
     999902    2    1    2    0    0 -0.24362373415E-02  0.23535821165E-01  0.72710648057E-02  0.10191764444E+01  0.10188757954E+01 0.  0.
     999903    2    3    3    0    0 -0.73511491344E-01 -0.18777946222E-01  0.10379069185E+00  0.13004305452E+00  0.19548342393E-01 0.  0.
         14    1    1    2    0    0  0.24362373415E-02 -0.23535821165E-01 -0.72710648057E-02  0.24753555577E-01  0.00000000000E+00 0. -1.
     999901    1    3    3    0    0  0.71075254002E-01  0.42313767386E-01 -0.96519627041E-01  0.88913338991E+00  0.88000000000E+00 0.  1.
        -11    1    4    4    0    0 -0.42987142020E-01 -0.19428443325E-01  0.70918208160E-01  0.85176359154E-01  0.51100000000E-03 0.  1.
         11    1    4    4    0    0 -0.30524349324E-01  0.65049710285E-03  0.32872483687E-01  0.44866695363E-01  0.51100000000E-03 0. -1.
</event>
<event>
 8    1  0.1132255E+005  0.1043930E+01  0.7957747E-01            NaN
         13   -1    0    0    0    0  0.00000000000E+00  0.00000000000E+00  0.74505805969E-08  0.10566000000E+00  0.10566000000E+00 0. -1.
     999900   -1    0    0    0    0 -0.00000000000E+00 -0.00000000000E+00 -0.74505805969E-08  0.93827000000E+00  0.93827000000E+00 0. -1.
     999902    2    1    2    0    0 -0.15155785559E-01  0.31148286805E-02 -0.17810809741E-01  0.10203370999E+01  0.10200642982E+01 0.  0.
     999903    2    3    3    0    0 -0.57020410062E-01  0.11274852916E+00 -0.34481454225E-01  0.13238996998E+00  0.19353952450E-01 0.  0.
         14    1    1    2    0    0  0.15155785559E-01 -0.31148286805E-02  0.17810809741E-01  0.23592900145E-01  0.00000000000E+00 0. -1.
     999901    1    3    3    0    0  0.41864624503E-01 -0.10963370048E+00  0.16670644483E-01  0.88794712987E+00  0.88000000000E+00 0. -1.
        -11    1    4    4    0    0 -0.15726616980E-01  0.36398138269E-01 -0.19912460079E-01  0.44372493039E-01  0.51100000000E-03 0. -1.
         11    1    4    4    0    0 -0.41293793082E-01  0.76350390887E-01 -0.14568994145E-01  0.88017476941E-01  0.51100000000E-03 0.  1.
</event>
<event>
 8    1  0.1132255E+005  0.1043930E+01  0.7957747E-01            NaN
         13   -1    0    0    0    0  0.00000000000E+00  0.00000000000E+00  0.74505805969E-08  0.10566000000E+00  0.10566000000E+00 0.  1.
     999900   -1    0    0    0    0 -0.00000000000E+00 -0.00000000000E+00 -0.74505805969E-08  0.93827000000E+00  0.93827000000E+00 0. -1.
     999902    2    1    2    0    0  0.91369783101E-02 -0.32799304682E-02  0.20152164741E-01  0.10215614493E+01  0.10213165242E+01 0.  0.
     999903    2    3    3    0    0 -0.62273774034E-02  0.45116040593E-01  0.12425867705E+00  0.13397122891E+00  0.20828682257E-01 0.  0.
         14    1    1    2    0    0 -0.91369783101E-02  0.32799304682E-02 -0.20152164741E-01  0.22368550696E-01  0.00000000000E+00 0. -1.
     999901    1    3    3    0    0  0.15364355714E-01 -0.48395971062E-01 -0.10410651231E+00  0.88759022040E+00  0.88000000000E+00 0. -1.
        -11    1    4    4    0    0 -0.98294971413E-02  0.24945604418E-01  0.47754271872E-01  0.54768912686E-01  0.51100000000E-03 0. -1.
         11    1    4    4    0    0  0.36021197380E-02  0.20170436175E-01  0.76504405177E-01  0.79202316220E-01  0.51100000000E-03 0.  1.
</event>
<event>
 8    1  0.1132255E+005  0.1043930E+01  0.7957747E-01            NaN
         13   -1    0    0    0    0  0.00000000000E+00  0.00000000000E+00  0.74505805969E-08  0.10566000000E+00  0.10566000000E+00 0. -1.
     999900   -1    0    0    0    0 -0.00000000000E+00 -0.00000000000E+00 -0.74505805969E-08  0.93827000000E+00  0.93827000000E+00 0. -1.
     999902    2    1    2    0    0  0.60930472841E-02 -0.21362716111E-01  0.11716360956E-03  0.10217150368E+01  0.10214735003E+01 0.  0.
     999903    2    3    3    0    0  0.11397864853E+00  0.49790314329E-01  0.38323735742E-01  0.13145563700E+00  0.18484265084E-01 0.  0.
         14    1    1    2    0    0 -0.60930472841E-02  0.21362716111E-01 -0.11716360956E-03  0.22214963249E-01  0.00000000000E+00 0. -1.
     999901    1    3    3    0    0 -0.10788560124E+00 -0.71153030440E-01 -0.38206572132E-01  0.89025939975E+00  0.88000000000E+00 0.  1.
        -11    1    4    4    0    0  0.40771400945E-01  0.22656197429E-01  0.22514030046E-01  0.51795299853E-01  0.51100000000E-03 0.  1.
         11    1    4    4    0    0  0.73207247584E-01  0.27134116900E-01  0.15809705696E-01  0.79660337144E-01  0.51100000000E-03 0. -1.
</event>
<event>
 8    1  0.1132255E+005  0.1043930E+01  0.7957747E-01            NaN
         13   -1    0    0    0    0  0.00000000000E+00  0.00000000000E+00  0.74505805969E-08  0.10566000000E+00  0.10566000000E+00 0. -1.
     999900   -1    0    0    0    0 -0.00000000000E+00 -0.00000000000E+00 -0.74505805969E-08  0.93827000000E+00  0.93827000000E+00 0. -1.
     999902    2    1    2    0    0 -0.81625403202E-02 -0.38277801994E-02  0.20720105102E-01  0.10213335020E+01  0.10210835033E+01 0.  0.
     999903    2    3    3    0    0  0.47816428811E-01  0.11980968909E+00 -0.64905858332E-02  0.13051349186E+00  0.18731561268E-01 0.  0.
         14    1    1    2    0    0  0.81625403202E-02  0.38277801994E-02 -0.20720105102E-01  0.22596497985E-01  0.00000000000E+00 0. -1.
     999901    1    3    3    0    0 -0.55978969131E-01 -0.12363746929E+00  0.27210690936E-01  0.89082001016E+00  0.88000000000E+00 0. -1.
        -11    1    4    4    0    0  0.15511234666E-01  0.31518603903E-01 -0.96828613942E-02  0.36442279273E-01  0.51100000000E-03 0.  1.
         11    1    4    4    0    0  0.32305194146E-01  0.88291085189E-01  0.31922755611E-02  0.94071212583E-01  0.51100000000E-03 0. -1.
</event>
<event>
 8    1  0.1132255E+005  0.1043930E+01  0.7957747E-01            NaN
         13   -1    0    0    0    0  0.00000000000E+00  0.00000000000E+00  0.74505805969E-08  0.10566000000E+00  0.10566000000E+00 0.  1.
     999900   -1    0    0    0    0 -0.00000000000E+00 -0.00000000000E+00 -0.74505805969E-08  0.93827000000E+00  0.93827000000E+00 0.  1.
     999902    2    1    2    0    0 -0.60583934686E-03 -0.12297385122E-01  0.19936176429E-01  0.10204983152E+01  0.10202292720E+01 0.  0.
     999903    2    3    3    0    0 -0.93279903036E-01  0.76815025881E-01 -0.40449346835E-01  0.12910843681E+00  0.20764158631E-01 0.  0.
         14    1    1    2    0    0  0.60583934686E-03  0.12297385122E-01 -0.19936176429E-01  0.23431684804E-01  0.00000000000E+00 0. -1.
     999901    1    3    3    0    0  0.92674063689E-01 -0.89112411003E-01  0.60385523264E-01  0.89138987839E+00  0.88000000000E+00 0. -1.
        -11    1    4    4    0    0 -0.93814423642E-02  0.17449613352E-01 -0.58890609646E-02  0.20674685657E-01  0.51100000000E-03 0. -1.
         11    1    4    4    0    0 -0.83898460672E-01  0.59365412529E-01 -0.34560285870E-01  0.10843375115E+00  0.51100000000E-03 0.  1.
</event>
<event>
 8    1  0.1132255E+005  0.1043930E+01  0.7957747E-01            NaN
         13   -1    0    0    0    0  0.00000000000E+00  0.00000000000E+00  0.74505805969E-08  0.10566000000E+00  0.10566000000E+00 0. -1.
     999900   -1    0    0    0    0 -0.00000000000E+00 -0.00000000000E+00 -0.74505805969E-08  0.93827000000E+00  0.93827000000E+00 0. -1.
     999902    2    1    2    0    0  0.22322326208E-01 -0.65994215213E-02  0.19282649872E-03  0.10206517743E+01  0.10203862840E+01 0.  0.
     999903    2    3    3    0    0  0.39576262124E-01  0.11832173278E+00 -0.34498875120E-01  0.13098525962E+00  0.20016315432E-01 0.  0.
         14    1    1    2    0    0 -0.22322326208E-01  0.65994215213E-02 -0.19282649872E-03  0.23278225744E-01  0.00000000000E+00 0. -1.
     999901    1    3    3    0    0 -0.17253935916E-01 -0.12492115430E+00  0.34691701619E-01  0.88966651463E+00  0.88000000000E+00 0. -1.
        -11    1    4    4    0    0  0.33016345908E-01  0.74222619388E-01 -0.28002725929E-01  0.85927237279E-01  0.51100000000E-03 0.  1.
         11    1    4    4    0    0  0.65599162160E-02  0.44099113388E-01 -0.64961491909E-02  0.45058022345E-01  0.51100000000E-03 0. -1.
</event>
<event>
 8    1  0.1132255E+005  0.1043930E+01  0.7957747E-01            NaN
         13   -1    0    0    0    0  0.00000000000E+00  0.00000000000E+00  0.74505805969E-08  0.10566000000E+00  0.10566000000E+00 0. -1.
     999900   -1    0    0    0    0 -0.00000000000E+00 -0.00000000000E+00 -0.74505805969E-08  0.93827000000E+00  0.93827000000E+00 0. -1.
     999902    2    1    2    0    0  0.61966606471E-02 -0.47155859295E-02 -0.22193032726E-01  0.10204105175E+01  0.10201394308E+01 0.  0.
     999903    2    3    3    0    0  0.68147584032E-01  0.54676789717E-01  0.92645496824E-01  0.12880900393E+00  0.19363028396E-01 0.  0.
         14    1    1    2    0    0 -0.61966606471E-02  0.47155859295E-02  0.22193032726E-01  0.23519482465E-01  0.00000000000E+00 0. -1.
     999901    1    3    3    0    0 -0.61950923385E-01 -0.59392375647E-01 -0.11483852955E+00  0.89160151360E+00  0.88000000000E+00 0. -1.
        -11    1    4    4    0    0  0.17458423339E-01  0.16018899786E-01  0.13833812221E-01  0.27441522869E-01  0.51100000000E-03 0.  1.
         11    1    4    4    0    0  0.50689160692E-01  0.38657889932E-01  0.78811684603E-01  0.10136748106E+00  0.51100000000E-03 0. -1.
</event>
<event>
 7    1  0.1132255E+005  0.1043930E+01  0.7957747E-01            NaN
         13   -1    0    0    0    0  0.00000000000E+00  0.00000000000E+00  0.74505805969E-08  0.10566000000E+00  0.10566000000E+00 0.  1.
     999900   -1    0    0    0    0 -0.00000000000E+00 -0.00000000000E+00 -0.74505805969E-08  0.93827000000E+00  0.93827000000E+00 0.  1.
     999902    2    1    2    0    0  0.16182927648E-01  0.28490299227E-02  0.24967982300E-01  0.10140401312E+01  0.10135995182E+01 0.  0.
         14    1    1    2    0    0 -0.16182927648E-01 -0.28490299227E-02 -0.24967982300E-01  0.29889868834E-01  0.00000000000E+00 0. -1.
     999901    1    3    3    0    0  0.39226263048E-01  0.66797871090E-01  0.10294494873E+00  0.88938086204E+00  0.88000000000E+00 0. -1.
        -11    1    3    3    0    0 -0.29915883479E-01 -0.48103364997E-01 -0.88019455431E-01  0.10467368085E+00  0.51100000000E-03 0. -1.
         11    1    3    3    0    0  0.68725480791E-02 -0.15845476171E-01  0.10042489001E-01  0.19985588270E-01  0.51100000000E-03 0.  1.
</event>
<event>
 8    1  0.1132255E+005  0.1043930E+01  0.7957747E-01            NaN
         13   -1    0    0    0    0  0.00000000000E+00  0.00000000000E+00  0.74505805969E-08  0.10566000000E+00  0.10566000000E+00 0.  1.
     999900   -1    0    0    0    0 -0.00000000000E+00 -0.00000000000E+00 -0.74505805969E-08  0.93827000000E+00  0.93827000000E+00 0. -1.
     999902    2    1    2    0    0 -0.15493435337E-01  0.11288048058E-01 -0.13949486978E-01  0.10202223060E+01  0.10199468118E+01 0.  0.
     999903    2    3    3    0    0 -0.12281803610E+00 -0.45354006263E-02 -0.46639133306E-01  0.13295821655E+00  0.19945895383E-01 0.  0.
         14    1    1    2    0    0  0.15493435337E-01 -0.11288048058E-01  0.13949486978E-01  0.23707693992E-01  0.00000000000E+00 0. -1.
     999901    1    3    3    0    0  0.10732460077E+00  0.15823448684E-01  0.32689646328E-01  0.88726408945E+00  0.88000000000E+00 0.  1.
        -11    1    4    4    0    0 -0.11157497942E+00 -0.90132503664E-02 -0.45350017657E-01  0.12077706710E+00  0.51100000000E-03 0.  1.
         11    1    4    4    0    0 -0.11243056685E-01  0.44778497401E-02 -0.12891156496E-02  0.12181149456E-01  0.51100000000E-03 0. -1.
</event>
<event>
 8    1  0.1132255E+005  0.1043930E+01  0.7957747E-01            NaN
         13   -1    0    0    0    0  0.00000000000E+00  0.00000000000E+00  0.74505805969E-08  0.10566000000E+00  0.10566000000E+00 0. -1.
     999900   -1    0    0    0    0 -0.00000000000E+00 -0.00000000000E+00 -0.74505805969E-08  0.93827000000E+00  0.93827000000E+00 0.  1.
     999902    2    1    2    0    0 -0.50401672394E-02  0.33734503156E-02  0.23235458894E-01  0.10199160457E+01  0.10196333018E+01 0.  0.
     999903    2    3    3    0    0  0.67777959300E-01  0.67751615444E-01 -0.83246210229E-01  0.12818437439E+00  0.17809243605E-01 0.  0.
         14    1    1    2    0    0  0.50401672394E-02 -0.33734503156E-02 -0.23235458894E-01  0.24013954336E-01  0.00000000000E+00 0.  1.
     999901    1    3    3    0    0 -0.72818126539E-01 -0.64378165128E-01  0.10648166912E+00  0.89173167128E+00  0.88000000000E+00 0. -1.
        -11    1    4    4    0    0  0.64165388435E-02  0.12844450824E-01 -0.70803629070E-02  0.16017008072E-01  0.51100000000E-03 0. -1.
         11    1    4    4    0    0  0.61361420457E-01  0.54907164620E-01 -0.76165847322E-01  0.11216736632E+00  0.51100000000E-03 0.  1.
</event>
<event>
 8    1  0.1132255E+005  0.1043930E+01  0.7957747E-01            NaN
         13   -1    0    0    0    0  0.00000000000E+00  0.00000000000E+00  0.74505805969E-08  0.10566000000E+00  0.10566000000E+00 0. -1.
     999900   -1    0    0    0    0 -0.00000000000E+00 -0.00000000000E+00 -0.74505805969E-08  0.93827000000E+00  0.93827000000E+00 0.  1.
     999902    2    1    2    0    0 -0.12484943992E-01 -0.15788645185E-01  0.14354992962E-01  0.10192071165E+01  0.10189072212E+01 0.  0.
     999903    2    3    3    0    0  0.12423731678E+00 -0.20634284587E-01  0.16321009958E-01  0.12863408640E+00  0.20485805710E-01 0.  0.
         14    1    1    2    0    0  0.12484943992E-01  0.15788645185E-01 -0.14354992962E-01  0.24722883452E-01  0.00000000000E+00 0.  1.
     999901    1    3    3    0    0 -0.13672226077E+00  0.48456394014E-02 -0.19660169960E-02  0.89057303015E+00  0.88000000000E+00 0.  1.
        -11    1    4    4    0    0  0.63290497156E-01 -0.19662258474E-01  0.13333212060E-01  0.67604194422E-01  0.51100000000E-03 0. -1.
         11    1    4    4    0    0  0.60946819624E-01 -0.97202611276E-03  0.29877978986E-02  0.61029891973E-01  0.51100000000E-03 0.  1.
</event>
<event>
 8    1  0.1132255E+005  0.1043930E+01  0.7957747E-01            NaN
         13   -1    0    0    0    0  0.00000000000E+00  0.00000000000E+00  0.74505805969E-08  0.10566000000E+00  0.10566000000E+00 0. -1.
     999900   -1    0    0    0    0 -0.00000000000E+00 -0.00000000000E+00 -0.74505805969E-08  0.93827000000E+00  0.93827000000E+00 0.  1.
     999902    2    1    2    0    0 -0.19151639734E-01  0.14303152848E-02 -0.14428457765E-01  0.10199089363E+01  0.10196260231E+01 0.  0.
     999903    2    3    3    0    0  0.21963656452E-02  0.96912155100E-02 -0.12912479394E+00  0.13217067010E+00  0.26403218409E-01 0.  0.
         14    1    1    2    0    0  0.19151639734E-01 -0.14303152848E-02  0.14428457765E-01  0.24021063669E-01  0.00000000000E+00 0. -1.
     999901    1    3    3    0    0 -0.21348005379E-01 -0.82609002252E-02  0.11469633618E+00  0.88773826624E+00  0.88000000000E+00 0. -1.
        -11    1    4    4    0    0  0.10562677291E-01  0.47677092478E-02 -0.11099192634E+00  0.11159646068E+00  0.51100000000E-03 0. -1.
         11    1    4    4    0    0 -0.83663116463E-02  0.49235062622E-02 -0.18132867606E-01  0.20574209416E-01  0.51100000000E-03 0.  1.
</event>
<event>
 8    1  0.1132255E+005  0.1043930E+01  0.7957747E-01            NaN
         13   -1    0    0    0    0  0.00000000000E+00  0.00000000000E+00  0.74505805969E-08  0.10566000000E+00  0.10566000000E+00 0. -1.
     999900   -1    0    0    0    0 -0.00000000000E+00 -0.00000000000E+00 -0.74505805969E-08  0.93827000000E+00  0.93827000000E+00 0.  1.
     999902    2    1    2    0    0 -0.18988079600E-03  0.21852664277E-01  0.88897131983E-02  0.10203375861E+01  0.10200647958E+01 0.  0.
     999903    2    3    3    0    0 -0.26527089704E-01 -0.53590323599E-01  0.11398427610E+00  0.13048919448E+00  0.21433744560E-01 0.  0.
         14    1    1    2    0    0  0.18988079600E-03 -0.21852664277E-01 -0.88897131983E-02  0.23592413855E-01  0.00000000000E+00 0. -1.
     999901    1    3    3    0    0  0.26337208908E-01  0.75442987876E-01 -0.10509456291E+00  0.88984839166E+00  0.88000000000E+00 0.  1.
        -11    1    4    4    0    0 -0.18538412528E-01 -0.32936691938E-01  0.49336112124E-01  0.62151520459E-01  0.51100000000E-03 0. -1.
         11    1    4    4    0    0 -0.79886771767E-02 -0.20653631661E-01  0.64648163981E-01  0.68337674023E-01  0.51100000000E-03 0.  1.
</event>
<event>
 8    1  0.1132255E+005  0.1043930E+01  0.7957747E-01            NaN
         13   -1    0    0    0    0  0.00000000000E+00  0.00000000000E+00  0.74505805969E-08  0.10566000000E+00  0.10566000000E+00 0. -1.
     999900   -1    0    0    0    0 -0.00000000000E+00 -0.00000000000E+00 -0.74505805969E-08  0.93827000000E+00  0.93827000000E+00 0. -1.
     999902    2    1    2    0    0  0.13898850257E-01  0.18196318133E-01  0.37442396958E-02  0.10207286345E+01  0.10204649146E+01 0.  0.
     999903    2    3    3    0    0 -0.70469537759E-01  0.76745275635E-01 -0.77000464721E-01  0.13108504705E+00  0.19960583900E-01 0.  0.
         14    1    1    2    0    0 -0.13898850257E-01 -0.18196318133E-01 -0.37442396958E-02  0.23201365541E-01  0.00000000000E+00 0.  1.
     999901    1    3    3    0    0  0.84368388015E-01 -0.58548957502E-01  0.80744704416E-01  0.88964358741E+00  0.88000000000E+00 0. -1.
        -11    1    4    4    0    0 -0.64179553466E-01  0.60419571785E-01 -0.68463319060E-01  0.11161105194E+00  0.51100000000E-03 0.  1.
         11    1    4    4    0    0 -0.62899842932E-02  0.16325703850E-01 -0.85371456608E-02  0.19473995112E-01  0.51100000000E-03 0. -1.
</event>
<event>
 8    1  0.1132255E+005  0.1043930E+01  0.7957747E-01            NaN
         13   -1    0    0    0    0  0.00000000000E+00  0.00000000000E+00  0.74505805969E-08  0.10566000000E+00  0.10566000000E+00 0. -1.
     999900   -1    0    0    0    0 -0.00000000000E+00 -0.00000000000E+00 -0.74505805969E-08  0.93827000000E+00  0.93827000000E+00 0. -1.
     999902    2    1    2    0    0 -0.19316577426E-01 -0.12050721478E-01  0.33241409876E-02  0.10209213068E+01  0.10206619982E+01 0.  0.
     999903    2    3    3    0    0 -0.11012210399E+00 -0.56294309818E-01  0.44299052016E-01  0.13419582381E+00  0.27389523820E-01 0.  0.
         14    1    1    2    0    0  0.19316577426E-01  0.12050721478E-01 -0.33241409876E-02  0.23008693246E-01  0.00000000000E+00 0. -1.
     999901    1    3    3    0    0  0.90805526561E-01  0.44243588341E-01 -0.40974911028E-01  0.88672548294E+00  0.88000000000E+00 0. -1.
        -11    1    4    4    0    0 -0.53343433325E-01 -0.25454702356E-01  0.68261780176E-02  0.59500601495E-01  0.51100000000E-03 0. -1.
         11    1    4    4    0    0 -0.56778670662E-01 -0.30839607462E-01  0.37472873998E-01  0.74695222319E-01  0.51100000000E-03 0.  1.
</event>
<event>
 8    1  0.1132255E+005  0.1043930E+01  0.7957747E-01            NaN
         13   -1    0    0    0    0  0.00000000000E+00  0.00000000000E+00  0.74505805969E-08  0.10566000000E+00  0.10566000000E+00 0.  1.
     999900   -1    0    0    0    0 -0.00000000000E+00 -0.00000000000E+00 -0.74505805969E-08  0.93827000000E+00  0.93827000000E+00 0.  1.
     999902    2    1    2    0    0  0.17122806163E-01 -0.15409938068E-01 -0.45448737908E-02  0.10204499540E+01  0.10201797861E+01 0.  0.
     999903    2    3    3    0    0  0.88085107463E-01 -0.51452542396E-01 -0.83955088321E-01  0.13329681068E+00  0.17698378675E-01 0.  0.
         14    1    1    2    0    0 -0.17122806163E-01  0.15409938068E-01  0.45448737908E-02  0.23480045995E-01  0.00000000000E+00 0.  1.
     999901    1    3    3    0    0 -0.70962301299E-01  0.36042604329E-01  0.79410214530E-01  0.88715314332E+00  0.88000000000E+00 0. -1.
        -11    1    4    4    0    0  0.58771803595E-01 -0.35175967604E-01 -0.66608681859E-01  0.95542928648E-01  0.51100000000E-03 0.  1.
         11    1    4    4    0    0  0.29313303868E-01 -0.16276574792E-01 -0.17346406462E-01  0.37753882036E-01  0.51100000000E-03 0. -1.
</event>
<event>
 8    1  0.1132255E+005  0.1043930E+01  0.7957747E-01            NaN
         13   -1    0    0    0    0  0.00000000000E+00  0.00000000000E+00  0.74505805969E-08  0.10566000000E+00  0.10566000000E+00 0.  1.
     999900   -1    0    0    0    0 -0.00000000000E+00 -0.00000000000E+00 -0.74505805969E-08  0.93827000000E+00  0.93827000000E+00 0. -1.
     999902    2    1    2    0    0  0.92832528957E-02  0.71433323909E-02 -0.20396892580E-01  0.10204089624E+01  0.10201378394E+01 0.  0.
     999903    2    3    3    0    0 -0.89639375545E-01  0.75234464329E-01 -0.56919708253E-01  0.13150176550E+00  0.18905524894E-01 0.  0.
         14    1    1    2    0    0 -0.92832528957E-02 -0.71433323909E-02  0.20396892580E-01  0.23521037581E-01  0.00000000000E+00 0.  1.
     999901    1    3    3    0    0  0.98922628441E-01 -0.68091131938E-01  0.36522815673E-01  0.88890719692E+00  0.88000000000E+00 0.  1.
        -11    1    4    4    0    0 -0.26908666626E-01  0.34216748465E-01 -0.22927211246E-01  0.49201426317E-01  0.51100000000E-03 0. -1.
         11    1    4    4    0    0 -0.62730708919E-01  0.41017715864E-01 -0.33992497007E-01  0.82300339185E-01  0.51100000000E-03 0.  1.
</event>
<event>
 8    1  0.1132255E+005  0.1043930E+01  0.7957747E-01            NaN
         13   -1    0    0    0    0  0.00000000000E+00  0.00000000000E+00  0.74505805969E-08  0.10566000000E+00  0.10566000000E+00 0.  1.
     999900   -1    0    0    0    0 -0.00000000000E+00 -0.00000000000E+00 -0.74505805969E-08  0.93827000000E+00  0.93827000000E+00 0.  1.
     999902    2    1    2    0    0  0.16007942655E-01  0.12673553007E-01  0.10861654134E-01  0.10208032038E+01  0.10205411957E+01 0.  0.
     999903    2    3    3    0    0 -0.18604708606E-01 -0.60093957283E-01 -0.11068649481E+00  0.12880146683E+00  0.19516629820E-01 0.  0.
         14    1    1    2    0    0 -0.16007942655E-01 -0.12673553007E-01 -0.10861654134E-01  0.23126796241E-01  0.00000000000E+00 0. -1.
     999901    1    3    3    0    0  0.34612651261E-01  0.72767510290E-01  0.12154814894E+00  0.89200173693E+00  0.88000000000E+00 0. -1.
        -11    1    4    4    0    0 -0.17192197968E-01 -0.60739083610E-01 -0.10193941521E+00  0.11990293343E+00  0.51100000000E-03 0.  1.
         11    1    4    4    0    0 -0.14125106378E-02  0.64512632689E-03 -0.87470795920E-02  0.88985333998E-02  0.51100000000E-03 0. -1.
</event>
<event>
 8    1  0.1132255E+005  0.1043930E+01  0.7957747E-01            NaN
         13   -1    0    0    0    0  0.00000000000E+00  0.00000000000E+00  0.74505805969E-08  0.10566000000E+00  0.10566000000E+00 0.  1.
     999900   -1    0    0    0    0 -0.00000000000E+00 -0.00000000000E+00 -0.74505805969E-08  0.93827000000E+00  0.93827000000E+00 0. -1.
     999902    2    1    2    0    0  0.16980723325E-01  0.16193740476E-01 -0.84276852419E-02  0.10189979308E+01  0.10186928757E+01 0.  0.
     999903    2    3    3    0    0 -0.53343268924E-01  0.44358914260E-01 -0.10694886133E+00  0.13026559595E+00  0.26792703001E-01 0.  0.
         14    1    1    2    0    0 -0.16980723325E-01 -0.16193740476E-01  0.84276852419E-02  0.24932069184E-01  0.00000000000E+00 0.  1.
     999901    1    3    3    0    0  0.70323992249E-01 -0.28165173784E-01  0.98521176089E-01  0.88873233487E+00  0.88000000000E+00 0.  1.
        -11    1    4    4    0    0 -0.43720921222E-01  0.45255739854E-01 -0.81002672563E-01  0.10257336411E+00  0.51100000000E-03 0.  1.
         11    1    4    4    0    0 -0.96223477019E-02 -0.89682559347E-03 -0.25946188768E-01  0.27692231835E-01  0.51100000000E-03 0. -1.
</event>
<event>
 8    1  0.1132255E+005  0.1043930E+01  0.7957747E-01            NaN
         13   -1    0    0    0    0  0.00000000000E+00  0.00000000000E+00  0.74505805969E-08  0.10566000000E+00  0.10566000000E+00 0.  1.
     999900   -1    0    0    0    0 -0.00000000000E+00 -0.00000000000E+00 -0.74505805969E-08  0.93827000000E+00  0.93827000000E+00 0.  1.
     999902    2    1    2    0    0 -0.18022642782E-01 -0.10330478441E-02 -0.14786669465E-01  0.10205948669E+01  0.10203280620E+01 0.  0.
     999903    2    3    3    0    0  0.10171077599E+00 -0.24094320530E-02  0.75000626248E-01  0.12795846590E+00  0.19934586569E-01 0.  0.
         14    1    1    2    0    0  0.18022642782E-01  0.10330478441E-02  0.14786669465E-01  0.23335133052E-01  0.00000000000E+00 0.  1.
     999901    1    3    3    0    0 -0.11973341878E+00  0.13763842089E-02 -0.89787295714E-01  0.89263640105E+00  0.88000000000E+00 0.  1.
        -11    1    4    4    0    0  0.48958417182E-01  0.79537591427E-02  0.40923160580E-01  0.64305171567E-01  0.51100000000E-03 0. -1.
         11    1    4    4    0    0  0.52752358812E-01 -0.10363191196E-01  0.34077465668E-01  0.63653294332E-01  0.51100000000E-03 0.  1.
</event>
<event>
 8    1  0.1132255E+005  0.1043930E+01  0.7957747E-01            NaN
         13   -1    0    0    0    0  0.00000000000E+00  0.00000000000E+00  0.74505805969E-08  0.10566000000E+00  0.10566000000E+00 0. -1.
     999900   -1    0    0    0    0 -0.00000000000E+00 -0.00000000000E+00 -0.74505805969E-08  0.93827000000E+00  0.93827000000E+00 0.  1.
     999902    2    1    2    0    0 -0.64657879149E-02  0.23532517029E-01  0.11688968782E-01  0.10168704774E+01  0.10165103787E+01 0.  0.
     999903    2    3    3    0    0 -0.12136960961E-01  0.11639432758E+00  0.55039817112E-01  0.13090502995E+00  0.20292857923E-01 0.  0.
         14    1    1    2    0    0  0.64657879149E-02 -0.23532517029E-01 -0.11688968782E-01  0.27059522580E-01  0.00000000000E+00 0.  1.
     999901    1    3    3    0    0  0.56711730466E-02 -0.92861810555E-01 -0.43350848331E-01  0.88596544747E+00  0.88000000000E+00 0.  1.
        -11    1    4    4    0    0 -0.53406675226E-02  0.47865537676E-01  0.33784182182E-01  0.58832512383E-01  0.51100000000E-03 0. -1.
         11    1    4    4    0    0 -0.67962934389E-02  0.68528789909E-01  0.21255634930E-01  0.72072517565E-01  0.51100000000E-03 0.  1.
</event>
<event>
 8    1  0.1132255E+005  0.1043930E+01  0.7957747E-01            NaN
         13   -1    0    0    0    0  0.00000000000E+00  0.00000000000E+00  0.74505805969E-08  0.10566000000E+00  0.10566000000E+00 0.  1.
     999900   -1    0    0    0    0 -0.00000000000E+00 -0.00000000000E+00 -0.74505805969E-08  0.93827000000E+00  0.93827000000E+00 0. -1.
     999902    2    1    2    0    0  0.14898636154E-01 -0.18232357516E-01 -0.38959432993E-02  0.10200644056E+01  0.10197851857E+01 0.  0.
     999903    2    3    3    0    0 -0.33784264540E-01 -0.12551457124E+00 -0.12829071773E-01  0.13216841005E+00  0.20214336699E-01 0.  0.
         14    1    1    2    0    0 -0.14898636154E-01  0.18232357516E-01  0.38959432993E-02  0.23865594357E-01  0.00000000000E+00 0. -1.
     999901    1    3    3    0    0  0.48682900694E-01  0.10728221373E+00  0.89331284735E-02  0.88789599559E+00  0.88000000000E+00 0.  1.
        -11    1    4    4    0    0 -0.19110824601E-01 -0.35541378066E-01 -0.27690353697E-02  0.40451722456E-01  0.51100000000E-03 0. -1.
         11    1    4    4    0    0 -0.14673439939E-01 -0.89973193177E-01 -0.10060036403E-01  0.91716687596E-01  0.51100000000E-03 0.  1.
</event>
<event>
 8    1  0.1132255E+005  0.1043930E+01  0.7957747E-01            NaN
         13   -1    0    0    0    0  0.00000000000E+00  0.00000000000E+00  0.74505805969E-08  0.10566000000E+00  0.10566000000E+00 0.  1.
     999900   -1    0    0    0    0 -0.00000000000E+00 -0.00000000000E+00 -0.74505805969E-08  0.93827000000E+00  0.93827000000E+00 0. -1.
     999902    2    1    2    0    0  0.11310358316E-01  0.16132479967E-01 -0.10666244360E-01  0.10215257619E+01  0.10212800460E+01 0.  0.
     999903    2    3    3    0    0  0.28215542974E-03  0.60627319411E-01 -0.11638632177E+00  0.13401342580E+00  0.27167460848E-01 0.  0.
         14    1    1    2    0    0 -0.11310358316E-01 -0.16132479967E-01  0.10666244360E-01  0.22404238078E-01  0.00000000000E+00 0.  1.
     999901    1    3    3    0    0  0.11028202886E-01 -0.44494839444E-01  0.10572007741E+00  0.88751233612E+00  0.88000000000E+00 0.  1.
        -11    1    4    4    0    0 -0.11540661773E-01  0.16376769076E-01 -0.27613686114E-01  0.34119821531E-01  0.51100000000E-03 0.  1.
         11    1    4    4    0    0  0.11822817202E-01  0.44250550334E-01 -0.88772635659E-01  0.99893604272E-01  0.51100000000E-03 0. -1.
</event>
<event>
 8    1  0.1132255E+005  0.1043930E+01  0.7957747E-01            NaN
         13   -1    0    0    0    0  0.00000000000E+00  0.00000000000E+00  0.74505805969E-08  0.10566000000E+00  0.10566000000E+00 0.  1.
     999900   -1    0    0    0    0 -0.00000000000E+00 -0.00000000000E+00 -0.74505805969E-08  0.93827000000E+00  0.93827000000E+00 0.  1.
     999902    2    1    2    0    0 -0.57626164343E-02 -0.20674955694E-01  0.10669769224E-01  0.10199611553E+01  0.10196794853E+01 0.  0.
     999903    2    3    3    0    0 -0.30747766111E-01  0.10165076260E+00 -0.67987740947E-01  0.12767485429E+00  0.20005820143E-01 0.  0.
         14    1    1    2    0    0  0.57626164343E-02  0.20674955694E-01 -0.10669769224E-01  0.23968844703E-01  0.00000000000E+00 0. -1.
     999901    1    3    3    0    0  0.24985149677E-01 -0.12232571830E+00  0.78657510171E-01  0.89228630101E+00  0.88000000000E+00 0. -1.
        -11    1    4    4    0    0 -0.14741436859E-01  0.70690734115E-01 -0.37516781611E-01  0.81377268779E-01  0.51100000000E-03 0.  1.
         11    1    4    4    0    0 -0.16006329252E-01  0.30960028489E-01 -0.30470959336E-01  0.46297585509E-01  0.51100000000E-03 0. -1.
</event>
<event>
 8    1  0.1132255E+005  0.1043930E+01  0.7957747E-01            NaN
         13   -1    0    0    0    0  0.00000000000E+00  0.00000000000E+00  0.74505805969E-08  0.10566000000E+00  0.10566000000E+00 0.  1.
     999900   -1    0    0    0    0 -0.00000000000E+00 -0.00000000000E+00 -0.74505805969E-08  0.93827000000E+00  0.93827000000E+00 0.  1.
     999902    2    1    2    0    0  0.17832602059E-01 -0.80207561553E-02 -0.12640295507E-01  0.10206467164E+01  0.10203811094E+01 0.  0.
     999903    2    3    3    0    0 -0.62863042393E-01 -0.38639899456E-01  0.10379448833E+00  0.12879113511E+00  0.19210849701E-01 0.  0.
         14    1    1    2    0    0 -0.17832602059E-01  0.80207561553E-02  0.12640295507E-01  0.23283283617E-01  0.00000000000E+00 0.  1.
     999901    1    3    3    0    0  0.80695644452E-01  0.30619143300E-01 -0.11643478383E+00  0.89185558128E+00  0.88000000000E+00 0.  1.
        -11    1    4    4    0    0 -0.35800024707E-01 -0.21575205833E-01  0.74410393784E-01  0.85348105426E-01  0.51100000000E-03 0.  1.
         11    1    4    4    0    0 -0.27063017686E-01 -0.17064693623E-01  0.29384094541E-01  0.43443029679E-01  0.51100000000E-03 0. -1.
</event>
<event>
 8    1  0.1132255E+005  0.1043930E+01  0.7957747E-01            NaN
         13   -1    0    0    0    0  0.00000000000E+00  0.00000000000E+00  0.74505805969E-08  0.10566000000E+00  0.10566000000E+00 0. -1.
     999900   -1    0    0    0    0 -0.00000000000E+00 -0.00000000000E+00 -0.74505805969E-08  0.93827000000E+00  0.93827000000E+00 0. -1.
     999902    2    1    2    0    0  0.88918211336E-02  0.13814302982E-02  0.21992831306E-01  0.10201674778E+01  0.10198906928E+01 0.  0.
     999903    2    3    3    0    0  0.61056719324E-01  0.46119614902E-01 -0.10194583719E+00  0.12882945251E+00  0.18685081215E-01 0.  0.
         14    1    1    2    0    0 -0.88918211336E-02 -0.13814302982E-02 -0.21992831306E-01  0.23762522206E-01  0.00000000000E+00 0.  1.
     999901    1    3    3    0    0 -0.52164898190E-01 -0.44738184603E-01  0.12393866850E+00  0.89133802528E+00  0.88000000000E+00 0.  1.
        -11    1    4    4    0    0  0.28572791681E-01  0.19144248190E-01 -0.31199087739E-01  0.46438678490E-01  0.51100000000E-03 0. -1.
         11    1    4    4    0    0  0.32483927643E-01  0.26975366712E-01 -0.70746749455E-01  0.82390774021E-01  0.51100000000E-03 0.  1.
</event>
<event>
 8    1  0.1132255E+005  0.1043930E+01  0.7957747E-01            NaN
         13   -1    0    0    0    0  0.00000000000E+00  0.00000000000E+00  0.74505805969E-08  0.10566000000E+00  0.10566000000E+00 0. -1.
     999900   -1    0    0    0    0 -0.00000000000E+00 -0.00000000000E+00 -0.74505805969E-08  0.93827000000E+00  0.93827000000E+00 0. -1.
     999902    2    1    2    0    0  0.44202065577E-02 -0.17453729863E-01  0.15310429590E-01  0.10202956994E+01  0.10200219282E+01 0.  0.
     999903    2    3    3    0    0  0.11258602907E+00 -0.63262351289E-01 -0.18267372397E-01  0.13185563738E+00  0.19351309597E-01 0.  0.
         14    1    1    2    0    0 -0.44202065577E-02  0.17453729863E-01 -0.15310429590E-01  0.23634300633E-01  0.00000000000E+00 0. -1.
     999901    1    3    3    0    0 -0.10816582251E+00  0.45808621426E-01  0.33577801987E-01  0.88844006199E+00  0.88000000000E+00 0. -1.
        -11    1    4    4    0    0  0.83145670274E-01 -0.53952022284E-01 -0.19199391219E-01  0.10095989767E+00  0.51100000000E-03 0.  1.
         11    1    4    4    0    0  0.29440358793E-01 -0.93103290051E-02  0.93201882178E-03  0.30895739709E-01  0.51100000000E-03 0. -1.
</event>
<event>
 8    1  0.1132255E+005  0.1043930E+01  0.7957747E-01            NaN
         13   -1    0    0    0    0  0.00000000000E+00  0.00000000000E+00  0.74505805969E-08  0.10566000000E+00  0.10566000000E+00 0.  1.
     999900   -1    0    0    0    0 -0.00000000000E+00 -0.00000000000E+00 -0.74505805969E-08  0.93827000000E+00  0.93827000000E+00 0.  1.
     999902    2    1    2    0    0 -0.13004751637E-01 -0.14436226415E-02  0.20120603465E-01  0.10199290355E+01  0.10196466011E+01 0.  0.
     999903    2    3    3    0    0  0.65293003663E-01  0.51805249898E-01  0.99447100130E-01  0.13130162543E+00  0.20085588676E-01 0.  0.
         14    1    1    2    0    0  0.13004751637E-01  0.14436226415E-02 -0.20120603465E-01  0.24000964466E-01  0.00000000000E+00 0. -1.
     999901    1    3    3    0    0 -0.78297755301E-01 -0.53248872539E-01 -0.79326496665E-01  0.88862741010E+00  0.88000000000E+00 0. -1.
        -11    1    4    4    0    0  0.32637265386E-01  0.13369991335E-01  0.39411581351E-01  0.52891224469E-01  0.51100000000E-03 0. -1.
         11    1    4    4    0    0  0.32655738277E-01  0.38435258563E-01  0.60035518779E-01  0.78410400963E-01  0.51100000000E-03 0.  1.
</event>
<event>
 8    1  0.1132255E+005  0.1043930E+01  0.7957747E-01            NaN
         13   -1    0    0    0    0  0.00000000000E+00  0.00000000000E+00  0.74505805969E-08  0.10566000000E+00  0.10566000000E+00 0. -1.
     999900   -1    0    0    0    0 -0.00000000000E+00 -0.00000000000E+00 -0.74505805969E-08  0.93827000000E+00  0.93827000000E+00 0.  1.
     999902    2    1    2    0    0 -0.12762810221E-01 -0.92673970457E-02 -0.16517485324E-01  0.10210914078E+01  0.10208359622E+01 0.  0.
     999903    2    3    3    0    0  0.94568079737E-01 -0.40729515802E-01 -0.79572412762E-01  0.13177385554E+00  0.20750059508E-01 0.  0.
         14    1    1    2    0    0  0.12762810221E-01  0.92673970457E-02  0.16517485324E-01  0.22838592211E-01  0.00000000000E+00 0. -1.
     999901    1    3    3    0    0 -0.10733088996E+00  0.31462118757E-01  0.63054927438E-01  0.88931755224E+00  0.88000000000E+00 0. -1.
        -11    1    4    4    0    0  0.27090084271E-01 -0.71780424751E-02 -0.11767448309E-01  0.30399521711E-01  0.51100000000E-03 0.  1.
         11    1    4    4    0    0  0.67477995466E-01 -0.33551473327E-01 -0.67804964454E-01  0.10137433383E+00  0.51100000000E-03 0. -1.
</event>
<event>
 8    1  0.1132255E+005  0.1043930E+01  0.7957747E-01            NaN
         13   -1    0    0    0    0  0.00000000000E+00  0.00000000000E+00  0.74505805969E-08  0.10566000000E+00  0.10566000000E+00 0. -1.
     999900   -1    0    0    0    0 -0.00000000000E+00 -0.00000000000E+00 -0.74505805969E-08  0.93827000000E+00  0.93827000000E+00 0. -1.
     999902    2    1    2    0    0  0.99344193134E-02  0.10027647002E-01  0.20628445670E-01  0.10189344171E+01  0.10186277864E+01 0.  0.
     999903    2    3    3    0    0  0.98778625541E-01 -0.66790820606E-01  0.49788489801E-01  0.13065254853E+00  0.19312279478E-01 0.  0.
         14    1    1    2    0    0 -0.99344193134E-02 -0.10027647002E-01 -0.20628445670E-01  0.24995582854E-01  0.00000000000E+00 0.  1.
     999901    1    3    3    0    0 -0.88844206227E-01  0.76818467607E-01 -0.29160044132E-01  0.88828186862E+00  0.88000000000E+00 0.  1.
        -11    1    4    4    0    0  0.17813264178E-01 -0.15285203304E-01  0.17930275823E-01  0.29541593267E-01  0.51100000000E-03 0. -1.
         11    1    4    4    0    0  0.80965361363E-01 -0.51505617302E-01  0.31858213979E-01  0.10111095526E+00  0.51100000000E-03 0.  1.
</event>
<event>
 8    1  0.1132255E+005  0.1043930E+01  0.7957747E-01            NaN
         13   -1    0    0    0    0  0.00000000000E+00  0.00000000000E+00  0.74505805969E-08  0.10566000000E+00  0.10566000000E+00 0. -1.
     999900   -1    0    0    0    0 -0.00000000000E+00 -0.00000000000E+00 -0.74505805969E-08  0.93827000000E+00  0.93827000000E+00 0. -1.
     999902    2    1    2    0    0 -0.21974960913E-01  0.32730817858E-02 -0.80639672615E-02  0.10202944433E+01  0.10200206427E+01 0.  0.
     999903    2    3    3    0    0  0.10511488482E+00  0.10930359653E-02 -0.73899234025E-01  0.12872792094E+00  0.77101946720E-02 0.  0.
         14    1    1    2    0    0  0.21974960913E-01 -0.32730817858E-02  0.80639672615E-02  0.23635556678E-01  0.00000000000E+00 0. -1.
     999901    1    3    3    0    0 -0.12708984573E+00  0.21800458205E-02  0.65835266764E-01  0.89156652238E+00  0.88000000000E+00 0.  1.
        -11    1    4    4    0    0  0.23457076328E-01  0.27222529085E-02 -0.14195801760E-01  0.27557703086E-01  0.51100000000E-03 0.  1.
         11    1    4    4    0    0  0.81657808488E-01 -0.16292169432E-02 -0.59703432266E-01  0.10117021785E+00  0.51100000000E-03 0. -1.
</event>
<event>
 8    1  0.1132255E+005  0.1043930E+01  0.7957747E-01            NaN
         13   -1    0    0    0    0  0.00000000000E+00  0.00000000000E+00  0.74505805969E-08  0.10566000000E+00  0.10566000000E+00 0. -1.
     999900   -1    0    0    0    0 -0.00000000000E+00 -0.00000000000E+00 -0.74505805969E-08  0.93827000000E+00  0.93827000000E+00 0. -1.
     999902    2    1    2    0    0 -0.10711816572E-02 -0.17259958785E-02  0.24513683642E-01  0.10193322932E+01  0.10190354640E+01 0.  0.
     999903    2    3    3    0    0  0.49061463606E-01 -0.10196693181E+00 -0.57692212151E-01  0.12842301803E+00  0.18968337381E-01 0.  0.
         14    1    1    2    0    0  0.10711816572E-02  0.17259958785E-02 -0.24513683642E-01  0.24597706755E-01  0.00000000000E+00 0.  1.
     999901    1    3    3    0    0 -0.50132645263E-01  0.10024093593E+00  0.82205895793E-01  0.89090927521E+00  0.88000000000E+00 0. -1.
        -11    1    4    4    0    0  0.39178780257E-01 -0.84960370043E-01 -0.39265295405E-01  0.10146558946E+00  0.51100000000E-03 0. -1.
         11    1    4    4    0    0  0.98826833495E-02 -0.17006561769E-01 -0.18426916747E-01  0.26957428571E-01  0.51100000000E-03 0.  1.
</event>
<event>
 8    1  0.1132255E+005  0.1043930E+01  0.7957747E-01            NaN
         13   -1    0    0    0    0  0.00000000000E+00  0.00000000000E+00  0.74505805969E-08  0.10566000000E+00  0.10566000000E+00 0.  1.
     999900   -1    0    0    0    0 -0.00000000000E+00 -0.00000000000E+00 -0.74505805969E-08  0.93827000000E+00  0.93827000000E+00 0. -1.
     999902    2    1    2    0    0  0.22674143689E-01  0.91679093619E-03 -0.56059787169E-02  0.10205551354E+01  0.10202874105E+01 0.  0.
     999903    2    3    3    0    0 -0.60511844575E-01  0.89331268545E-01  0.68192357664E-01  0.12916115800E+00  0.19764822752E-01 0.  0.
         14    1    1    2    0    0 -0.22674143689E-01 -0.91679093619E-03  0.56059787169E-02  0.23374864599E-01  0.00000000000E+00 0.  1.
     999901    1    3    3    0    0  0.83185988264E-01 -0.88414477609E-01 -0.73798336381E-01  0.89139397740E+00  0.88000000000E+00 0.  1.
        -11    1    4    4    0    0 -0.22225071531E-01  0.32170588944E-01  0.13838443419E-01  0.41480889996E-01  0.51100000000E-03 0. -1.
         11    1    4    4    0    0 -0.38286773044E-01  0.57160679601E-01  0.54353914245E-01  0.87680268005E-01  0.51100000000E-03 0.  1.
</event>
<event>
 8    1  0.1132255E+005  0.1043930E+01  0.7957747E-01            NaN
         13   -1    0    0    0    0  0.00000000000E+00  0.00000000000E+00  0.74505805969E-08  0.10566000000E+00  0.10566000000E+00 0. -1.
     999900   -1    0    0    0    0 -0.00000000000E+00 -0.00000000000E+00 -0.74505805969E-08  0.93827000000E+00  0.93827000000E+00 0. -1.
     999902    2    1    2    0    0 -0.12735153859E-01 -0.20546464253E-02  0.20620076919E-01  0.10196073092E+01  0.10193171595E+01 0.  0.
     999903    2    3    3    0    0 -0.10517204467E+00 -0.74174762340E-01  0.20427668189E-01  0.13183147774E+00  0.19979853535E-01 0.  0.
         14    1    1    2    0    0  0.12735153859E-01  0.20546464253E-02 -0.20620076919E-01  0.24322690803E-01  0.00000000000E+00 0.  1.
     999901    1    3    3    0    0  0.92436890809E-01  0.72120115914E-01  0.19240873005E-03  0.88777583146E+00  0.88000000000E+00 0.  1.
        -11    1    4    4    0    0 -0.72208419979E-01 -0.43459685815E-01  0.20648884328E-01  0.86772332872E-01  0.51100000000E-03 0.  1.
         11    1    4    4    0    0 -0.32963624689E-01 -0.30715076524E-01 -0.22121613927E-03  0.45059144867E-01  0.51100000000E-03 0. -1.
</event>
<event>
 8    1  0.1132255E+005  0.1043930E+01  0.7957747E-01            NaN
         13   -1    0    0    0    0  0.00000000000E+00  0.00000000000E+00  0.74505805969E-08  0.10566000000E+00  0.10566000000E+00 0.  1.
     999900   -1    0    0    0    0 -0.00000000000E+00 -0.00000000000E+00 -0.74505805969E-08  0.93827000000E+00  0.93827000000E+00 0. -1.
     999902    2    1    2    0    0  0.62966162673E-02 -0.20134348124E-01 -0.12396219130E-01  0.10194615387E+01  0.10191678582E+01 0.  0.
     999903    2    3    3    0    0  0.15673030771E-01 -0.68508305641E-01 -0.11073786079E+00  0.13261373020E+00  0.19608564227E-01 0.  0.
         14    1    1    2    0    0 -0.62966162673E-02  0.20134348124E-01  0.12396219130E-01  0.24468461323E-01  0.00000000000E+00 0.  1.
     999901    1    3    3    0    0 -0.93764145034E-02  0.48373957516E-01  0.98341641656E-01  0.88684780848E+00  0.88000000000E+00 0.  1.
        -11    1    4    4    0    0  0.92172877983E-02 -0.12586201924E-01 -0.15601480881E-01  0.22068941975E-01  0.51100000000E-03 0. -1.
         11    1    4    4    0    0  0.64557429723E-02 -0.55922103716E-01 -0.95136379905E-01  0.11054478823E+00  0.51100000000E-03 0.  1.
</event>
<event>
 8    1  0.1132255E+005  0.1043930E+01  0.7957747E-01            NaN
         13   -1    0    0    0    0  0.00000000000E+00  0.00000000000E+00  0.74505805969E-08  0.10566000000E+00  0.10566000000E+00 0. -1.
     999900   -1    0    0    0    0 -0.00000000000E+00 -0.00000000000E+00 -0.74505805969E-08  0.93827000000E+00  0.93827000000E+00 0. -1.
     999902    2    1    2    0    0  0.22683303738E-01 -0.41162301460E-02  0.19148786291E-02  0.10207968554E+01  0.10205347018E+01 0.  0.
     999903    2    3    3    0    0 -0.66434070927E-01 -0.87242534719E-01 -0.65943598929E-01  0.12981051321E+00  0.21850982974E-01 0.  0.
         14    1    1    2    0    0 -0.22683303738E-01  0.41162301460E-02 -0.19148786291E-02  0.23133144604E-01  0.00000000000E+00 0.  1.
     999901    1    3    3    0    0  0.89117374665E-01  0.83126304573E-01  0.67858477558E-01  0.89098634218E+00  0.88000000000E+00 0.  1.
        -11    1    4    4    0    0 -0.29996934419E-01 -0.24943553865E-01 -0.16713577268E-01  0.42445279361E-01  0.51100000000E-03 0. -1.
         11    1    4    4    0    0 -0.36437136508E-01 -0.62298980854E-01 -0.49230021661E-01  0.87365233853E-01  0.51100000000E-03 0.  1.
</event>
<event>
 8    1  0.1132255E+005  0.1043930E+01  0.7957747E-01            NaN
         13   -1    0    0    0    0  0.00000000000E+00  0.00000000000E+00  0.74505805969E-08  0.10566000000E+00  0.10566000000E+00 0. -1.
     999900   -1    0    0    0    0 -0.00000000000E+00 -0.00000000000E+00 -0.74505805969E-08  0.93827000000E+00  0.93827000000E+00 0.  1.
     999902    2    1    2    0    0 -0.72877691923E-02  0.13499287188E-01 -0.17680522997E-01  0.10205218128E+01  0.10202533152E+01 0.  0.
     999903    2    3    3    0    0 -0.42138266994E-01 -0.95896580031E-01  0.72065854384E-01  0.12853726966E+00  0.18882656475E-01 0.  0.
         14    1    1    2    0    0  0.72877691923E-02 -0.13499287188E-01  0.17680522997E-01  0.23408187196E-01  0.00000000000E+00 0. -1.
     999901    1    3    3    0    0  0.34850497802E-01  0.10939586722E+00 -0.89746377380E-01  0.89198454315E+00  0.88000000000E+00 0.  1.
        -11    1    4    4    0    0 -0.32802701159E-01 -0.53537507539E-01  0.47056001214E-01  0.78465344504E-01  0.51100000000E-03 0. -1.
         11    1    4    4    0    0 -0.93355658347E-02 -0.42359072492E-01  0.25009853170E-01  0.50071925152E-01  0.51100000000E-03 0.  1.
</event>
<event>
 8    1  0.1132255E+005  0.1043930E+01  0.7957747E-01            NaN
         13   -1    0    0    0    0  0.00000000000E+00  0.00000000000E+00  0.74505805969E-08  0.10566000000E+00  0.10566000000E+00 0. -1.
     999900   -1    0    0    0    0 -0.00000000000E+00 -0.00000000000E+00 -0.74505805969E-08  0.93827000000E+00  0.93827000000E+00 0. -1.
     999902    2    1    2    0    0  0.13105791988E-01 -0.18718319239E-01  0.61725704814E-02  0.10202606552E+01  0.10199860620E+01 0.  0.
     999903    2    3    3    0    0  0.11553506881E-01 -0.11633034645E+00 -0.58877031941E-01  0.13247578920E+00  0.20422948113E-01 0.  0.
         14    1    1    2    0    0 -0.13105791988E-01  0.18718319239E-01 -0.61725704814E-02  0.23669344839E-01  0.00000000000E+00 0.  1.
     999901    1    3    3    0    0  0.15522851067E-02  0.97612027207E-01  0.65049602423E-01  0.88778486596E+00  0.88000000000E+00 0.  1.
        -11    1    4    4    0    0  0.39437795199E-02 -0.88179408011E-01 -0.52223094590E-01  0.10256058757E+00  0.51100000000E-03 0.  1.
         11    1    4    4    0    0  0.76097273616E-02 -0.28150938436E-01 -0.66539373514E-02  0.29915201631E-01  0.51100000000E-03 0. -1.
</event>
<event>
 8    1  0.1132255E+005  0.1043930E+01  0.7957747E-01            NaN
         13   -1    0    0    0    0  0.00000000000E+00  0.00000000000E+00  0.74505805969E-08  0.10566000000E+00  0.10566000000E+00 0.  1.
     999900   -1    0    0    0    0 -0.00000000000E+00 -0.00000000000E+00 -0.74505805969E-08  0.93827000000E+00  0.93827000000E+00 0.  1.
     999902    2    1    2    0    0  0.81265091298E-02  0.17171880786E-01 -0.13621115075E-01  0.10205537639E+01  0.10202860072E+01 0.  0.
     999903    2    3    3    0    0  0.10318349119E+00 -0.37968830892E-01 -0.70227659382E-01  0.13191400063E+00  0.19517029686E-01 0.  0.
         14    1    1    2    0    0 -0.81265091298E-02 -0.17171880786E-01  0.13621115075E-01  0.23376236144E-01  0.00000000000E+00 0. -1.
     999901    1    3    3    0    0 -0.95056982058E-01  0.55140711678E-01  0.56606544307E-01  0.88863976322E+00  0.88000000000E+00 0.  1.
        -11    1    4    4    0    0  0.37340425393E-01 -0.23871780787E-01 -0.28614515507E-01  0.52756240438E-01  0.51100000000E-03 0. -1.
         11    1    4    4    0    0  0.65843065795E-01 -0.14097050105E-01 -0.41613143876E-01  0.79157760195E-01  0.51100000000E-03 0.  1.
</event>
<event>
 8    1  0.1132255E+005  0.1043930E+01  0.7957747E-01            NaN
         13   -1    0    0    0    0  0.00000000000E+00  0.00000000000E+00  0.74505805969E-08  0.10566000000E+00  0.10566000000E+00 0.  1.
     999900   -1    0    0    0    0 -0.00000000000E+00 -0.00000000000E+00 -0.74505805969E-08  0.93827000000E+00  0.93827000000E+00 0.  1.
     999902    2    1    2    0    0  0.78247550778E-02 -0.83403416165E-02 -0.20456900430E-01  0.10204934289E+01  0.10202242722E+01 0.  0.
     999903    2    3    3    0    0 -0.34285387533E-02 -0.60769838769E-01 -0.11725353272E+00  0.13356328687E+00  0.19647709325E-01 0.  0.
         14    1    1    2    0    0 -0.78247550778E-02  0.83403416165E-02  0.20456900430E-01  0.23436571112E-01  0.00000000000E+00 0.  1.
     999901    1    3    3    0    0  0.11253293831E-01  0.52429497153E-01  0.96796632293E-01  0.88693014202E+00  0.88000000000E+00 0. -1.
        -11    1    4    4    0    0  0.66429086488E-02 -0.21298468997E-01 -0.52690081347E-01  0.57221139540E-01  0.51100000000E-03 0.  1.
         11    1    4    4    0    0 -0.10071447402E-01 -0.39471369773E-01 -0.64563451376E-01  0.76342147331E-01  0.51100000000E-03 0. -1.
</event>
<event>
 8    1  0.1132255E+005  0.1043930E+01  0.7957747E-01            NaN
         13   -1    0    0    0    0  0.00000000000E+00  0.00000000000E+00  0.74505805969E-08  0.10566000000E+00  0.10566000000E+00 0. -1.
     999900   -1    0    0    0    0 -0.00000000000E+00 -0.00000000000E+00 -0.74505805969E-08  0.93827000000E+00  0.93827000000E+00 0.  1.
     999902    2    1    2    0    0  0.21150826192E-01 -0.17490434963E-02 -0.12494585927E-01  0.10193021442E+01  0.10190045780E+01 0.  0.
     999903    2    3    3    0    0  0.10984614268E+00 -0.24910181248E-01 -0.67635975008E-01  0.13282379129E+00  0.19515179361E-01 0.  0.
         14    1    1    2    0    0 -0.21150826192E-01  0.17490434963E-02  0.12494585927E-01  0.24627855759E-01  0.00000000000E+00 0.  1.
     999901    1    3    3    0    0 -0.88695316485E-01  0.23161137752E-01  0.55141389081E-01  0.88647835296E+00  0.88000000000E+00 0. -1.
        -11    1    4    4    0    0  0.76517548885E-01 -0.11820944888E-01 -0.54480504849E-01  0.94673420531E-01  0.51100000000E-03 0.  1.
         11    1    4    4    0    0  0.33328593793E-01 -0.13089236361E-01 -0.13155470159E-01  0.38150370756E-01  0.51100000000E-03 0. -1.
</event>
<event>
 8    1  0.1132255E+005  0.1043930E+01  0.7957747E-01            NaN
         13   -1    0    0    0    0  0.00000000000E+00  0.00000000000E+00  0.74505805969E-08  0.10566000000E+00  0.10566000000E+00 0.  1.
     999900   -1    0    0    0    0 -0.00000000000E+00 -0.00000000000E+00 -0.74505805969E-08  0.93827000000E+00  0.93827000000E+00 0.  1.
     999902    2    1    2    0    0 -0.52441687068E-02  0.14453016636E-01 -0.17360095449E-01  0.10207402628E+01  0.10204768103E+01 0.  0.
     999903    2    3    3    0    0  0.12837792805E+00 -0.60368213864E-02 -0.11989500212E-01  0.13040125915E+00  0.18531180453E-01 0.  0.
         14    1    1    2    0    0  0.52441687068E-02 -0.14453016636E-01  0.17360095449E-01  0.23189737155E-01  0.00000000000E+00 0.  1.
     999901    1    3    3    0    0 -0.13362209676E+00  0.20489838022E-01 -0.53705952370E-02  0.89033900369E+00  0.88000000000E+00 0. -1.
        -11    1    4    4    0    0  0.11838147686E+00 -0.27474736625E-02 -0.15201954052E-01  0.11938627728E+00  0.51100000000E-03 0. -1.
         11    1    4    4    0    0  0.99964511964E-02 -0.32893477239E-02  0.32124538402E-02  0.11014981872E-01  0.51100000000E-03 0.  1.
</event>
<event>
 8    1  0.1132255E+005  0.1043930E+01  0.7957747E-01            NaN
         13   -1    0    0    0    0  0.00000000000E+00  0.00000000000E+00  0.74505805969E-08  0.10566000000E+00  0.10566000000E+00 0.  1.
     999900   -1    0    0    0    0 -0.00000000000E+00 -0.00000000000E+00 -0.74505805969E-08  0.93827000000E+00  0.93827000000E+00 0. -1.
     999902    2    1    2    0    0 -0.20264384872E-01  0.90848343063E-02  0.68824434640E-02  0.10206803218E+01  0.10204154898E+01 0.  0.
     999903    2    3    3    0    0  0.82079038987E-01 -0.25449552588E-01  0.95069183190E-01  0.12970125282E+00  0.19990423286E-01 0.  0.
         14    1    1    2    0    0  0.20264384872E-01 -0.90848343063E-02 -0.68824434640E-02  0.23249678205E-01  0.00000000000E+00 0.  1.
     999901    1    3    3    0    0 -0.10234342386E+00  0.34534386894E-01 -0.88186739726E-01  0.89097906897E+00  0.88000000000E+00 0. -1.
        -11    1    4    4    0    0  0.24691682229E-01 -0.17219417799E-02  0.17412243969E-01  0.30267005400E-01  0.51100000000E-03 0.  1.
         11    1    4    4    0    0  0.57387356757E-01 -0.23727610808E-01  0.77656939220E-01  0.99434247422E-01  0.51100000000E-03 0. -1.
</event>
<event>
 8    1  0.1132255E+005  0.1043930E+01  0.7957747E-01            NaN
         13   -1    0    0    0    0  0.00000000000E+00  0.00000000000E+00  0.74505805969E-08  0.10566000000E+00  0.10566000000E+00 0.  1.
     999900   -1    0    0    0    0 -0.00000000000E+00 -0.00000000000E+00 -0.74505805969E-08  0.93827000000E+00  0.93827000000E+00 0.  1.
     999902    2    1    2    0    0  0.95715270477E-02 -0.11365740248E-01 -0.18897494858E-01  0.10198902518E+01  0.10196068930E+01 0.  0.
     999903    2    3    3    0    0 -0.20833805689E-01 -0.64560671103E-01 -0.11250178550E+00  0.13280742131E+00  0.19468736527E-01 0.  0.
         14    1    1    2    0    0 -0.95715270477E-02  0.11365740248E-01  0.18897494858E-01  0.24039748196E-01  0.00000000000E+00 0.  1.
     999901    1    3    3    0    0  0.30405332737E-01  0.53194930855E-01  0.93604290642E-01  0.88708283049E+00  0.88000000000E+00 0. -1.
        -11    1    4    4    0    0 -0.57135673713E-02 -0.10136794048E-01 -0.83759489963E-02  0.14346326647E-01  0.51100000000E-03 0.  1.
         11    1    4    4    0    0 -0.15120238318E-01 -0.54423877055E-01 -0.10412583650E+00  0.11846109466E+00  0.51100000000E-03 0. -1.
</event>
<event>
 8    1  0.1132255E+005  0.1043930E+01  0.7957747E-01            NaN
         13   -1    0    0    0    0  0.00000000000E+00  0.00000000000E+00  0.74505805969E-08  0.10566000000E+00  0.10566000000E+00 0.  1.
     999900   -1    0    0    0    0 -0.00000000000E+00 -0.00000000000E+00 -0.74505805969E-08  0.93827000000E+00  0.93827000000E+00 0.  1.
     999902    2    1    2    0    0 -0.65736682536E-02  0.54956588428E-02  0.22324421568E-01  0.10200177609E+01  0.10197374355E+01 0.  0.
     999903    2    3    3    0    0  0.44359629034E-01 -0.10927790588E+00 -0.46654077817E-01  0.12843197966E+00  0.20217146720E-01 0.  0.
         14    1    1    2    0    0  0.65736682536E-02 -0.54956588428E-02 -0.22324421568E-01  0.23912239100E-01  0.00000000000E+00 0. -1.
     999901    1    3    3    0    0 -0.50933297288E-01  0.11477356472E+00  0.68978499385E-01  0.89158578124E+00  0.88000000000E+00 0. -1.
        -11    1    4    4    0    0  0.14171221733E-01 -0.29193514066E-01 -0.36836338074E-02  0.32663665868E-01  0.51100000000E-03 0.  1.
         11    1    4    4    0    0  0.30188407301E-01 -0.80084391812E-01 -0.42970444010E-01  0.95768313792E-01  0.51100000000E-03 0. -1.
</event>
<event>
 8    1  0.1132255E+005  0.1043930E+01  0.7957747E-01            NaN
         13   -1    0    0    0    0  0.00000000000E+00  0.00000000000E+00  0.74505805969E-08  0.10566000000E+00  0.10566000000E+00 0.  1.
     999900   -1    0    0    0    0 -0.00000000000E+00 -0.00000000000E+00 -0.74505805969E-08  0.93827000000E+00  0.93827000000E+00 0.  1.
     999902    2    1    2    0    0  0.66774001773E-02 -0.22725322625E-01 -0.47243330553E-02  0.10197774166E+01  0.10194913595E+01 0.  0.
     999903    2    3    3    0    0  0.58987841237E-01 -0.10778619532E+00  0.48104372485E-01  0.13255556925E+00  0.12630082020E-01 0.  0.
         14    1    1    2    0    0 -0.66774001773E-02  0.22725322625E-01  0.47243330553E-02  0.24152583389E-01  0.00000000000E+00 0. -1.
     999901    1    3    3    0    0 -0.52310441060E-01  0.85060872693E-01 -0.52828705540E-01  0.88722184736E+00  0.88000000000E+00 0.  1.
        -11    1    4    4    0    0  0.17705488827E-01 -0.35343599966E-01  0.94352070205E-02  0.40644048097E-01  0.51100000000E-03 0.  1.
         11    1    4    4    0    0  0.41282352410E-01 -0.72442595351E-01  0.38669165464E-01  0.91911521152E-01  0.51100000000E-03 0. -1.
</event>
<event>
 8    1  0.1132255E+005  0.1043930E+01  0.7957747E-01            NaN
         13   -1    0    0    0    0  0.00000000000E+00  0.00000000000E+00  0.74505805969E-08  0.10566000000E+00  0.10566000000E+00 0. -1.
     999900   -1    0    0    0    0 -0.00000000000E+00 -0.00000000000E+00 -0.74505805969E-08  0.93827000000E+00  0.93827000000E+00 0.  1.
     999902    2    1    2    0    0  0.19409773065E-01  0.14499734512E-01  0.23701339897E-02  0.10195866410E+01  0.10192959921E+01 0.  0.
     999903    2    3    3    0    0  0.26317711796E-01  0.10968314112E-01  0.12615545235E+00  0.13088928219E+00  0.20096770059E-01 0.  0.
         14    1    1    2    0    0 -0.19409773065E-01 -0.14499734512E-01 -0.23701339897E-02  0.24343358981E-01  0.00000000000E+00 0.  1.
     999901    1    3    3    0    0 -0.69079387313E-02  0.35314204001E-02 -0.12378531836E+00  0.88869735883E+00  0.88000000000E+00 0.  1.
        -11    1    4    4    0    0 -0.33816942958E-03  0.69723987414E-02  0.15665083365E-01  0.17157641464E-01  0.51100000000E-03 0. -1.
         11    1    4    4    0    0  0.26655881226E-01  0.39959153706E-02  0.11049036898E+00  0.11373164073E+00  0.51100000000E-03 0.  1.
</event>
<event>
 8    1  0.1132255E+005  0.1043930E+01  0.7957747E-01            NaN
         13   -1    0    0    0    0  0.00000000000E+00  0.00000000000E+00  0.74505805969E-08  0.10566000000E+00  0.10566000000E+00 0.  1.
     999900   -1    0    0    0    0 -0.00000000000E+00 -0.00000000000E+00 -0.74505805969E-08  0.93827000000E+00  0.93827000000E+00 0.  1.
     999902    2    1    2    0    0 -0.12347702867E-01  0.96009245759E-02 -0.13487625924E-01  0.10232766813E+01  0.10230682318E+01 0.  0.
     999903    2    3    3    0    0 -0.12885106962E+00  0.86779583859E-03  0.32422702274E-01  0.13436889071E+00  0.20010396207E-01 0.  0.
         14    1    1    2    0    0  0.12347702867E-01 -0.96009245759E-02  0.13487625924E-01  0.20653318665E-01  0.00000000000E+00 0.  1.
     999901    1    3    3    0    0  0.11650336675E+00  0.87331287373E-02 -0.45910328198E-01  0.88890779063E+00  0.88000000000E+00 0.  1.
        -11    1    4    4    0    0 -0.11444514257E+00 -0.16440793716E-02  0.34604834413E-01  0.11957486919E+00  0.51100000000E-03 0. -1.
         11    1    4    4    0    0 -0.14405927044E-01  0.25118752102E-02 -0.21821321396E-02  0.14794021520E-01  0.51100000000E-03 0.  1.
</event>
<event>
 8    1  0.1132255E+005  0.1043930E+01  0.7957747E-01            NaN
         13   -1    0    0    0    0  0.00000000000E+00  0.00000000000E+00  0.74505805969E-08  0.10566000000E+00  0.10566000000E+00 0. -1.
     999900   -1    0    0    0    0 -0.00000000000E+00 -0.00000000000E+00 -0.74505805969E-08  0.93827000000E+00  0.93827000000E+00 0. -1.
     999902    2    1    2    0    0 -0.56557411089E-02 -0.41323518100E-02  0.22680766270E-01  0.10201922474E+01  0.10199160460E+01 0.  0.
     999903    2    3    3    0    0 -0.85865495714E-01 -0.78692971509E-01 -0.54434699136E-01  0.13005760269E+00  0.19656460212E-01 0.  0.
         14    1    1    2    0    0  0.56557411089E-02  0.41323518100E-02 -0.22680766270E-01  0.23737752581E-01  0.00000000000E+00 0.  1.
     999901    1    3    3    0    0  0.80209754605E-01  0.74560619699E-01  0.77115465407E-01  0.89013464473E+00  0.88000000000E+00 0.  1.
        -11    1    4    4    0    0 -0.17445053067E-01 -0.26850890625E-01 -0.18601611014E-01  0.37034865427E-01  0.51100000000E-03 0. -1.
         11    1    4    4    0    0 -0.68420442647E-01 -0.51842080884E-01 -0.35833088122E-01  0.93022737262E-01  0.51100000000E-03 0.  1.
</event>
<event>
 8    1  0.1132255E+005  0.1043930E+01  0.7957747E-01            NaN
         13   -1    0    0    0    0  0.00000000000E+00  0.00000000000E+00  0.74505805969E-08  0.10566000000E+00  0.10566000000E+00 0.  1.
     999900   -1    0    0    0    0 -0.00000000000E+00 -0.00000000000E+00 -0.74505805969E-08  0.93827000000E+00  0.93827000000E+00 0.  1.
     999902    2    1    2    0    0 -0.18475929851E-01  0.91616399349E-02  0.11096403194E-01  0.10205115074E+01  0.10202427706E+01 0.  0.
     999903    2    3    3    0    0 -0.92123254300E-01  0.57582025138E-02 -0.91347802829E-01  0.13150626159E+00  0.20727394383E-01 0.  0.
         14    1    1    2    0    0  0.18475929851E-01 -0.91616399349E-02 -0.11096403194E-01  0.23418492565E-01  0.00000000000E+00 0. -1.
     999901    1    3    3    0    0  0.73647324449E-01  0.34034374212E-02  0.10244420602E+00  0.88900524584E+00  0.88000000000E+00 0.  1.
        -11    1    4    4    0    0 -0.25400576155E-01 -0.49222948978E-02 -0.34960504611E-01  0.43496163735E-01  0.51100000000E-03 0. -1.
         11    1    4    4    0    0 -0.66722678145E-01  0.10680497412E-01 -0.56387298218E-01  0.88010097859E-01  0.51100000000E-03 0.  1.
</event>
<event>
 8    1  0.1132255E+005  0.1043930E+01  0.7957747E-01            NaN
         13   -1    0    0    0    0  0.00000000000E+00  0.00000000000E+00  0.74505805969E-08  0.10566000000E+00  0.10566000000E+00 0. -1.
     999900   -1    0    0    0    0 -0.00000000000E+00 -0.00000000000E+00 -0.74505805969E-08  0.93827000000E+00  0.93827000000E+00 0. -1.
     999902    2    1    2    0    0  0.12109248664E-01  0.15006243154E-01 -0.71031774228E-02  0.10233806359E+01  0.10231743006E+01 0.  0.
     999903    2    3    3    0    0  0.20777496371E-01  0.94551686429E-01  0.90945990602E-01  0.13432706301E+00  0.20021510614E-01 0.  0.
         14    1    1    2    0    0 -0.12109248664E-01 -0.15006243154E-01  0.71031774228E-02  0.20549364134E-01  0.00000000000E+00 0. -1.
     999901    1    3    3    0    0 -0.86682477071E-02 -0.79545443276E-01 -0.98049168025E-01  0.88905357286E+00  0.88000000000E+00 0. -1.
        -11    1    4    4    0    0  0.14398763104E-01  0.85856775780E-01  0.86269597948E-01  0.12256188224E+00  0.51100000000E-03 0.  1.
         11    1    4    4    0    0  0.63787332669E-02  0.86949106492E-02  0.46763926538E-02  0.11765180770E-01  0.51100000000E-03 0. -1.
</event>
<event>
 8    1  0.1132255E+005  0.1043930E+01  0.7957747E-01            NaN
         13   -1    0    0    0    0  0.00000000000E+00  0.00000000000E+00  0.74505805969E-08  0.10566000000E+00  0.10566000000E+00 0.  1.
     999900   -1    0    0    0    0 -0.00000000000E+00 -0.00000000000E+00 -0.74505805969E-08  0.93827000000E+00  0.93827000000E+00 0.  1.
     999902    2    1    2    0    0 -0.34168003085E-01  0.11541551976E-01 -0.64282906318E-02  0.10072969169E+01  0.10066305658E+01 0.  0.
     999903    2    3    3    0    0 -0.92633740918E-01  0.44947292382E-01  0.58054720492E-01  0.12237192307E+00  0.31674405038E-01 0.  0.
         14    1    1    2    0    0  0.34168003085E-01 -0.11541551976E-01  0.64282906318E-02  0.36633083098E-01  0.00000000000E+00 0.  1.
     999901    1    3    3    0    0  0.58465737833E-01 -0.33405740406E-01 -0.64483011124E-01  0.88492499384E+00  0.88000000000E+00 0.  1.
        -11    1    4    4    0    0 -0.34595357004E-01  0.80636692296E-02  0.34923292629E-01  0.49817255813E-01  0.51100000000E-03 0.  1.
         11    1    4    4    0    0 -0.58038383914E-01  0.36883623153E-01  0.23131427863E-01  0.72554667253E-01  0.51100000000E-03 0. -1.
</event>
<event>
 8    1  0.1132255E+005  0.1043930E+01  0.7957747E-01            NaN
         13   -1    0    0    0    0  0.00000000000E+00  0.00000000000E+00  0.74505805969E-08  0.10566000000E+00  0.10566000000E+00 0. -1.
     999900   -1    0    0    0    0 -0.00000000000E+00 -0.00000000000E+00 -0.74505805969E-08  0.93827000000E+00  0.93827000000E+00 0. -1.
     999902    2    1    2    0    0 -0.65060144120E-02  0.57603343588E-02 -0.24165882821E-01  0.10182492763E+01  0.10179253849E+01 0.  0.
     999903    2    3    3    0    0 -0.14269956997E-01 -0.12243093351E+00 -0.31651348930E-01  0.12889596512E+00  0.20479179242E-01 0.  0.
         14    1    1    2    0    0  0.65060144120E-02 -0.57603343588E-02  0.24165882821E-01  0.25680723665E-01  0.00000000000E+00 0. -1.
     999901    1    3    3    0    0  0.77639425848E-02  0.12819126787E+00  0.74854661094E-02  0.88935331121E+00  0.88000000000E+00 0. -1.
        -11    1    4    4    0    0  0.14366203277E-03 -0.43786273718E-01 -0.19831318205E-01  0.48070788506E-01  0.51100000000E-03 0. -1.
         11    1    4    4    0    0 -0.14413619030E-01 -0.78644659794E-01 -0.11820030725E-01  0.80825176616E-01  0.51100000000E-03 0.  1.
</event>
<event>
 8    1  0.1132255E+005  0.1043930E+01  0.7957747E-01            NaN
         13   -1    0    0    0    0  0.00000000000E+00  0.00000000000E+00  0.74505805969E-08  0.10566000000E+00  0.10566000000E+00 0. -1.
     999900   -1    0    0    0    0 -0.00000000000E+00 -0.00000000000E+00 -0.74505805969E-08  0.93827000000E+00  0.93827000000E+00 0.  1.
     999902    2    1    2    0    0  0.24068258386E-02 -0.58964302259E-02  0.17855822967E-01  0.10249723864E+01  0.10247970539E+01 0.  0.
     999903    2    3    3    0    0  0.10659943768E+00  0.15909414004E-01  0.80817956928E-01  0.13632407265E+00  0.20884469209E-01 0.  0.
         14    1    1    2    0    0 -0.24068258386E-02  0.58964302259E-02 -0.17855822967E-01  0.18957613612E-01  0.00000000000E+00 0.  1.
     999901    1    3    3    0    0 -0.10419261184E+00 -0.21805844230E-01 -0.62962133961E-01  0.88864831374E+00  0.88000000000E+00 0.  1.
        -11    1    4    4    0    0  0.22616254113E-01  0.72628825205E-02  0.87490262776E-02  0.25318984861E-01  0.51100000000E-03 0.  1.
         11    1    4    4    0    0  0.83983183562E-01  0.86465314836E-02  0.72068930650E-01  0.11100508778E+00  0.51100000000E-03 0. -1.
</event>
<event>
 8    1  0.1132255E+005  0.1043930E+01  0.7957747E-01            NaN
         13   -1    0    0    0    0  0.00000000000E+00  0.00000000000E+00  0.74505805969E-08  0.10566000000E+00  0.10566000000E+00 0.  1.
     999900   -1    0    0    0    0 -0.00000000000E+00 -0.00000000000E+00 -0.74505805969E-08  0.93827000000E+00  0.93827000000E+00 0. -1.
     999902    2    1    2    0    0  0.10386542410E-01 -0.35556704993E-02  0.20823280198E-01  0.10203899904E+01  0.10201184247E+01 0.  0.
     999903    2    3    3    0    0  0.10709928924E+00  0.51203801835E-01 -0.51703464335E-01  0.13043938280E+00  0.15782816115E-01 0.  0.
         14    1    1    2    0    0 -0.10386542410E-01  0.35556704993E-02 -0.20823280198E-01  0.23540009646E-01  0.00000000000E+00 0. -1.
     999901    1    3    3    0    0 -0.96712746826E-01 -0.54759472334E-01  0.72526744533E-01  0.88995060755E+00  0.88000000000E+00 0. -1.
        -11    1    4    4    0    0  0.88674059794E-01  0.38759954071E-01 -0.47503748020E-01  0.10780672575E+00  0.51100000000E-03 0.  1.
         11    1    4    4    0    0  0.18425229441E-01  0.12443847763E-01 -0.41997163155E-02  0.22632657052E-01  0.51100000000E-03 0. -1.
</event>
<event>
 8    1  0.1132255E+005  0.1043930E+01  0.7957747E-01            NaN
         13   -1    0    0    0    0  0.00000000000E+00  0.00000000000E+00  0.74505805969E-08  0.10566000000E+00  0.10566000000E+00 0.  1.
     999900   -1    0    0    0    0 -0.00000000000E+00 -0.00000000000E+00 -0.74505805969E-08  0.93827000000E+00  0.93827000000E+00 0.  1.
     999902    2    1    2    0    0  0.11124666623E-01 -0.23980765272E-01 -0.29449902444E-02  0.10173309722E+01  0.10169831851E+01 0.  0.
     999903    2    3    3    0    0  0.98090027484E-01  0.66699264225E-01 -0.42397390085E-01  0.12753193111E+00  0.19910033298E-01 0.  0.
         14    1    1    2    0    0 -0.11124666623E-01  0.23980765272E-01  0.29449902444E-02  0.26599027765E-01  0.00000000000E+00 0. -1.
     999901    1    3    3    0    0 -0.86965360861E-01 -0.90680029497E-01  0.39452399841E-01  0.88979904113E+00  0.88000000000E+00 0. -1.
        -11    1    4    4    0    0  0.29704084423E-01  0.31702161188E-01 -0.16065643410E-01  0.46321978311E-01  0.51100000000E-03 0.  1.
         11    1    4    4    0    0  0.68385943060E-01  0.34997103037E-01 -0.26331746675E-01  0.81209952796E-01  0.51100000000E-03 0. -1.
</event>
<event>
 8    1  0.1132255E+005  0.1043930E+01  0.7957747E-01            NaN
         13   -1    0    0    0    0  0.00000000000E+00  0.00000000000E+00  0.74505805969E-08  0.10566000000E+00  0.10566000000E+00 0. -1.
     999900   -1    0    0    0    0 -0.00000000000E+00 -0.00000000000E+00 -0.74505805969E-08  0.93827000000E+00  0.93827000000E+00 0. -1.
     999902    2    1    2    0    0  0.34981899757E-02 -0.50177858887E-02 -0.22947133046E-01  0.10201816017E+01  0.10199051495E+01 0.  0.
     999903    2    3    3    0    0 -0.58859119175E-01 -0.10859141575E+00 -0.41512580173E-01  0.13172191961E+00  0.19258201095E-01 0.  0.
         14    1    1    2    0    0 -0.34981899757E-02  0.50177858887E-02  0.22947133046E-01  0.23748398332E-01  0.00000000000E+00 0. -1.
     999901    1    3    3    0    0  0.62357309151E-01  0.10357362986E+00  0.18565447128E-01  0.88845968205E+00  0.88000000000E+00 0.  1.
        -11    1    4    4    0    0 -0.53571642727E-01 -0.99754243248E-01 -0.43357046773E-01  0.12124736936E+00  0.51100000000E-03 0. -1.
         11    1    4    4    0    0 -0.52874764485E-02 -0.88371725029E-02  0.18444665991E-02  0.10474550256E-01  0.51100000000E-03 0.  1.
</event>
<event>
 8    1  0.1132255E+005  0.1043930E+01  0.7957747E-01            NaN
         13   -1    0    0    0    0  0.00000000000E+00  0.00000000000E+00  0.74505805969E-08  0.10566000000E+00  0.10566000000E+00 0.  1.
     999900   -1    0    0    0    0 -0.00000000000E+00 -0.00000000000E+00 -0.74505805969E-08  0.93827000000E+00  0.93827000000E+00 0.  1.
     999902    2    1    2    0    0  0.11244074541E-01  0.47458182575E-02 -0.19744345874E-01  0.10207181238E+01  0.10204541621E+01 0.  0.
     999903    2    3    3    0    0  0.45717570642E-01 -0.17747335243E-02  0.11908990510E+00  0.12914317530E+00  0.20057624150E-01 0.  0.
         14    1    1    2    0    0 -0.11244074541E-01 -0.47458182575E-02  0.19744345874E-01  0.23211876211E-01  0.00000000000E+00 0.  1.
     999901    1    3    3    0    0 -0.34473496101E-01  0.65205517817E-02 -0.13883425097E+00  0.89157494849E+00  0.88000000000E+00 0.  1.
        -11    1    4    4    0    0  0.21693269753E-01 -0.13538171392E-02  0.31210397803E-01  0.38036572209E-01  0.51100000000E-03 0. -1.
         11    1    4    4    0    0  0.24024300889E-01 -0.42091638506E-03  0.87879507294E-01  0.91106603092E-01  0.51100000000E-03 0.  1.
</event>
<event>
 8    1  0.1132255E+005  0.1043930E+01  0.7957747E-01            NaN
         13   -1    0    0    0    0  0.00000000000E+00  0.00000000000E+00  0.74505805969E-08  0.10566000000E+00  0.10566000000E+00 0.  1.
     999900   -1    0    0    0    0 -0.00000000000E+00 -0.00000000000E+00 -0.74505805969E-08  0.93827000000E+00  0.93827000000E+00 0. -1.
     999902    2    1    2    0    0 -0.69995377419E-02  0.22281730341E-01 -0.53822823034E-02  0.10199625638E+01  0.10196809273E+01 0.  0.
     999903    2    3    3    0    0  0.12445320282E+00 -0.83579021500E-03  0.28624059885E-01  0.12924898802E+00  0.19916472100E-01 0.  0.
         14    1    1    2    0    0  0.69995377419E-02 -0.22281730341E-01  0.53822823034E-02  0.23967436208E-01  0.00000000000E+00 0. -1.
     999901    1    3    3    0    0 -0.13145274057E+00  0.23117520556E-01 -0.34006342188E-01  0.89071357577E+00  0.88000000000E+00 0.  1.
        -11    1    4    4    0    0  0.11112826317E+00  0.54967413909E-02  0.25848800289E-01  0.11422839681E+00  0.51100000000E-03 0.  1.
         11    1    4    4    0    0  0.13324939656E-01 -0.63325316059E-02  0.27752595958E-02  0.15020591206E-01  0.51100000000E-03 0. -1.
</event>
<event>
 7    1  0.1132255E+005  0.1043930E+01  0.7957747E-01            NaN
         13   -1    0    0    0    0  0.00000000000E+00  0.00000000000E+00  0.74505805969E-08  0.10566000000E+00  0.10566000000E+00 0. -1.
     999900   -1    0    0    0    0 -0.00000000000E+00 -0.00000000000E+00 -0.74505805969E-08  0.93827000000E+00  0.93827000000E+00 0. -1.
     999902    2    1    2    0    0  0.18370860374E-01  0.13072774671E-01  0.61424033098E-02  0.10205608950E+01  0.10202933036E+01 0.  0.
         14    1    1    2    0    0 -0.18370860374E-01 -0.13072774671E-01 -0.61424033098E-02  0.23369104966E-01  0.00000000000E+00 0. -1.
     999901    1    3    3    0    0  0.12106714517E+00  0.67887758084E-01 -0.47895700427E-01  0.89216590355E+00  0.88000000000E+00 0. -1.
        -11    1    3    3    0    0 -0.81449647334E-01 -0.44907417400E-01  0.43836914017E-01  0.10282342797E+00  0.51100000000E-03 0. -1.
         11    1    3    3    0    0 -0.21246637462E-01 -0.99075660132E-02  0.10201189720E-01  0.25571563512E-01  0.51100000000E-03 0.  1.
</event>
<event>
 8    1  0.1132255E+005  0.1043930E+01  0.7957747E-01            NaN
         13   -1    0    0    0    0  0.00000000000E+00  0.00000000000E+00  0.74505805969E-08  0.10566000000E+00  0.10566000000E+00 0. -1.
     999900   -1    0    0    0    0 -0.00000000000E+00 -0.00000000000E+00 -0.74505805969E-08  0.93827000000E+00  0.93827000000E+00 0.  1.
     999902    2    1    2    0    0  0.19756030945E-01 -0.97554910902E-03  0.14665331751E-01  0.10193063445E+01  0.10190088810E+01 0.  0.
     999903    2    3    3    0    0  0.11745040165E+00 -0.56919984967E-01 -0.12907295777E-01  0.13170608551E+00  0.12058737059E-01 0.  0.
         14    1    1    2    0    0 -0.19756030945E-01  0.97554910902E-03 -0.14665331751E-01  0.24623655500E-01  0.00000000000E+00 0.  1.
     999901    1    3    3    0    0 -0.97694370706E-01  0.55944435858E-01  0.27572627528E-01  0.88760025899E+00  0.88000000000E+00 0. -1.
        -11    1    4    4    0    0  0.76648857367E-01 -0.33072122254E-01 -0.37539463481E-02  0.83565338749E-01  0.51100000000E-03 0.  1.
         11    1    4    4    0    0  0.40801544284E-01 -0.23847862713E-01 -0.91533494287E-02  0.48140746761E-01  0.51100000000E-03 0. -1.
</event>
<event>
 8    1  0.1132255E+005  0.1043930E+01  0.7957747E-01            NaN
         13   -1    0    0    0    0  0.00000000000E+00  0.00000000000E+00  0.74505805969E-08  0.10566000000E+00  0.10566000000E+00 0. -1.
     999900   -1    0    0    0    0 -0.00000000000E+00 -0.00000000000E+00 -0.74505805969E-08  0.93827000000E+00  0.93827000000E+00 0.  1.
     999902    2    1    2    0    0 -0.41811671642E-02 -0.13334278120E-01 -0.15999730790E-01  0.10226867301E+01  0.10224660734E+01 0.  0.
     999903    2    3    3    0    0 -0.87649566471E-01  0.67192598528E-01  0.67808787973E-01  0.13112886916E+00  0.19986415394E-01 0.  0.
         14    1    1    2    0    0  0.41811671642E-02  0.13334278120E-01  0.15999730790E-01  0.21243269927E-01  0.00000000000E+00 0. -1.
     999901    1    3    3    0    0  0.83468399307E-01 -0.80526876647E-01 -0.83808518763E-01  0.89155786092E+00  0.88000000000E+00 0.  1.
        -11    1    4    4    0    0 -0.25029796682E-01  0.10424841703E-01  0.22443232355E-01  0.35201247791E-01  0.51100000000E-03 0.  1.
         11    1    4    4    0    0 -0.62619769789E-01  0.56767756824E-01  0.45365555619E-01  0.95927621365E-01  0.51100000000E-03 0. -1.
</event>
<event>
 8    1  0.1132255E+005  0.1043930E+01  0.7957747E-01            NaN
         13   -1    0    0    0    0  0.00000000000E+00  0.00000000000E+00  0.74505805969E-08  0.10566000000E+00  0.10566000000E+00 0. -1.
     999900   -1    0    0    0    0 -0.00000000000E+00 -0.00000000000E+00 -0.74505805969E-08  0.93827000000E+00  0.93827000000E+00 0. -1.
     999902    2    1    2    0    0  0.19962001330E-01 -0.83209472986E-02  0.93807634315E-02  0.10203563201E+01  0.10200839679E+01 0.  0.
     999903    2    3    3    0    0 -0.53327480144E-01  0.42964474084E-01 -0.10668010376E+00  0.12823992219E+00  0.19366644886E-01 0.  0.
         14    1    1    2    0    0 -0.19962001330E-01  0.83209472986E-02 -0.93807634315E-02  0.23573679891E-01  0.00000000000E+00 0. -1.
     999901    1    3    3    0    0  0.73289481474E-01 -0.51285421383E-01  0.11606086719E+00  0.89211639792E+00  0.88000000000E+00 0. -1.
        -11    1    4    4    0    0 -0.35470388009E-01  0.28897092381E-01 -0.86421076605E-01  0.97785755487E-01  0.51100000000E-03 0. -1.
         11    1    4    4    0    0 -0.17857092135E-01  0.14067381703E-01 -0.20259027152E-01  0.30454166705E-01  0.51100000000E-03 0.  1.
</event>
<event>
 8    1  0.1132255E+005  0.1043930E+01  0.7957747E-01            NaN
         13   -1    0    0    0    0  0.00000000000E+00  0.00000000000E+00  0.74505805969E-08  0.10566000000E+00  0.10566000000E+00 0.  1.
     999900   -1    0    0    0    0 -0.00000000000E+00 -0.00000000000E+00 -0.74505805969E-08  0.93827000000E+00  0.93827000000E+00 0. -1.
     999902    2    1    2    0    0 -0.19508035083E-01 -0.90243429175E-02  0.97277780500E-02  0.10203369531E+01  0.10200641479E+01 0.  0.
     999903    2    3    3    0    0 -0.36476387780E-02 -0.77589294000E-01  0.10567810706E+00  0.13232841126E+00  0.17593814330E-01 0.  0.
         14    1    1    2    0    0  0.19508035083E-01  0.90243429175E-02 -0.97277780500E-02  0.23593046935E-01  0.00000000000E+00 0. -1.
     999901    1    3    3    0    0 -0.15860396305E-01  0.68564951083E-01 -0.95950329006E-01  0.88800854181E+00  0.88000000000E+00 0. -1.
        -11    1    4    4    0    0 -0.41790304401E-02 -0.14866991352E-01  0.11887313457E-01  0.19495155026E-01  0.51100000000E-03 0.  1.
         11    1    4    4    0    0  0.53139166206E-03 -0.62722302648E-01  0.93790793599E-01  0.11283325623E+00  0.51100000000E-03 0. -1.
</event>
<event>
 8    1  0.1132255E+005  0.1043930E+01  0.7957747E-01            NaN
         13   -1    0    0    0    0  0.00000000000E+00  0.00000000000E+00  0.74505805969E-08  0.10566000000E+00  0.10566000000E+00 0. -1.
     999900   -1    0    0    0    0 -0.00000000000E+00 -0.00000000000E+00 -0.74505805969E-08  0.93827000000E+00  0.93827000000E+00 0. -1.
     999902    2    1    2    0    0 -0.13460303860E-01 -0.15925952838E-01  0.16062338697E-01  0.10176086308E+01  0.10172681608E+01 0.  0.
     999903    2    3    3    0    0 -0.43872417534E-01  0.11738229910E+00  0.70856056849E-02  0.12700402241E+00  0.19401616892E-01 0.  0.
         14    1    1    2    0    0  0.13460303860E-01  0.15925952838E-01 -0.16062338697E-01  0.26321369231E-01  0.00000000000E+00 0.  1.
     999901    1    3    3    0    0  0.30412113674E-01 -0.13330825194E+00  0.89767330124E-02  0.89060460836E+00  0.88000000000E+00 0. -1.
        -11    1    4    4    0    0  0.59733354142E-03  0.10867271050E-01  0.37716056888E-02  0.11529983431E-01  0.51100000000E-03 0. -1.
         11    1    4    4    0    0 -0.44469751076E-01  0.10651502805E+00  0.33139999960E-02  0.11547403898E+00  0.51100000000E-03 0.  1.
</event>
<event>
 8    1  0.1132255E+005  0.1043930E+01  0.7957747E-01            NaN
         13   -1    0    0    0    0  0.00000000000E+00  0.00000000000E+00  0.74505805969E-08  0.10566000000E+00  0.10566000000E+00 0.  1.
     999900   -1    0    0    0    0 -0.00000000000E+00 -0.00000000000E+00 -0.74505805969E-08  0.93827000000E+00  0.93827000000E+00 0.  1.
     999902    2    1    2    0    0  0.25868915952E-02 -0.66712309086E-02  0.22161003480E-01  0.10206425054E+01  0.10203768012E+01 0.  0.
     999903    2    3    3    0    0  0.41342149544E-01 -0.65569692034E-01 -0.10177178173E+00  0.12916601440E+00  0.17827110698E-01 0.  0.
         14    1    1    2    0    0 -0.25868915952E-02  0.66712309086E-02 -0.22161003480E-01  0.23287494610E-01  0.00000000000E+00 0. -1.
     999901    1    3    3    0    0 -0.38755257949E-01  0.58898461125E-01  0.12393278521E+00  0.89147649099E+00  0.88000000000E+00 0. -1.
        -11    1    4    4    0    0  0.60275215833E-02 -0.22457694720E-01 -0.37165838213E-01  0.43843354339E-01  0.51100000000E-03 0. -1.
         11    1    4    4    0    0  0.35314627961E-01 -0.43111997313E-01 -0.64605943520E-01  0.85322660059E-01  0.51100000000E-03 0.  1.
</event>
<event>
 8    1  0.1132255E+005  0.1043930E+01  0.7957747E-01            NaN
         13   -1    0    0    0    0  0.00000000000E+00  0.00000000000E+00  0.74505805969E-08  0.10566000000E+00  0.10566000000E+00 0.  1.
     999900   -1    0    0    0    0 -0.00000000000E+00 -0.00000000000E+00 -0.74505805969E-08  0.93827000000E+00  0.93827000000E+00 0. -1.
     999902    2    1    2    0    0 -0.27500618394E-02  0.11923618575E-01 -0.17734207779E-01  0.10223838253E+01  0.10221567632E+01 0.  0.
     999903    2    3    3    0    0 -0.56464744904E-01 -0.11678060659E+00  0.78660628108E-03  0.13120872165E+00  0.19726439019E-01 0.  0.
         14    1    1    2    0    0  0.27500618394E-02 -0.11923618575E-01  0.17734207779E-01  0.21546174733E-01  0.00000000000E+00 0.  1.
     999901    1    3    3    0    0  0.53714683064E-01  0.12870422516E+00 -0.18520814061E-01  0.89117510362E+00  0.88000000000E+00 0.  1.
        -11    1    4    4    0    0 -0.39581675337E-01 -0.74945402690E-01 -0.83804036878E-02  0.85170503661E-01  0.51100000000E-03 0.  1.
         11    1    4    4    0    0 -0.16883069567E-01 -0.41835203896E-01  0.91670099689E-02  0.46038217991E-01  0.51100000000E-03 0. -1.
</event>
<event>
 8    1  0.1132255E+005  0.1043930E+01  0.7957747E-01            NaN
         13   -1    0    0    0    0  0.00000000000E+00  0.00000000000E+00  0.74505805969E-08  0.10566000000E+00  0.10566000000E+00 0. -1.
     999900   -1    0    0    0    0 -0.00000000000E+00 -0.00000000000E+00 -0.74505805969E-08  0.93827000000E+00  0.93827000000E+00 0. -1.
     999902    2    1    2    0    0  0.15346598002E-01  0.12679966958E-01  0.12408005411E-01  0.10204724164E+01  0.10202027712E+01 0.  0.
     999903    2    3    3    0    0  0.12812162201E+00 -0.14349167491E-02 -0.26634107985E-01  0.13230479557E+00  0.19441558850E-01 0.  0.
         14    1    1    2    0    0 -0.15346598002E-01 -0.12679966958E-01 -0.12408005411E-01  0.23457583647E-01  0.00000000000E+00 0.  1.
     999901    1    3    3    0    0 -0.11277502401E+00  0.14114883707E-01  0.39042113396E-01  0.88816762078E+00  0.88000000000E+00 0.  1.
        -11    1    4    4    0    0  0.85484462650E-01 -0.68345614882E-02 -0.24852044846E-01  0.89287120232E-01  0.51100000000E-03 0.  1.
         11    1    4    4    0    0  0.42637159362E-01  0.53996447390E-02 -0.17820631396E-02  0.43017675342E-01  0.51100000000E-03 0. -1.
</event>
<event>
 8    1  0.1132255E+005  0.1043930E+01  0.7957747E-01            NaN
         13   -1    0    0    0    0  0.00000000000E+00  0.00000000000E+00  0.74505805969E-08  0.10566000000E+00  0.10566000000E+00 0.  1.
     999900   -1    0    0    0    0 -0.00000000000E+00 -0.00000000000E+00 -0.74505805969E-08  0.93827000000E+00  0.93827000000E+00 0.  1.
     999902    2    1    2    0    0  0.14093268828E-01 -0.16557273532E-01  0.12310173766E-01  0.10189439257E+01  0.10186375311E+01 0.  0.
     999903    2    3    3    0    0 -0.77505614118E-01 -0.20447815194E-02 -0.98366293651E-01  0.12717587946E+00  0.22056183654E-01 0.  0.
         14    1    1    2    0    0 -0.14093268828E-01  0.16557273532E-01 -0.12310173766E-01  0.24986074346E-01  0.00000000000E+00 0. -1.
     999901    1    3    3    0    0  0.91598882946E-01 -0.14512492012E-01  0.11067646742E+00  0.89176804620E+00  0.88000000000E+00 0. -1.
        -11    1    4    4    0    0 -0.35070101884E-01  0.86676270599E-02 -0.36178405341E-01  0.51129032252E-01  0.51100000000E-03 0.  1.
         11    1    4    4    0    0 -0.42435512233E-01 -0.10712408579E-01 -0.62187888310E-01  0.76046847203E-01  0.51100000000E-03 0. -1.
</event>
<event>
 8    1  0.1132255E+005  0.1043930E+01  0.7957747E-01            NaN
         13   -1    0    0    0    0  0.00000000000E+00  0.00000000000E+00  0.74505805969E-08  0.10566000000E+00  0.10566000000E+00 0. -1.
     999900   -1    0    0    0    0 -0.00000000000E+00 -0.00000000000E+00 -0.74505805969E-08  0.93827000000E+00  0.93827000000E+00 0.  1.
     999902    2    1    2    0    0  0.13534349373E-01  0.96559036300E-02 -0.16243668018E-01  0.10206862516E+01  0.10204215562E+01 0.  0.
     999903    2    3    3    0    0  0.25833101264E-01 -0.12126231428E+00 -0.36350239086E-01  0.13068899698E+00  0.19656450930E-01 0.  0.
         14    1    1    2    0    0 -0.13534349373E-01 -0.96559036300E-02  0.16243668018E-01  0.23243748375E-01  0.00000000000E+00 0. -1.
     999901    1    3    3    0    0 -0.12298751891E-01  0.13091821791E+00  0.20106571069E-01  0.88999725465E+00  0.88000000000E+00 0.  1.
        -11    1    4    4    0    0  0.26228367538E-01 -0.78553724999E-01 -0.24079700751E-01  0.86247945391E-01  0.51100000000E-03 0. -1.
         11    1    4    4    0    0 -0.39526627446E-03 -0.42708589284E-01 -0.12270538335E-01  0.44441051586E-01  0.51100000000E-03 0.  1.
</event>
<event>
 8    1  0.1132255E+005  0.1043930E+01  0.7957747E-01            NaN
         13   -1    0    0    0    0  0.00000000000E+00  0.00000000000E+00  0.74505805969E-08  0.10566000000E+00  0.10566000000E+00 0. -1.
     999900   -1    0    0    0    0 -0.00000000000E+00 -0.00000000000E+00 -0.74505805969E-08  0.93827000000E+00  0.93827000000E+00 0. -1.
     999902    2    1    2    0    0  0.46390313793E-03  0.63709226567E-02 -0.22658279116E-01  0.10203885159E+01  0.10201169158E+01 0.  0.
     999903    2    3    3    0    0  0.87568552449E-01  0.73060915163E-01 -0.64553954607E-01  0.13258784983E+00  0.20153812657E-01 0.  0.
         14    1    1    2    0    0 -0.46390313793E-03 -0.63709226567E-02  0.22658279116E-01  0.23541484110E-01  0.00000000000E+00 0. -1.
     999901    1    3    3    0    0 -0.87104649311E-01 -0.66689992506E-01  0.41895675492E-01  0.88780066606E+00  0.88000000000E+00 0. -1.
        -11    1    4    4    0    0  0.24799201891E-01  0.33239539271E-01 -0.23212314441E-01  0.47528307861E-01  0.51100000000E-03 0.  1.
         11    1    4    4    0    0  0.62769350558E-01  0.39821375892E-01 -0.41341640166E-01  0.85059541969E-01  0.51100000000E-03 0. -1.
</event>
<event>
 8    1  0.1132255E+005  0.1043930E+01  0.7957747E-01            NaN
         13   -1    0    0    0    0  0.00000000000E+00  0.00000000000E+00  0.74505805969E-08  0.10566000000E+00  0.10566000000E+00 0. -1.
     999900   -1    0    0    0    0 -0.00000000000E+00 -0.00000000000E+00 -0.74505805969E-08  0.93827000000E+00  0.93827000000E+00 0.  1.
     999902    2    1    2    0    0  0.20155071007E-01 -0.34560882092E-03 -0.42610608337E-02  0.10233265301E+01  0.10231190958E+01 0.  0.
     999903    2    3    3    0    0 -0.13542360517E-01  0.80132837524E-01  0.99833961515E-01  0.13290636473E+00  0.33054723335E-01 0.  0.
         14    1    1    2    0    0 -0.20155071007E-01  0.34560882092E-03  0.42610608337E-02  0.20603469906E-01  0.00000000000E+00 0.  1.
     999901    1    3    3    0    0  0.33697431524E-01 -0.80478446345E-01 -0.10409502235E+00  0.89042016537E+00  0.88000000000E+00 0.  1.
        -11    1    4    4    0    0 -0.50825511026E-02  0.76550109428E-01  0.78958322093E-01  0.11009282142E+00  0.51100000000E-03 0.  1.
         11    1    4    4    0    0 -0.84598094145E-02  0.35827280959E-02  0.20875639422E-01  0.22813543307E-01  0.51100000000E-03 0. -1.
</event>
<event>
 8    1  0.1132255E+005  0.1043930E+01  0.7957747E-01            NaN
         13   -1    0    0    0    0  0.00000000000E+00  0.00000000000E+00  0.74505805969E-08  0.10566000000E+00  0.10566000000E+00 0. -1.
     999900   -1    0    0    0    0 -0.00000000000E+00 -0.00000000000E+00 -0.74505805969E-08  0.93827000000E+00  0.93827000000E+00 0.  1.
     999902    2    1    2    0    0  0.69260988756E-02 -0.18365094821E-01  0.13309756980E-01  0.10202150852E+01  0.10199394212E+01 0.  0.
     999903    2    3    3    0    0  0.12973966139E+00 -0.83045371353E-03 -0.53821813679E-02  0.13131687767E+00  0.19546997077E-01 0.  0.
         14    1    1    2    0    0 -0.69260988756E-02  0.18365094821E-01 -0.13309756980E-01  0.23714914807E-01  0.00000000000E+00 0. -1.
     999901    1    3    3    0    0 -0.12281356251E+00 -0.17534641108E-01  0.18691938348E-01  0.88889820752E+00  0.88000000000E+00 0. -1.
        -11    1    4    4    0    0  0.11826758552E+00  0.45143742797E-02 -0.27883611582E-02  0.11838765746E+00  0.51100000000E-03 0. -1.
         11    1    4    4    0    0  0.11472075865E-01 -0.53448279932E-02 -0.25938202097E-02  0.12929220208E-01  0.51100000000E-03 0.  1.
</event>
<event>
 8    1  0.1132255E+005  0.1043930E+01  0.7957747E-01            NaN
         13   -1    0    0    0    0  0.00000000000E+00  0.00000000000E+00  0.74505805969E-08  0.10566000000E+00  0.10566000000E+00 0. -1.
     999900   -1    0    0    0    0 -0.00000000000E+00 -0.00000000000E+00 -0.74505805969E-08  0.93827000000E+00  0.93827000000E+00 0.  1.
     999902    2    1    2    0    0 -0.14607258841E-01 -0.18208390502E-01  0.19062376854E-01  0.10137921217E+01  0.10133440553E+01 0.  0.
     999903    2    3    3    0    0  0.58264681007E-01  0.82562505804E-01  0.68911974777E-01  0.12365164092E+00  0.18152895546E-01 0.  0.
         14    1    1    2    0    0  0.14607258841E-01  0.18208390502E-01 -0.19062376854E-01  0.30137878274E-01  0.00000000000E+00 0.  1.
     999901    1    3    3    0    0 -0.72871939848E-01 -0.10077089631E+00 -0.49849597923E-01  0.89014048081E+00  0.88000000000E+00 0.  1.
        -11    1    4    4    0    0  0.32960851330E-01  0.55161161238E-01  0.34669816505E-01  0.73016633222E-01  0.51100000000E-03 0. -1.
         11    1    4    4    0    0  0.25303829676E-01  0.27401344566E-01  0.34242158272E-01  0.50635007697E-01  0.51100000000E-03 0.  1.
</event>
<event>
 8    1  0.1132255E+005  0.1043930E+01  0.7957747E-01            NaN
         13   -1    0    0    0    0  0.00000000000E+00  0.00000000000E+00  0.74505805969E-08  0.10566000000E+00  0.10566000000E+00 0. -1.
     999900   -1    0    0    0    0 -0.00000000000E+00 -0.00000000000E+00 -0.74505805969E-08  0.93827000000E+00  0.93827000000E+00 0.  1.
     999902    2    1    2    0    0  0.21480480377E-02  0.64536579090E-02  0.22378697802E-01  0.10205404740E+01  0.10202724093E+01 0.  0.
     999903    2    3    3    0    0 -0.27560515538E-01 -0.11895739398E+00 -0.37295041103E-01  0.12915308022E+00  0.19471888476E-01 0.  0.
         14    1    1    2    0    0 -0.21480480377E-02 -0.64536579090E-02 -0.22378697802E-01  0.23389525991E-01  0.00000000000E+00 0.  1.
     999901    1    3    3    0    0  0.29708563576E-01  0.12541105189E+00  0.59673738906E-01  0.89138739379E+00  0.88000000000E+00 0. -1.
        -11    1    4    4    0    0 -0.99319794217E-02 -0.79637410897E-01 -0.19941898048E-01  0.82696443989E-01  0.51100000000E-03 0. -1.
         11    1    4    4    0    0 -0.17628536116E-01 -0.39319983083E-01 -0.17353143056E-01  0.46456636234E-01  0.51100000000E-03 0.  1.
</event>
<event>
 8    1  0.1132255E+005  0.1043930E+01  0.7957747E-01            NaN
         13   -1    0    0    0    0  0.00000000000E+00  0.00000000000E+00  0.74505805969E-08  0.10566000000E+00  0.10566000000E+00 0. -1.
     999900   -1    0    0    0    0 -0.00000000000E+00 -0.00000000000E+00 -0.74505805969E-08  0.93827000000E+00  0.93827000000E+00 0. -1.
     999902    2    1    2    0    0  0.44416518060E-02 -0.13507131849E-01 -0.18496616686E-01  0.10205998540E+01  0.10203331644E+01 0.  0.
     999903    2    3    3    0    0  0.68097110454E-03  0.45342726225E-02  0.12680844848E+00  0.12849380824E+00  0.20229997506E-01 0.  0.
         14    1    1    2    0    0 -0.44416518060E-02  0.13507131849E-01  0.18496616686E-01  0.23330145957E-01  0.00000000000E+00 0. -1.
     999901    1    3    3    0    0  0.37606807015E-02 -0.18041404471E-01 -0.14530506517E+00  0.89210604580E+00  0.88000000000E+00 0. -1.
        -11    1    4    4    0    0  0.87505390004E-02  0.20528970061E-02  0.30133116912E-01  0.31449199906E-01  0.51100000000E-03 0.  1.
         11    1    4    4    0    0 -0.80695678959E-02  0.24813756163E-02  0.96675331572E-01  0.97044608333E-01  0.51100000000E-03 0. -1.
</event>
<event>
 8    1  0.1132255E+005  0.1043930E+01  0.7957747E-01            NaN
         13   -1    0    0    0    0  0.00000000000E+00  0.00000000000E+00  0.74505805969E-08  0.10566000000E+00  0.10566000000E+00 0. -1.
     999900   -1    0    0    0    0 -0.00000000000E+00 -0.00000000000E+00 -0.74505805969E-08  0.93827000000E+00  0.93827000000E+00 0.  1.
     999902    2    1    2    0    0  0.19763768458E-01  0.22777427965E-02  0.10539399104E-01  0.10214161467E+01  0.10211679936E+01 0.  0.
     999903    2    3    3    0    0  0.12146492131E+00  0.52389033685E-01  0.82504243385E-02  0.13413969298E+00  0.20665182598E-01 0.  0.
         14    1    1    2    0    0 -0.19763768458E-01 -0.22777427965E-02 -0.10539399104E-01  0.22513853277E-01  0.00000000000E+00 0.  1.
     999901    1    3    3    0    0 -0.10170115285E+00 -0.50111290888E-01  0.22889747654E-02  0.88727645375E+00  0.88000000000E+00 0. -1.
        -11    1    4    4    0    0  0.78719688544E-01  0.42365160773E-01 -0.34823432544E-03  0.89397866864E-01  0.51100000000E-03 0. -1.
         11    1    4    4    0    0  0.42745232763E-01  0.10023872912E-01  0.85986586640E-02  0.44741826113E-01  0.51100000000E-03 0.  1.
</event>
<event>
 8    1  0.1132255E+005  0.1043930E+01  0.7957747E-01            NaN
         13   -1    0    0    0    0  0.00000000000E+00  0.00000000000E+00  0.74505805969E-08  0.10566000000E+00  0.10566000000E+00 0.  1.
     999900   -1    0    0    0    0 -0.00000000000E+00 -0.00000000000E+00 -0.74505805969E-08  0.93827000000E+00  0.93827000000E+00 0.  1.
     999902    2    1    2    0    0 -0.77728196003E-02 -0.63322968508E-02 -0.21735380168E-01  0.10199938044E+01  0.10197129104E+01 0.  0.
     999903    2    3    3    0    0  0.10654568611E-01  0.70331018619E-01  0.10391666621E+00  0.12757839143E+00  0.20435274220E-01 0.  0.
         14    1    1    2    0    0  0.77728196003E-02  0.63322968508E-02  0.21735380168E-01  0.23936195583E-01  0.00000000000E+00 0.  1.
     999901    1    3    3    0    0 -0.18427388212E-01 -0.76663315470E-01 -0.12565204638E+00  0.89241541299E+00  0.88000000000E+00 0.  1.
        -11    1    4    4    0    0  0.97609871404E-02  0.31692475441E-01  0.32850229131E-01  0.46680708483E-01  0.51100000000E-03 0. -1.
         11    1    4    4    0    0  0.89358147084E-03  0.38638543178E-01  0.71066437076E-01  0.80897682949E-01  0.51100000000E-03 0.  1.
</event>
<event>
 8    1  0.1132255E+005  0.1043930E+01  0.7957747E-01            NaN
         13   -1    0    0    0    0  0.00000000000E+00  0.00000000000E+00  0.74505805969E-08  0.10566000000E+00  0.10566000000E+00 0.  1.
     999900   -1    0    0    0    0 -0.00000000000E+00 -0.00000000000E+00 -0.74505805969E-08  0.93827000000E+00  0.93827000000E+00 0. -1.
     999902    2    1    2    0    0 -0.11954836442E-01 -0.18708524731E-01 -0.68090155027E-02  0.10207073881E+01  0.10204431794E+01 0.  0.
     999903    2    3    3    0    0 -0.25500935575E-01  0.50442261977E-01  0.11510219024E+00  0.12951286937E+00  0.18175522748E-01 0.  0.
         14    1    1    2    0    0  0.11954836442E-01  0.18708524731E-01  0.68090155027E-02  0.23222611914E-01  0.00000000000E+00 0.  1.
     999901    1    3    3    0    0  0.13546099132E-01 -0.69150786708E-01 -0.12191120574E+00  0.89119451872E+00  0.88000000000E+00 0. -1.
        -11    1    4    4    0    0 -0.80423877096E-02  0.34408985353E-02  0.23577367747E-01  0.25152995322E-01  0.51100000000E-03 0.  1.
         11    1    4    4    0    0 -0.17458547865E-01  0.47001363442E-01  0.91524822488E-01  0.10435987405E+00  0.51100000000E-03 0. -1.
</event>
<event>
 8    1  0.1132255E+005  0.1043930E+01  0.7957747E-01            NaN
         13   -1    0    0    0    0  0.00000000000E+00  0.00000000000E+00  0.74505805969E-08  0.10566000000E+00  0.10566000000E+00 0. -1.
     999900   -1    0    0    0    0 -0.00000000000E+00 -0.00000000000E+00 -0.74505805969E-08  0.93827000000E+00  0.93827000000E+00 0. -1.
     999902    2    1    2    0    0 -0.57089844610E-02  0.28916871060E-02 -0.23106930699E-01  0.10199532487E+01  0.10196713906E+01 0.  0.
     999903    2    3    3    0    0  0.65598449944E-01  0.99485296433E-01 -0.51239676695E-01  0.13135518039E+00  0.20692948198E-01 0.  0.
         14    1    1    2    0    0  0.57089844610E-02 -0.28916871060E-02  0.23106930699E-01  0.23976751328E-01  0.00000000000E+00 0. -1.
     999901    1    3    3    0    0 -0.71307434405E-01 -0.96593609327E-01  0.28132745996E-01  0.88859806829E+00  0.88000000000E+00 0. -1.
        -11    1    4    4    0    0  0.15045206182E-01  0.12054684967E-01 -0.33236954697E-02  0.19569919041E-01  0.51100000000E-03 0.  1.
         11    1    4    4    0    0  0.50553243762E-01  0.87430611467E-01 -0.47915981225E-01  0.11178526135E+00  0.51100000000E-03 0. -1.
</event>
<event>
 8    1  0.1132255E+005  0.1043930E+01  0.7957747E-01            NaN
         13   -1    0    0    0    0  0.00000000000E+00  0.00000000000E+00  0.74505805969E-08  0.10566000000E+00  0.10566000000E+00 0.  1.
     999900   -1    0    0    0    0 -0.00000000000E+00 -0.00000000000E+00 -0.74505805969E-08  0.93827000000E+00  0.93827000000E+00 0.  1.
     999902    2    1    2    0    0  0.10982246354E-01  0.13367330889E-01 -0.16066272265E-01  0.10203202483E+01  0.10200470522E+01 0.  0.
     999903    2    3    3    0    0  0.24295879595E-01 -0.26784894288E-01 -0.12581024215E+00  0.13249526954E+00  0.20470932884E-01 0.  0.
         14    1    1    2    0    0 -0.10982246354E-01 -0.13367330889E-01  0.16066272265E-01  0.23609751684E-01  0.00000000000E+00 0.  1.
     999901    1    3    3    0    0 -0.13313633241E-01  0.40152225177E-01  0.10974396988E+00  0.88782497878E+00  0.88000000000E+00 0. -1.
        -11    1    4    4    0    0  0.20212106458E-01 -0.12878229774E-01 -0.10054753481E+00  0.10336559353E+00  0.51100000000E-03 0. -1.
         11    1    4    4    0    0  0.40837731367E-02 -0.13906664514E-01 -0.25262707340E-01  0.29129676004E-01  0.51100000000E-03 0.  1.
</event>
<event>
 8    1  0.1132255E+005  0.1043930E+01  0.7957747E-01            NaN
         13   -1    0    0    0    0  0.00000000000E+00  0.00000000000E+00  0.74505805969E-08  0.10566000000E+00  0.10566000000E+00 0. -1.
     999900   -1    0    0    0    0 -0.00000000000E+00 -0.00000000000E+00 -0.74505805969E-08  0.93827000000E+00  0.93827000000E+00 0.  1.
     999902    2    1    2    0    0  0.18553284781E-01  0.98910741578E-02  0.12127765026E-01  0.10196577853E+01  0.10193688531E+01 0.  0.
     999903    2    3    3    0    0 -0.24978120693E-01  0.87502990852E-01 -0.89880885808E-01  0.12930709158E+00  0.19001851973E-01 0.  0.
         14    1    1    2    0    0 -0.18553284781E-01 -0.98910741578E-02 -0.12127765026E-01  0.24272214747E-01  0.00000000000E+00 0.  1.
     999901    1    3    3    0    0  0.43531405475E-01 -0.77611916694E-01  0.10200865083E+00  0.89035069367E+00  0.88000000000E+00 0. -1.
        -11    1    4    4    0    0 -0.26524511583E-01  0.69438818551E-01 -0.77242854167E-01  0.10720083431E+00  0.51100000000E-03 0. -1.
         11    1    4    4    0    0  0.15463908900E-02  0.18064172301E-01 -0.12638031641E-01  0.22106257269E-01  0.51100000000E-03 0.  1.
</event>
<event>
 8    1  0.1132255E+005  0.1043930E+01  0.7957747E-01            NaN
         13   -1    0    0    0    0  0.00000000000E+00  0.00000000000E+00  0.74505805969E-08  0.10566000000E+00  0.10566000000E+00 0.  1.
     999900   -1    0    0    0    0 -0.00000000000E+00 -0.00000000000E+00 -0.74505805969E-08  0.93827000000E+00  0.93827000000E+00 0.  1.
     999902    2    1    2    0    0 -0.11214615462E-01  0.10462576861E-01  0.16586361489E-01  0.10213392828E+01  0.10210894134E+01 0.  0.
     999903    2    3    3    0    0  0.91558708825E-01  0.91507401185E-01 -0.99825894741E-02  0.13126258452E+00  0.19329055029E-01 0.  0.
         14    1    1    2    0    0  0.11214615462E-01 -0.10462576861E-01 -0.16586361489E-01  0.22590717164E-01  0.00000000000E+00 0. -1.
     999901    1    3    3    0    0 -0.10277332429E+00 -0.81044824324E-01  0.26568950963E-01  0.89007669832E+00  0.88000000000E+00 0. -1.
        -11    1    4    4    0    0  0.67267271927E-01  0.77430707616E-01 -0.46143638960E-02  0.10267401731E+00  0.51100000000E-03 0. -1.
         11    1    4    4    0    0  0.24291436898E-01  0.14076693569E-01 -0.53682255781E-02  0.28588567212E-01  0.51100000000E-03 0.  1.
</event>
<event>
 8    1  0.1132255E+005  0.1043930E+01  0.7957747E-01            NaN
         13   -1    0    0    0    0  0.00000000000E+00  0.00000000000E+00  0.74505805969E-08  0.10566000000E+00  0.10566000000E+00 0.  1.
     999900   -1    0    0    0    0 -0.00000000000E+00 -0.00000000000E+00 -0.74505805969E-08  0.93827000000E+00  0.93827000000E+00 0. -1.
     999902    2    1    2    0    0  0.78198907602E-02  0.10114786638E-01  0.19607229863E-01  0.10205226707E+01  0.10202541930E+01 0.  0.
     999903    2    3    3    0    0  0.11010871517E+00  0.12194240765E-01 -0.65996686158E-01  0.13046910035E+00  0.19849304696E-01 0.  0.
         14    1    1    2    0    0 -0.78198907602E-02 -0.10114786638E-01 -0.19607229863E-01  0.23407329261E-01  0.00000000000E+00 0. -1.
     999901    1    3    3    0    0 -0.10228882441E+00 -0.20794541279E-02  0.85603916021E-01  0.89005357039E+00  0.88000000000E+00 0. -1.
        -11    1    4    4    0    0  0.62883692547E-01  0.11049193333E-01 -0.48147074594E-01  0.79967777102E-01  0.51100000000E-03 0. -1.
         11    1    4    4    0    0  0.47225022625E-01  0.11450474326E-02 -0.17849611564E-01  0.50501323246E-01  0.51100000000E-03 0.  1.
</event>
<event>
 8    1  0.1132255E+005  0.1043930E+01  0.7957747E-01            NaN
         13   -1    0    0    0    0  0.00000000000E+00  0.00000000000E+00  0.74505805969E-08  0.10566000000E+00  0.10566000000E+00 0.  1.
     999900   -1    0    0    0    0 -0.00000000000E+00 -0.00000000000E+00 -0.74505805969E-08  0.93827000000E+00  0.93827000000E+00 0. -1.
     999902    2    1    2    0    0  0.65114079368E-02  0.14959567436E-01 -0.16286012923E-01  0.10208774230E+01  0.10206171130E+01 0.  0.
     999903    2    3    3    0    0 -0.10187015015E-01 -0.41002320747E-01 -0.12382488823E+00  0.13240953949E+00  0.20364616868E-01 0.  0.
         14    1    1    2    0    0 -0.65114079368E-02 -0.14959567436E-01  0.16286012923E-01  0.23052577038E-01  0.00000000000E+00 0.  1.
     999901    1    3    3    0    0  0.16698422952E-01  0.55961888183E-01  0.10753887531E+00  0.88846788347E+00  0.88000000000E+00 0.  1.
        -11    1    4    4    0    0 -0.99539294661E-02 -0.40776926120E-01 -0.98428360792E-01  0.10700580239E+00  0.51100000000E-03 0.  1.
         11    1    4    4    0    0 -0.23308554911E-03 -0.22539462743E-03 -0.25396527441E-01  0.25403737101E-01  0.51100000000E-03 0. -1.
</event>
<event>
 8    1  0.1132255E+005  0.1043930E+01  0.7957747E-01            NaN
         13   -1    0    0    0    0  0.00000000000E+00  0.00000000000E+00  0.74505805969E-08  0.10566000000E+00  0.10566000000E+00 0.  1.
     999900   -1    0    0    0    0 -0.00000000000E+00 -0.00000000000E+00 -0.74505805969E-08  0.93827000000E+00  0.93827000000E+00 0.  1.
     999902    2    1    2    0    0  0.43257075380E-02  0.54004307322E-02  0.22811658267E-01  0.10200920439E+01  0.10198134780E+01 0.  0.
     999903    2    3    3    0    0  0.17002014669E-01  0.68793795350E-01  0.11117625093E+00  0.13330700306E+00  0.19721650802E-01 0.  0.
         14    1    1    2    0    0 -0.43257075380E-02 -0.54004307322E-02 -0.22811658267E-01  0.23837956093E-01  0.00000000000E+00 0. -1.
     999901    1    3    3    0    0 -0.12676307131E-01 -0.63393364618E-01 -0.88364592667E-01  0.88678504085E+00  0.88000000000E+00 0. -1.
        -11    1    4    4    0    0  0.19746841979E-01  0.42703066469E-01  0.65820488080E-01  0.80907894708E-01  0.51100000000E-03 0.  1.
         11    1    4    4    0    0 -0.27448273098E-02  0.26090728882E-01  0.45355762855E-01  0.52399108348E-01  0.51100000000E-03 0. -1.
</event>
<event>
 8    1  0.1132255E+005  0.1043930E+01  0.7957747E-01            NaN
         13   -1    0    0    0    0  0.00000000000E+00  0.00000000000E+00  0.74505805969E-08  0.10566000000E+00  0.10566000000E+00 0. -1.
     999900   -1    0    0    0    0 -0.00000000000E+00 -0.00000000000E+00 -0.74505805969E-08  0.93827000000E+00  0.93827000000E+00 0.  1.
     999902    2    1    2    0    0 -0.18561451259E-01 -0.65708677078E-02  0.29928242940E-02  0.10240136556E+01  0.10238199579E+01 0.  0.
     999903    2    3    3    0    0  0.69029832580E-01 -0.32616297481E-01  0.10749778653E+00  0.13313101211E+00  0.18416069848E-01 0.  0.
         14    1    1    2    0    0  0.18561451259E-01  0.65708677078E-02 -0.29928242940E-02  0.19916344356E-01  0.00000000000E+00 0. -1.
     999901    1    3    3    0    0 -0.87591283839E-01  0.26045429773E-01 -0.10450496224E+00  0.89088264353E+00  0.88000000000E+00 0.  1.
        -11    1    4    4    0    0  0.27237688013E-01 -0.17524904516E-01  0.59330321082E-01  0.67597056499E-01  0.51100000000E-03 0.  1.
         11    1    4    4    0    0  0.41792144567E-01 -0.15091392965E-01  0.48167465451E-01  0.65533955612E-01  0.51100000000E-03 0. -1.
</event>
<event>
 8    1  0.1132255E+005  0.1043930E+01  0.7957747E-01            NaN
         13   -1    0    0    0    0  0.00000000000E+00  0.00000000000E+00  0.74505805969E-08  0.10566000000E+00  0.10566000000E+00 0.  1.
     999900   -1    0    0    0    0 -0.00000000000E+00 -0.00000000000E+00 -0.74505805969E-08  0.93827000000E+00  0.93827000000E+00 0. -1.
     999902    2    1    2    0    0 -0.15285303970E-01 -0.17834432276E-01 -0.82086261514E-02  0.10190485001E+01  0.10187446965E+01 0.  0.
     999903    2    3    3    0    0  0.68706446703E-03  0.10130484303E+00  0.73411516209E-01  0.12713419309E+00  0.22598873009E-01 0.  0.
         14    1    1    2    0    0  0.15285303970E-01  0.17834432276E-01  0.82086261514E-02  0.24881499862E-01  0.00000000000E+00 0.  1.
     999901    1    3    3    0    0 -0.15972368437E-01 -0.11913927531E+00 -0.81620142360E-01  0.89191430705E+00  0.88000000000E+00 0. -1.
        -11    1    4    4    0    0 -0.22269815163E-02  0.63052925091E-01  0.58279480815E-01  0.85891733096E-01  0.51100000000E-03 0.  1.
         11    1    4    4    0    0  0.29140459833E-02  0.38251917943E-01  0.15132035394E-01  0.41242459996E-01  0.51100000000E-03 0. -1.
</event>
<event>
 8    1  0.1132255E+005  0.1043930E+01  0.7957747E-01            NaN
         13   -1    0    0    0    0  0.00000000000E+00  0.00000000000E+00  0.74505805969E-08  0.10566000000E+00  0.10566000000E+00 0.  1.
     999900   -1    0    0    0    0 -0.00000000000E+00 -0.00000000000E+00 -0.74505805969E-08  0.93827000000E+00  0.93827000000E+00 0. -1.
     999902    2    1    2    0    0  0.70788531685E-02 -0.11810146641E-01 -0.19218607145E-01  0.10202879911E+01  0.10200140392E+01 0.  0.
     999903    2    3    3    0    0  0.29594843188E-01  0.98944592423E-01 -0.78557052504E-01  0.13107787353E+00  0.18555627658E-01 0.  0.
         14    1    1    2    0    0 -0.70788531685E-02  0.11810146641E-01  0.19218607145E-01  0.23642008934E-01  0.00000000000E+00 0.  1.
     999901    1    3    3    0    0 -0.22515990020E-01 -0.11075473906E+00  0.59338445359E-01  0.88921011754E+00  0.88000000000E+00 0. -1.
        -11    1    4    4    0    0  0.62486523724E-02  0.32784661344E-01 -0.35652505531E-01  0.48838938845E-01  0.51100000000E-03 0.  1.
         11    1    4    4    0    0  0.23346190816E-01  0.66159931079E-01 -0.42904546973E-01  0.82238934684E-01  0.51100000000E-03 0. -1.
</event>
<event>
 8    1  0.1132255E+005  0.1043930E+01  0.7957747E-01            NaN
         13   -1    0    0    0    0  0.00000000000E+00  0.00000000000E+00  0.74505805969E-08  0.10566000000E+00  0.10566000000E+00 0.  1.
     999900   -1    0    0    0    0 -0.00000000000E+00 -0.00000000000E+00 -0.74505805969E-08  0.93827000000E+00  0.93827000000E+00 0.  1.
     999902    2    1    2    0    0  0.16954995993E-01  0.12856943493E-01 -0.10421937014E-01  0.10202363372E+01  0.10199611728E+01 0.  0.
     999903    2    3    3    0    0  0.12979351861E+00  0.51329056792E-02  0.17777031782E-01  0.13254980764E+00  0.19512161654E-01 0.  0.
         14    1    1    2    0    0 -0.16954995993E-01 -0.12856943493E-01  0.10421937014E-01  0.23693662786E-01  0.00000000000E+00 0.  1.
     999901    1    3    3    0    0 -0.11283852262E+00  0.77240378139E-02 -0.28198968796E-01  0.88768652957E+00  0.88000000000E+00 0.  1.
        -11    1    4    4    0    0  0.84731017179E-01 -0.58617065605E-02  0.12851465891E-01  0.85901840333E-01  0.51100000000E-03 0.  1.
         11    1    4    4    0    0  0.45062501431E-01  0.10994612240E-01  0.49255658917E-02  0.46647967307E-01  0.51100000000E-03 0. -1.
</event>
<event>
 8    1  0.1132255E+005  0.1043930E+01  0.7957747E-01            NaN
         13   -1    0    0    0    0  0.00000000000E+00  0.00000000000E+00  0.74505805969E-08  0.10566000000E+00  0.10566000000E+00 0. -1.
     999900   -1    0    0    0    0 -0.00000000000E+00 -0.00000000000E+00 -0.74505805969E-08  0.93827000000E+00  0.93827000000E+00 0.  1.
     999902    2    1    2    0    0 -0.14891831866E-01  0.12973594245E-01  0.12452615552E-01  0.10205815860E+01  0.10203144737E+01 0.  0.
     999903    2    3    3    0    0  0.10250245875E+00 -0.16322595028E-01 -0.72383821149E-01  0.12826050745E+00  0.20932248993E-01 0.  0.
         14    1    1    2    0    0  0.14891831866E-01 -0.12973594245E-01 -0.12452615552E-01  0.23348414037E-01  0.00000000000E+00 0.  1.
     999901    1    3    3    0    0 -0.11739429062E+00  0.29296189272E-01  0.84836436701E-01  0.89232107852E+00  0.88000000000E+00 0. -1.
        -11    1    4    4    0    0  0.79313026295E-01 -0.35534822335E-02 -0.55107307532E-01  0.96645019740E-01  0.51100000000E-03 0. -1.
         11    1    4    4    0    0  0.23189432454E-01 -0.12769112794E-01 -0.17276513617E-01  0.31615487706E-01  0.51100000000E-03 0.  1.
</event>
<event>
 8    1  0.1132255E+005  0.1043930E+01  0.7957747E-01            NaN
         13   -1    0    0    0    0  0.00000000000E+00  0.00000000000E+00  0.74505805969E-08  0.10566000000E+00  0.10566000000E+00 0. -1.
     999900   -1    0    0    0    0 -0.00000000000E+00 -0.00000000000E+00 -0.74505805969E-08  0.93827000000E+00  0.93827000000E+00 0.  1.
     999902    2    1    2    0    0 -0.16854688924E-01 -0.16047519817E-01  0.84451484772E-02  0.10191726988E+01  0.10188719576E+01 0.  0.
     999903    2    3    3    0    0 -0.62899562512E-01  0.32275336609E-01  0.10837965947E+00  0.13100484565E+00  0.20446678956E-01 0.  0.
         14    1    1    2    0    0  0.16854688924E-01  0.16047519817E-01 -0.84451484772E-02  0.24757301222E-01  0.00000000000E+00 0.  1.
     999901    1    3    3    0    0  0.46044873588E-01 -0.48322856425E-01 -0.99934510993E-01  0.88816785312E+00  0.88000000000E+00 0.  1.
        -11    1    4    4    0    0 -0.30373092507E-01  0.19331000062E-01  0.37718485549E-01  0.52145542331E-01  0.51100000000E-03 0. -1.
         11    1    4    4    0    0 -0.32526470005E-01  0.12944336547E-01  0.70661173921E-01  0.78859303323E-01  0.51100000000E-03 0.  1.
</event>
<event>
 8    1  0.1132255E+005  0.1043930E+01  0.7957747E-01            NaN
         13   -1    0    0    0    0  0.00000000000E+00  0.00000000000E+00  0.74505805969E-08  0.10566000000E+00  0.10566000000E+00 0.  1.
     999900   -1    0    0    0    0 -0.00000000000E+00 -0.00000000000E+00 -0.74505805969E-08  0.93827000000E+00  0.93827000000E+00 0.  1.
     999902    2    1    2    0    0  0.20815918442E-01 -0.78535343240E-02  0.86296629904E-02  0.10200668161E+01  0.10197876533E+01 0.  0.
     999903    2    3    3    0    0  0.53072600358E-01 -0.41346019318E-02  0.11964174778E+00  0.13249822329E+00  0.20194938050E-01 0.  0.
         14    1    1    2    0    0 -0.20815918442E-01  0.78535343240E-02 -0.86296629904E-02  0.23863183889E-01  0.00000000000E+00 0. -1.
     999901    1    3    3    0    0 -0.32256681916E-01 -0.37189323922E-02 -0.11101208479E+00  0.88756859282E+00  0.88000000000E+00 0.  1.
        -11    1    4    4    0    0  0.24064249045E-01  0.39423929947E-02  0.73107712324E-01  0.77068990307E-01  0.51100000000E-03 0.  1.
         11    1    4    4    0    0  0.29008351314E-01 -0.80769949265E-02  0.46534035454E-01  0.55429232988E-01  0.51100000000E-03 0. -1.
</event>
<event>
 8    1  0.1132255E+005  0.1043930E+01  0.7957747E-01            NaN
         13   -1    0    0    0    0  0.00000000000E+00  0.00000000000E+00  0.74505805969E-08  0.10566000000E+00  0.10566000000E+00 0.  1.
     999900   -1    0    0    0    0 -0.00000000000E+00 -0.00000000000E+00 -0.74505805969E-08  0.93827000000E+00  0.93827000000E+00 0.  1.
     999902    2    1    2    0    0  0.40980976147E-02 -0.57980686845E-02  0.20904999747E-01  0.10218521600E+01  0.10216136285E+01 0.  0.
     999903    2    3    3    0    0 -0.10795715099E-01  0.54820282551E-01  0.11989528488E+00  0.13410473719E+00  0.22076919112E-01 0.  0.
         14    1    1    2    0    0 -0.40980976147E-02  0.57980686845E-02 -0.20904999747E-01  0.22077839997E-01  0.00000000000E+00 0. -1.
     999901    1    3    3    0    0  0.14893812714E-01 -0.60618351236E-01 -0.98990285129E-01  0.88774742281E+00  0.88000000000E+00 0.  1.
        -11    1    4    4    0    0 -0.16842750672E-02  0.13764635387E-01  0.12158146593E-01  0.18449488324E-01  0.51100000000E-03 0.  1.
         11    1    4    4    0    0 -0.91114400321E-02  0.41055647164E-01  0.10773713828E+00  0.11565524886E+00  0.51100000000E-03 0. -1.
</event>
<event>
 8    1  0.1132255E+005  0.1043930E+01  0.7957747E-01            NaN
         13   -1    0    0    0    0  0.00000000000E+00  0.00000000000E+00  0.74505805969E-08  0.10566000000E+00  0.10566000000E+00 0.  1.
     999900   -1    0    0    0    0 -0.00000000000E+00 -0.00000000000E+00 -0.74505805969E-08  0.93827000000E+00  0.93827000000E+00 0. -1.
     999902    2    1    2    0    0 -0.10675734713E-01  0.98651260124E-02 -0.19141085238E-01  0.10198951676E+01  0.10196119261E+01 0.  0.
     999903    2    3    3    0    0 -0.84844924288E-01  0.99669792999E-01  0.11496185610E-01  0.13169215634E+00  0.88279638087E-02 0.  0.
         14    1    1    2    0    0  0.10675734713E-01 -0.98651260124E-02  0.19141085238E-01  0.24034832369E-01  0.00000000000E+00 0.  1.
     999901    1    3    3    0    0  0.74169189575E-01 -0.89804666987E-01 -0.30637270848E-01  0.88820301129E+00  0.88000000000E+00 0.  1.
        -11    1    4    4    0    0 -0.75796949242E-01  0.84597873785E-01  0.92809064226E-02  0.11396654820E+00  0.51100000000E-03 0. -1.
         11    1    4    4    0    0 -0.90479750456E-02  0.15071919215E-01  0.22152791878E-02  0.17725608145E-01  0.51100000000E-03 0.  1.
</event>
<event>
 8    1  0.1132255E+005  0.1043930E+01  0.7957747E-01            NaN
         13   -1    0    0    0    0  0.00000000000E+00  0.00000000000E+00  0.74505805969E-08  0.10566000000E+00  0.10566000000E+00 0. -1.
     999900   -1    0    0    0    0 -0.00000000000E+00 -0.00000000000E+00 -0.74505805969E-08  0.93827000000E+00  0.93827000000E+00 0. -1.
     999902    2    1    2    0    0 -0.15334824410E-02  0.14982684324E-01  0.18192489188E-01  0.10203122300E+01  0.10200388461E+01 0.  0.
     999903    2    3    3    0    0 -0.72425922911E-01 -0.71426352052E-02  0.10891017728E+00  0.13253693926E+00  0.20201039696E-01 0.  0.
         14    1    1    2    0    0  0.15334824410E-02 -0.14982684324E-01 -0.18192489188E-01  0.23617770022E-01  0.00000000000E+00 0.  1.
     999901    1    3    3    0    0  0.70892440470E-01  0.22125319529E-01 -0.90717688095E-01  0.88777529072E+00  0.88000000000E+00 0. -1.
        -11    1    4    4    0    0 -0.24180713825E-01  0.49888026991E-03  0.21317185008E-01  0.32243438096E-01  0.51100000000E-03 0.  1.
         11    1    4    4    0    0 -0.48245209086E-01 -0.76415154751E-02  0.87592992275E-01  0.10029350116E+00  0.51100000000E-03 0. -1.
</event>
<event>
 8    1  0.1132255E+005  0.1043930E+01  0.7957747E-01            NaN
         13   -1    0    0    0    0  0.00000000000E+00  0.00000000000E+00  0.74505805969E-08  0.10566000000E+00  0.10566000000E+00 0. -1.
     999900   -1    0    0    0    0 -0.00000000000E+00 -0.00000000000E+00 -0.74505805969E-08  0.93827000000E+00  0.93827000000E+00 0. -1.
     999902    2    1    2    0    0 -0.21711759864E-01 -0.19677185522E-02  0.57961414482E-02  0.10213719042E+01  0.10211227639E+01 0.  0.
     999903    2    3    3    0    0 -0.12420051011E+00  0.34706857489E-01 -0.30596363915E-01  0.13391859107E+00  0.19175997506E-01 0.  0.
         14    1    1    2    0    0  0.21711759864E-01  0.19677185522E-02 -0.57961414482E-02  0.22558095850E-01  0.00000000000E+00 0. -1.
     999901    1    3    3    0    0  0.10248875025E+00 -0.36674576041E-01  0.36392505363E-01  0.88745331308E+00  0.88000000000E+00 0. -1.
        -11    1    4    4    0    0 -0.10532849267E+00  0.23656932922E-01 -0.29961708910E-01  0.11203440081E+00  0.51100000000E-03 0.  1.
         11    1    4    4    0    0 -0.18872017444E-01  0.11049924567E-01 -0.63465500480E-03  0.21884190260E-01  0.51100000000E-03 0. -1.
</event>
<event>
 8    1  0.1132255E+005  0.1043930E+01  0.7957747E-01            NaN
         13   -1    0    0    0    0  0.00000000000E+00  0.00000000000E+00  0.74505805969E-08  0.10566000000E+00  0.10566000000E+00 0.  1.
     999900   -1    0    0    0    0 -0.00000000000E+00 -0.00000000000E+00 -0.74505805969E-08  0.93827000000E+00  0.93827000000E+00 0. -1.
     999902    2    1    2    0    0 -0.38141628803E-02  0.22715931351E-01 -0.80131160486E-03  0.10208821481E+01  0.10206219461E+01 0.  0.
     999903    2    3    3    0    0 -0.10360876340E-01 -0.51123624702E-01  0.11724813625E+00  0.12991031264E+00  0.20213636886E-01 0.  0.
         14    1    1    2    0    0  0.38141628803E-02 -0.22715931351E-01  0.80131160486E-03  0.23047851871E-01  0.00000000000E+00 0. -1.
     999901    1    3    3    0    0  0.65467134593E-02  0.73839556053E-01 -0.11804944785E+00  0.89097183549E+00  0.88000000000E+00 0. -1.
        -11    1    4    4    0    0  0.33271944195E-02 -0.35826429545E-02  0.22409726634E-01  0.22942591877E-01  0.51100000000E-03 0.  1.
         11    1    4    4    0    0 -0.13688070759E-01 -0.47540981748E-01  0.94838409611E-01  0.10696772076E+00  0.51100000000E-03 0. -1.
</event>
<event>
 8    1  0.1132255E+005  0.1043930E+01  0.7957747E-01            NaN
         13   -1    0    0    0    0  0.00000000000E+00  0.00000000000E+00  0.74505805969E-08  0.10566000000E+00  0.10566000000E+00 0.  1.
     999900   -1    0    0    0    0 -0.00000000000E+00 -0.00000000000E+00 -0.74505805969E-08  0.93827000000E+00  0.93827000000E+00 0.  1.
     999902    2    1    2    0    0  0.32363986620E-02  0.20571402206E-01  0.10710599103E-01  0.10205126176E+01  0.10202439066E+01 0.  0.
     999903    2    3    3    0    0  0.58281701622E-01  0.22404558325E-01 -0.11257172587E+00  0.13021386017E+00  0.19609562397E-01 0.  0.
         14    1    1    2    0    0 -0.32363986620E-02 -0.20571402206E-01 -0.10710599103E-01  0.23417382393E-01  0.00000000000E+00 0. -1.
     999901    1    3    3    0    0 -0.55045302960E-01 -0.18331561197E-02  0.12328232497E+00  0.89029875744E+00  0.88000000000E+00 0. -1.
        -11    1    4    4    0    0  0.34575860333E-01  0.21908191902E-01 -0.61157329758E-01  0.73593064173E-01  0.51100000000E-03 0.  1.
         11    1    4    4    0    0  0.23705841289E-01  0.49636642302E-03 -0.51414396113E-01  0.56620795999E-01  0.51100000000E-03 0. -1.
</event>
<event>
 8    1  0.1132255E+005  0.1043930E+01  0.7957747E-01            NaN
         13   -1    0    0    0    0  0.00000000000E+00  0.00000000000E+00  0.74505805969E-08  0.10566000000E+00  0.10566000000E+00 0.  1.
     999900   -1    0    0    0    0 -0.00000000000E+00 -0.00000000000E+00 -0.74505805969E-08  0.93827000000E+00  0.93827000000E+00 0.  1.
     999902    2    1    2    0    0 -0.35110910798E-02 -0.21331511298E-01  0.77720748484E-02  0.10209568356E+01  0.10206983364E+01 0.  0.
     999903    2    3    3    0    0  0.31623296968E-01 -0.72818104231E-01  0.10523677230E+00  0.13338449392E+00  0.20350325805E-01 0.  0.
         14    1    1    2    0    0  0.35110910798E-02  0.21331511298E-01 -0.77720748484E-02  0.22973164394E-01  0.00000000000E+00 0.  1.
     999901    1    3    3    0    0 -0.35134388048E-01  0.51486592932E-01 -0.97464697448E-01  0.88757234168E+00  0.88000000000E+00 0.  1.
        -11    1    4    4    0    0  0.30167678469E-01 -0.74032918729E-01  0.10334754675E+00  0.13065962811E+00  0.51100000000E-03 0. -1.
         11    1    4    4    0    0  0.14556184991E-02  0.12148144984E-02  0.18892255501E-02  0.27248658058E-02  0.51100000000E-03 0.  1.
</event>
<event>
 8    1  0.1132255E+005  0.1043930E+01  0.7957747E-01            NaN
         13   -1    0    0    0    0  0.00000000000E+00  0.00000000000E+00  0.74505805969E-08  0.10566000000E+00  0.10566000000E+00 0.  1.
     999900   -1    0    0    0    0 -0.00000000000E+00 -0.00000000000E+00 -0.74505805969E-08  0.93827000000E+00  0.93827000000E+00 0. -1.
     999902    2    1    2    0    0  0.19423313839E-01  0.10055848600E-01 -0.98171901936E-02  0.10199557965E+01  0.10196739990E+01 0.  0.
     999903    2    3    3    0    0 -0.64858549777E-02 -0.84438546288E-01  0.94481136200E-01  0.12839614250E+00  0.19671042117E-01 0.  0.
         14    1    1    2    0    0 -0.19423313839E-01 -0.10055848600E-01  0.98171901936E-02  0.23974203529E-01  0.00000000000E+00 0. -1.
     999901    1    3    3    0    0  0.25909168817E-01  0.94494394888E-01 -0.10429832639E+00  0.89155965397E+00  0.88000000000E+00 0. -1.
        -11    1    4    4    0    0 -0.12032105133E-01 -0.32930541060E-01  0.35621799572E-01  0.49983655471E-01  0.51100000000E-03 0.  1.
         11    1    4    4    0    0  0.55462501551E-02 -0.51508005228E-01  0.58859336629E-01  0.78412487033E-01  0.51100000000E-03 0. -1.
</event>
<event>
 8    1  0.1132255E+005  0.1043930E+01  0.7957747E-01            NaN
         13   -1    0    0    0    0  0.00000000000E+00  0.00000000000E+00  0.74505805969E-08  0.10566000000E+00  0.10566000000E+00 0.  1.
     999900   -1    0    0    0    0 -0.00000000000E+00 -0.00000000000E+00 -0.74505805969E-08  0.93827000000E+00  0.93827000000E+00 0. -1.
     999902    2    1    2    0    0 -0.21483028004E-01 -0.77229802525E-02 -0.59025974840E-02  0.10203502296E+01  0.10200777350E+01 0.  0.
     999903    2    3    3    0    0 -0.46407647756E-01 -0.53893332409E-01 -0.11016538258E+00  0.13264325853E+00  0.19991534834E-01 0.  0.
         14    1    1    2    0    0  0.21483028004E-01  0.77229802525E-02  0.59025974840E-02  0.23579770424E-01  0.00000000000E+00 0.  1.
     999901    1    3    3    0    0  0.24924619752E-01  0.46170352157E-01  0.10426278510E+00  0.88770697105E+00  0.88000000000E+00 0.  1.
        -11    1    4    4    0    0 -0.65938422088E-02 -0.21185509337E-01 -0.37192306079E-01  0.43310891395E-01  0.51100000000E-03 0. -1.
         11    1    4    4    0    0 -0.39813805547E-01 -0.32707823072E-01 -0.72973076505E-01  0.89332367135E-01  0.51100000000E-03 0.  1.
</event>
<event>
 8    1  0.1132255E+005  0.1043930E+01  0.7957747E-01            NaN
         13   -1    0    0    0    0  0.00000000000E+00  0.00000000000E+00  0.74505805969E-08  0.10566000000E+00  0.10566000000E+00 0. -1.
     999900   -1    0    0    0    0 -0.00000000000E+00 -0.00000000000E+00 -0.74505805969E-08  0.93827000000E+00  0.93827000000E+00 0. -1.
     999902    2    1    2    0    0 -0.98872941824E-02 -0.20326796496E-01 -0.72129385882E-02  0.10202031434E+01  0.10199271984E+01 0.  0.
     999903    2    3    3    0    0 -0.96034675329E-01  0.56852846747E-01  0.62931033003E-01  0.12986711392E+00  0.21219031864E-01 0.  0.
         14    1    1    2    0    0  0.98872941824E-02  0.20326796496E-01  0.72129385882E-02  0.23726856621E-01  0.00000000000E+00 0. -1.
     999901    1    3    3    0    0  0.86147381147E-01 -0.77179643243E-01 -0.70143971591E-01  0.89033602946E+00  0.88000000000E+00 0. -1.
        -11    1    4    4    0    0 -0.48121489616E-01  0.16265138987E-01  0.27445917120E-01  0.57738825730E-01  0.51100000000E-03 0. -1.
         11    1    4    4    0    0 -0.47913185713E-01  0.40587707760E-01  0.35485115884E-01  0.72128288186E-01  0.51100000000E-03 0.  1.
</event>
<event>
 8    1  0.1132255E+005  0.1043930E+01  0.7957747E-01            NaN
         13   -1    0    0    0    0  0.00000000000E+00  0.00000000000E+00  0.74505805969E-08  0.10566000000E+00  0.10566000000E+00 0.  1.
     999900   -1    0    0    0    0 -0.00000000000E+00 -0.00000000000E+00 -0.74505805969E-08  0.93827000000E+00  0.93827000000E+00 0. -1.
     999902    2    1    2    0    0  0.71561243259E-02 -0.20750875093E-01  0.81497508739E-02  0.10205157443E+01  0.10202471058E+01 0.  0.
     999903    2    3    3    0    0  0.49173778629E-01 -0.10183410627E+00 -0.66161558481E-01  0.13267446095E+00  0.20902513313E-01 0.  0.
         14    1    1    2    0    0 -0.71561243259E-02  0.20750875093E-01 -0.81497508739E-02  0.23414255738E-01  0.00000000000E+00 0. -1.
     999901    1    3    3    0    0 -0.42017654303E-01  0.81083231182E-01  0.74311309355E-01  0.88784128331E+00  0.88000000000E+00 0.  1.
        -11    1    4    4    0    0  0.29235228921E-01 -0.40217877468E-01 -0.34979702864E-01  0.60794876523E-01  0.51100000000E-03 0.  1.
         11    1    4    4    0    0  0.19938549708E-01 -0.61616228807E-01 -0.31181855617E-01  0.71879584428E-01  0.51100000000E-03 0. -1.
</event>
<event>
 8    1  0.1132255E+005  0.1043930E+01  0.7957747E-01            NaN
         13   -1    0    0    0    0  0.00000000000E+00  0.00000000000E+00  0.74505805969E-08  0.10566000000E+00  0.10566000000E+00 0. -1.
     999900   -1    0    0    0    0 -0.00000000000E+00 -0.00000000000E+00 -0.74505805969E-08  0.93827000000E+00  0.93827000000E+00 0. -1.
     999902    2    1    2    0    0  0.20695570245E-01 -0.10678450698E-01 -0.29036566493E-02  0.10204615710E+01  0.10201916735E+01 0.  0.
     999903    2    3    3    0    0 -0.11689617086E+00  0.11545089451E-01  0.47471124201E-01  0.12806984565E+00  0.18718276644E-01 0.  0.
         14    1    1    2    0    0 -0.20695570245E-01  0.10678450698E-01  0.29036566493E-02  0.23468428985E-01  0.00000000000E+00 0. -1.
     999901    1    3    3    0    0  0.13759174110E+00 -0.22223540149E-01 -0.50374780850E-01  0.89239172537E+00  0.88000000000E+00 0.  1.
        -11    1    4    4    0    0 -0.84297479652E-01  0.16640079811E-01  0.35420063799E-01  0.92939762063E-01  0.51100000000E-03 0.  1.
         11    1    4    4    0    0 -0.32598691204E-01 -0.50949903598E-02  0.12051060402E-01  0.35130083586E-01  0.51100000000E-03 0. -1.
</event>
<event>
 8    1  0.1132255E+005  0.1043930E+01  0.7957747E-01            NaN
         13   -1    0    0    0    0  0.00000000000E+00  0.00000000000E+00  0.74505805969E-08  0.10566000000E+00  0.10566000000E+00 0.  1.
     999900   -1    0    0    0    0 -0.00000000000E+00 -0.00000000000E+00 -0.74505805969E-08  0.93827000000E+00  0.93827000000E+00 0. -1.
     999902    2    1    2    0    0  0.10681903116E-01 -0.20849020411E-01  0.38623887535E-02  0.10201875748E+01  0.10199112633E+01 0.  0.
     999903    2    3    3    0    0  0.82055804569E-01 -0.75252229911E-01  0.70269081905E-01  0.13313414244E+00  0.19771263021E-01 0.  0.
         14    1    1    2    0    0 -0.10681903116E-01  0.20849020411E-01 -0.38623887535E-02  0.23742425174E-01  0.00000000000E+00 0. -1.
     999901    1    3    3    0    0 -0.71373901453E-01  0.54403209500E-01 -0.66406693151E-01  0.88705343239E+00  0.88000000000E+00 0. -1.
        -11    1    4    4    0    0  0.70144339635E-01 -0.56707839282E-01  0.49723808444E-01  0.10299866827E+00  0.51100000000E-03 0.  1.
         11    1    4    4    0    0  0.11911464934E-01 -0.18544390628E-01  0.20545273461E-01  0.30135474166E-01  0.51100000000E-03 0. -1.
</event>
<event>
 8    1  0.1132255E+005  0.1043930E+01  0.7957747E-01            NaN
         13   -1    0    0    0    0  0.00000000000E+00  0.00000000000E+00  0.74505805969E-08  0.10566000000E+00  0.10566000000E+00 0. -1.
     999900   -1    0    0    0    0 -0.00000000000E+00 -0.00000000000E+00 -0.74505805969E-08  0.93827000000E+00  0.93827000000E+00 0. -1.
     999902    2    1    2    0    0 -0.20112400875E-01  0.60073614278E-02 -0.10281675912E-01  0.10205567264E+01  0.10202890384E+01 0.  0.
     999903    2    3    3    0    0 -0.52899210953E-01  0.11731040767E+00  0.23493972992E-01  0.13229767775E+00  0.19764880543E-01 0.  0.
         14    1    1    2    0    0  0.20112400875E-01 -0.60073614278E-02  0.10281675912E-01  0.23373273623E-01  0.00000000000E+00 0. -1.
     999901    1    3    3    0    0  0.32786810078E-01 -0.11130304624E+00 -0.33775648904E-01  0.88825904863E+00  0.88000000000E+00 0. -1.
        -11    1    4    4    0    0 -0.21343838206E-03  0.15932126570E-01  0.30244225680E-02  0.16226104457E-01  0.51100000000E-03 0. -1.
         11    1    4    4    0    0 -0.52685772571E-01  0.10137828110E+00  0.20469550424E-01  0.11607157329E+00  0.51100000000E-03 0.  1.
</event>
<event>
 8    1  0.1132255E+005  0.1043930E+01  0.7957747E-01            NaN
         13   -1    0    0    0    0  0.00000000000E+00  0.00000000000E+00  0.74505805969E-08  0.10566000000E+00  0.10566000000E+00 0. -1.
     999900   -1    0    0    0    0 -0.00000000000E+00 -0.00000000000E+00 -0.74505805969E-08  0.93827000000E+00  0.93827000000E+00 0.  1.
     999902    2    1    2    0    0  0.23323019453E-01 -0.96294114358E-03 -0.13828002856E-02  0.10205461887E+01  0.10202782565E+01 0.  0.
     999903    2    3    3    0    0  0.11866007912E+00 -0.52372266206E-01  0.24855296988E-01  0.13351715236E+00  0.19646260214E-01 0.  0.
         14    1    1    2    0    0 -0.23323019453E-01  0.96294114358E-03  0.13828002856E-02  0.23383811252E-01  0.00000000000E+00 0.  1.
     999901    1    3    3    0    0 -0.95337059670E-01  0.51409325062E-01 -0.26238097273E-01  0.88702903639E+00  0.88000000000E+00 0.  1.
        -11    1    4    4    0    0  0.63604840795E-01 -0.24525510758E-01  0.36254508045E-02  0.68267719056E-01  0.51100000000E-03 0. -1.
         11    1    4    4    0    0  0.55055238328E-01 -0.27846755448E-01  0.21229846183E-01  0.65249433302E-01  0.51100000000E-03 0.  1.
</event>
<event>
 8    1  0.1132255E+005  0.1043930E+01  0.7957747E-01            NaN
         13   -1    0    0    0    0  0.00000000000E+00  0.00000000000E+00  0.74505805969E-08  0.10566000000E+00  0.10566000000E+00 0.  1.
     999900   -1    0    0    0    0 -0.00000000000E+00 -0.00000000000E+00 -0.74505805969E-08  0.93827000000E+00  0.93827000000E+00 0.  1.
     999902    2    1    2    0    0  0.20728694594E-01 -0.77745147777E-02 -0.13678999780E-01  0.10179062244E+01  0.10175735083E+01 0.  0.
     999903    2    3    3    0    0 -0.19002811814E-01  0.19269742581E-01 -0.12568285350E+00  0.12950606251E+00  0.15595214858E-01 0.  0.
         14    1    1    2    0    0 -0.20728694594E-01  0.77745147777E-02  0.13678999780E-01  0.26023775563E-01  0.00000000000E+00 0.  1.
     999901    1    3    3    0    0  0.39731506407E-01 -0.27044257359E-01  0.11200385373E+00  0.88840016192E+00  0.88000000000E+00 0. -1.
        -11    1    4    4    0    0 -0.18983486869E-01  0.91245306482E-02 -0.86196242960E-01  0.88733777417E-01  0.51100000000E-03 0. -1.
         11    1    4    4    0    0 -0.19324944843E-04  0.10145211933E-01 -0.39486610545E-01  0.40772285096E-01  0.51100000000E-03 0.  1.
</event>
<event>
 8    1  0.1132255E+005  0.1043930E+01  0.7957747E-01            NaN
         13   -1    0    0    0    0  0.00000000000E+00  0.00000000000E+00  0.74505805969E-08  0.10566000000E+00  0.10566000000E+00 0.  1.
     999900   -1    0    0    0    0 -0.00000000000E+00 -0.00000000000E+00 -0.74505805969E-08  0.93827000000E+00  0.93827000000E+00 0. -1.
     999902    2    1    2    0    0  0.34500244219E-02 -0.11628206117E-01  0.23441874586E-01  0.10175360740E+01  0.10171936996E+01 0.  0.
     999903    2    3    3    0    0 -0.10801582051E+00 -0.66484412510E-01  0.80552955905E-02  0.12867692611E+00  0.20131292529E-01 0.  0.
         14    1    1    2    0    0 -0.34500244219E-02  0.11628206117E-01 -0.23441874586E-01  0.26393926008E-01  0.00000000000E+00 0. -1.
     999901    1    3    3    0    0  0.11146584493E+00  0.54856206393E-01  0.15386578996E-01  0.88885914788E+00  0.88000000000E+00 0.  1.
        -11    1    4    4    0    0 -0.40871702272E-01 -0.14161486611E-01  0.11807764906E-02  0.43274693572E-01  0.51100000000E-03 0.  1.
         11    1    4    4    0    0 -0.67144118234E-01 -0.52322925899E-01  0.68745190999E-02  0.85402232535E-01  0.51100000000E-03 0. -1.
</event>
<event>
 8    1  0.1132255E+005  0.1043930E+01  0.7957747E-01            NaN
         13   -1    0    0    0    0  0.00000000000E+00  0.00000000000E+00  0.74505805969E-08  0.10566000000E+00  0.10566000000E+00 0.  1.
     999900   -1    0    0    0    0 -0.00000000000E+00 -0.00000000000E+00 -0.74505805969E-08  0.93827000000E+00  0.93827000000E+00 0. -1.
     999902    2    1    2    0    0 -0.86199596023E-02 -0.16702782125E-01  0.14689845967E-01  0.10200746398E+01  0.10197956622E+01 0.  0.
     999903    2    3    3    0    0  0.33710624469E-01 -0.12574659443E+00  0.12853637704E-01  0.13233267112E+00  0.19952634666E-01 0.  0.
         14    1    1    2    0    0  0.86199596023E-02  0.16702782125E-01 -0.14689845967E-01  0.23855360169E-01  0.00000000000E+00 0.  1.
     999901    1    3    3    0    0 -0.42330584071E-01  0.10904381231E+00  0.18362082634E-02  0.88774196871E+00  0.88000000000E+00 0.  1.
        -11    1    4    4    0    0  0.28696912314E-01 -0.10754462471E+00  0.18006172159E-01  0.11275567585E+00  0.51100000000E-03 0. -1.
         11    1    4    4    0    0  0.50137121544E-02 -0.18201969722E-01 -0.51525344554E-02  0.19576995266E-01  0.51100000000E-03 0.  1.
</event>
<event>
 8    1  0.1132255E+005  0.1043930E+01  0.7957747E-01            NaN
         13   -1    0    0    0    0  0.00000000000E+00  0.00000000000E+00  0.74505805969E-08  0.10566000000E+00  0.10566000000E+00 0. -1.
     999900   -1    0    0    0    0 -0.00000000000E+00 -0.00000000000E+00 -0.74505805969E-08  0.93827000000E+00  0.93827000000E+00 0. -1.
     999902    2    1    2    0    0 -0.33940536569E-02 -0.41036871602E-02 -0.22960851044E-01  0.10203596685E+01  0.10200873945E+01 0.  0.
     999903    2    3    3    0    0 -0.70920878423E-01  0.87438192849E-02  0.10492688980E+00  0.12846269865E+00  0.19666910510E-01 0.  0.
         14    1    1    2    0    0  0.33940536569E-02  0.41036871602E-02  0.22960851044E-01  0.23570331547E-01  0.00000000000E+00 0. -1.
     999901    1    3    3    0    0  0.67526824766E-01 -0.12847506445E-01 -0.12788774085E+00  0.89189696980E+00  0.88000000000E+00 0. -1.
        -11    1    4    4    0    0 -0.44018268407E-01 -0.22400892577E-02  0.73114680984E-01  0.85373553574E-01  0.51100000000E-03 0. -1.
         11    1    4    4    0    0 -0.26902610016E-01  0.10983908543E-01  0.31812208819E-01  0.43089145077E-01  0.51100000000E-03 0.  1.
</event>
<event>
 8    1  0.1132255E+005  0.1043930E+01  0.7957747E-01            NaN
         13   -1    0    0    0    0  0.00000000000E+00  0.00000000000E+00  0.74505805969E-08  0.10566000000E+00  0.10566000000E+00 0.  1.
     999900   -1    0    0    0    0 -0.00000000000E+00 -0.00000000000E+00 -0.74505805969E-08  0.93827000000E+00  0.93827000000E+00 0.  1.
     999902    2    1    2    0    0 -0.22871328273E-01 -0.13572049342E-02 -0.43457207448E-02  0.10206099453E+01  0.10203434890E+01 0.  0.
     999903    2    3    3    0    0 -0.57367316269E-01  0.41195312939E-01  0.10910380144E+00  0.13163779498E+00  0.20899923355E-01 0.  0.
         14    1    1    2    0    0  0.22871328273E-01  0.13572049342E-02  0.43457207448E-02  0.23320054695E-01  0.00000000000E+00 0.  1.
     999901    1    3    3    0    0  0.34495987996E-01 -0.42552517873E-01 -0.11344952218E+00  0.88897215032E+00  0.88000000000E+00 0.  1.
        -11    1    4    4    0    0 -0.37808535094E-01  0.38334937835E-01  0.77976624336E-01  0.94761109368E-01  0.51100000000E-03 0.  1.
         11    1    4    4    0    0 -0.19558781175E-01  0.28603751040E-02  0.31127177099E-01  0.36876685615E-01  0.51100000000E-03 0. -1.
</event>
<event>
 8    1  0.1132255E+005  0.1043930E+01  0.7957747E-01            NaN
         13   -1    0    0    0    0  0.00000000000E+00  0.00000000000E+00  0.74505805969E-08  0.10566000000E+00  0.10566000000E+00 0.  1.
     999900   -1    0    0    0    0 -0.00000000000E+00 -0.00000000000E+00 -0.74505805969E-08  0.93827000000E+00  0.93827000000E+00 0.  1.
     999902    2    1    2    0    0 -0.70444354807E-02 -0.17133994861E-01 -0.16211477973E-01  0.10193127323E+01  0.10190154250E+01 0.  0.
     999903    2    3    3    0    0  0.50549119195E-01 -0.33740770537E-01 -0.11517660540E+00  0.13173913029E+00  0.19897109570E-01 0.  0.
         14    1    1    2    0    0  0.70444354807E-02  0.17133994861E-01  0.16211477973E-01  0.24617267704E-01  0.00000000000E+00 0.  1.
     999901    1    3    3    0    0 -0.57593554676E-01  0.16606775676E-01  0.98965127426E-01  0.88757360201E+00  0.88000000000E+00 0. -1.
        -11    1    4    4    0    0  0.87355817869E-02 -0.16478020748E-01 -0.36096100915E-01  0.40632809147E-01  0.51100000000E-03 0.  1.
         11    1    4    4    0    0  0.41813537409E-01 -0.17262749790E-01 -0.79080504484E-01  0.91106321139E-01  0.51100000000E-03 0. -1.
</event>
<event>
 8    1  0.1132255E+005  0.1043930E+01  0.7957747E-01            NaN
         13   -1    0    0    0    0  0.00000000000E+00  0.00000000000E+00  0.74505805969E-08  0.10566000000E+00  0.10566000000E+00 0.  1.
     999900   -1    0    0    0    0 -0.00000000000E+00 -0.00000000000E+00 -0.74505805969E-08  0.93827000000E+00  0.93827000000E+00 0. -1.
     999902    2    1    2    0    0  0.17406919353E-01  0.10282139587E-01 -0.11985961281E-01  0.10204270958E+01  0.10201563956E+01 0.  0.
     999903    2    3    3    0    0 -0.14695085905E-02  0.13018833150E+00 -0.42532678208E-02  0.13206140035E+00  0.21701660312E-01 0.  0.
         14    1    1    2    0    0 -0.17406919353E-01 -0.10282139587E-01  0.11985961281E-01  0.23502904155E-01  0.00000000000E+00 0.  1.
     999901    1    3    3    0    0  0.18876427944E-01 -0.11990619191E+00 -0.77326934603E-02  0.88836569550E+00  0.88000000000E+00 0.  1.
        -11    1    4    4    0    0 -0.33512477088E-02  0.12732869053E+00 -0.71121445896E-02  0.12757221490E+00  0.51100000000E-03 0. -1.
         11    1    4    4    0    0  0.18817391183E-02  0.28596409701E-02  0.28588767688E-02  0.44891854458E-02  0.51100000000E-03 0.  1.
</event>
<event>
 8    1  0.1132255E+005  0.1043930E+01  0.7957747E-01            NaN
         13   -1    0    0    0    0  0.00000000000E+00  0.00000000000E+00  0.74505805969E-08  0.10566000000E+00  0.10566000000E+00 0.  1.
     999900   -1    0    0    0    0 -0.00000000000E+00 -0.00000000000E+00 -0.74505805969E-08  0.93827000000E+00  0.93827000000E+00 0.  1.
     999902    2    1    2    0    0  0.13916966353E-02 -0.15341095851E-01  0.19215643945E-01  0.10193022308E+01  0.10190046667E+01 0.  0.
     999903    2    3    3    0    0  0.18482624798E-01 -0.12783924738E+00 -0.14300045160E-01  0.13134320288E+00  0.19028007317E-01 0.  0.
         14    1    1    2    0    0 -0.13916966353E-02  0.15341095851E-01 -0.19215643945E-01  0.24627769157E-01  0.00000000000E+00 0. -1.
     999901    1    3    3    0    0 -0.17090928163E-01  0.11249815153E+00  0.33515689104E-01  0.88795902796E+00  0.88000000000E+00 0.  1.
        -11    1    4    4    0    0  0.17274607412E-01 -0.75194081892E-01 -0.15961754415E-02  0.77171049687E-01  0.51100000000E-03 0.  1.
         11    1    4    4    0    0  0.12080173862E-02 -0.52645165485E-01 -0.12703869718E-01  0.54172153195E-01  0.51100000000E-03 0. -1.
</event>
<event>
 8    1  0.1132255E+005  0.1043930E+01  0.7957747E-01            NaN
         13   -1    0    0    0    0  0.00000000000E+00  0.00000000000E+00  0.74505805969E-08  0.10566000000E+00  0.10566000000E+00 0. -1.
     999900   -1    0    0    0    0 -0.00000000000E+00 -0.00000000000E+00 -0.74505805969E-08  0.93827000000E+00  0.93827000000E+00 0. -1.
     999902    2    1    2    0    0  0.24169640057E-01 -0.89506373540E-03 -0.39618828315E-03  0.10197405477E+01  0.10194536061E+01 0.  0.
     999903    2    3    3    0    0 -0.75288982741E-01  0.61264852024E-01 -0.81394121682E-01  0.12827179442E+00  0.20170205352E-01 0.  0.
         14    1    1    2    0    0 -0.24169640057E-01  0.89506373540E-03  0.39618828315E-03  0.24189452345E-01  0.00000000000E+00 0.  1.
     999901    1    3    3    0    0  0.99458622799E-01 -0.62159915760E-01  0.80997933399E-01  0.89146875323E+00  0.88000000000E+00 0.  1.
        -11    1    4    4    0    0 -0.11681749837E-01  0.84647301974E-02 -0.38806018996E-02  0.14947746608E-01  0.51100000000E-03 0.  1.
         11    1    4    4    0    0 -0.63607232905E-01  0.52800121827E-01 -0.77513519783E-01  0.11332404781E+00  0.51100000000E-03 0. -1.
</event>
<event>
 8    1  0.1132255E+005  0.1043930E+01  0.7957747E-01            NaN
         13   -1    0    0    0    0  0.00000000000E+00  0.00000000000E+00  0.74505805969E-08  0.10566000000E+00  0.10566000000E+00 0. -1.
     999900   -1    0    0    0    0 -0.00000000000E+00 -0.00000000000E+00 -0.74505805969E-08  0.93827000000E+00  0.93827000000E+00 0. -1.
     999902    2    1    2    0    0  0.17459734690E-01  0.15271994301E-01  0.69027246291E-02  0.10197282696E+01  0.10194410332E+01 0.  0.
     999903    2    3    3    0    0  0.62957656794E-01 -0.10181633601E+00  0.46533289473E-01  0.12992474094E+00  0.19617809543E-01 0.  0.
         14    1    1    2    0    0 -0.17459734690E-01 -0.15271994301E-01 -0.69027246291E-02  0.24201730366E-01  0.00000000000E+00 0.  1.
     999901    1    3    3    0    0 -0.45497922104E-01  0.11708833031E+00 -0.39630564844E-01  0.88980352870E+00  0.88000000000E+00 0. -1.
        -11    1    4    4    0    0  0.12559265317E-01 -0.37353250934E-01  0.13116383484E-01  0.41536744424E-01  0.51100000000E-03 0. -1.
         11    1    4    4    0    0  0.50398391477E-01 -0.64463085075E-01  0.33416905990E-01  0.88387996514E-01  0.51100000000E-03 0.  1.
</event>
<event>
 8    1  0.1132255E+005  0.1043930E+01  0.7957747E-01            NaN
         13   -1    0    0    0    0  0.00000000000E+00  0.00000000000E+00  0.74505805969E-08  0.10566000000E+00  0.10566000000E+00 0.  1.
     999900   -1    0    0    0    0 -0.00000000000E+00 -0.00000000000E+00 -0.74505805969E-08  0.93827000000E+00  0.93827000000E+00 0. -1.
     999902    2    1    2    0    0 -0.20118830238E-01  0.10963325988E-01  0.73931664467E-02  0.10198546857E+01  0.10195704778E+01 0.  0.
     999903    2    3    3    0    0 -0.12607676887E+00  0.26886202326E-01  0.27102801954E-01  0.13313652731E+00  0.19301645146E-01 0.  0.
         14    1    1    2    0    0  0.20118830238E-01 -0.10963325988E-01 -0.73931664467E-02  0.24075314265E-01  0.00000000000E+00 0.  1.
     999901    1    3    3    0    0  0.10595793863E+00 -0.15922876338E-01 -0.19709635507E-01  0.88671815843E+00  0.88000000000E+00 0.  1.
        -11    1    4    4    0    0 -0.58559034904E-01  0.53596955040E-02  0.55697176342E-02  0.59069194851E-01  0.51100000000E-03 0. -1.
         11    1    4    4    0    0 -0.67517733968E-01  0.21526506822E-01  0.21533084319E-01  0.74067332458E-01  0.51100000000E-03 0.  1.
</event>
<event>
 8    1  0.1132255E+005  0.1043930E+01  0.7957747E-01            NaN
         13   -1    0    0    0    0  0.00000000000E+00  0.00000000000E+00  0.74505805969E-08  0.10566000000E+00  0.10566000000E+00 0.  1.
     999900   -1    0    0    0    0 -0.00000000000E+00 -0.00000000000E+00 -0.74505805969E-08  0.93827000000E+00  0.93827000000E+00 0.  1.
     999902    2    1    2    0    0 -0.14125270394E-01  0.17416966791E-01 -0.85232391595E-02  0.10199400104E+01  0.10196578373E+01 0.  0.
     999903    2    3    3    0    0  0.88254804590E-01  0.58323661018E-01 -0.73859132446E-01  0.13065725651E+00  0.20629766501E-01 0.  0.
         14    1    1    2    0    0  0.14125270394E-01 -0.17416966791E-01  0.85232391595E-02  0.23989989614E-01  0.00000000000E+00 0.  1.
     999901    1    3    3    0    0 -0.10238007498E+00 -0.40906694227E-01  0.65335893287E-01  0.88928275387E+00  0.88000000000E+00 0.  1.
        -11    1    4    4    0    0  0.37950170689E-01  0.28845860441E-01 -0.45175698020E-01  0.65676509747E-01  0.51100000000E-03 0.  1.
         11    1    4    4    0    0  0.50304633901E-01  0.29477800576E-01 -0.28683434427E-01  0.64980746765E-01  0.51100000000E-03 0. -1.
</event>
<event>
 8    1  0.1132255E+005  0.1043930E+01  0.7957747E-01            NaN
         13   -1    0    0    0    0  0.00000000000E+00  0.00000000000E+00  0.74505805969E-08  0.10566000000E+00  0.10566000000E+00 0.  1.
     999900   -1    0    0    0    0 -0.00000000000E+00 -0.00000000000E+00 -0.74505805969E-08  0.93827000000E+00  0.93827000000E+00 0. -1.
     999902    2    1    2    0    0  0.12355263853E-01 -0.21398690945E-02  0.19744825863E-01  0.10205400506E+01  0.10202719761E+01 0.  0.
     999903    2    3    3    0    0 -0.77146380244E-01  0.99800864439E-01  0.24532844348E-01  0.13013262556E+00  0.20514951987E-01 0.  0.
         14    1    1    2    0    0 -0.12355263853E-01  0.21398690945E-02 -0.19744825863E-01  0.23389949401E-01  0.00000000000E+00 0. -1.
     999901    1    3    3    0    0  0.89501644097E-01 -0.10194073353E+00 -0.47880184849E-02  0.89040742504E+00  0.88000000000E+00 0.  1.
        -11    1    4    4    0    0 -0.21348131420E-01  0.34052443259E-01  0.16756792792E-01  0.43547248279E-01  0.51100000000E-03 0. -1.
         11    1    4    4    0    0 -0.55798248824E-01  0.65748421180E-01  0.77760515559E-02  0.86585377278E-01  0.51100000000E-03 0.  1.
</event>
<event>
 8    1  0.1132255E+005  0.1043930E+01  0.7957747E-01            NaN
         13   -1    0    0    0    0  0.00000000000E+00  0.00000000000E+00  0.74505805969E-08  0.10566000000E+00  0.10566000000E+00 0. -1.
     999900   -1    0    0    0    0 -0.00000000000E+00 -0.00000000000E+00 -0.74505805969E-08  0.93827000000E+00  0.93827000000E+00 0. -1.
     999902    2    1    2    0    0 -0.40296651072E-02  0.95890160966E-02 -0.21217034743E-01  0.10203005693E+01  0.10200269123E+01 0.  0.
     999903    2    3    3    0    0  0.10648628831E+00  0.60800933391E-02 -0.74771433480E-01  0.13176572920E+00  0.19878203978E-01 0.  0.
         14    1    1    2    0    0  0.40296651072E-02 -0.95890160966E-02  0.21217034743E-01  0.23629430672E-01  0.00000000000E+00 0. -1.
     999901    1    3    3    0    0 -0.11051595342E+00  0.35089227575E-02  0.53554398736E-01  0.88853484013E+00  0.88000000000E+00 0.  1.
        -11    1    4    4    0    0  0.44118428615E-01 -0.59366665179E-02 -0.36835404473E-01  0.57782245513E-01  0.51100000000E-03 0.  1.
         11    1    4    4    0    0  0.62367859696E-01  0.12016759857E-01 -0.37936029007E-01  0.73983483687E-01  0.51100000000E-03 0. -1.
</event>
<event>
 8    1  0.1132255E+005  0.1043930E+01  0.7957747E-01            NaN
         13   -1    0    0    0    0  0.00000000000E+00  0.00000000000E+00  0.74505805969E-08  0.10566000000E+00  0.10566000000E+00 0. -1.
     999900   -1    0    0    0    0 -0.00000000000E+00 -0.00000000000E+00 -0.74505805969E-08  0.93827000000E+00  0.93827000000E+00 0. -1.
     999902    2    1    2    0    0  0.15904909276E-01  0.10069658295E-01  0.12984017957E-01  0.10210619244E+01  0.10208058114E+01 0.  0.
     999903    2    3    3    0    0 -0.36494306925E-01 -0.27752462926E-01  0.12235745319E+00  0.13193946997E+00  0.18293270631E-01 0.  0.
         14    1    1    2    0    0 -0.15904909276E-01 -0.10069658295E-01 -0.12984017957E-01  0.22868075555E-01  0.00000000000E+00 0. -1.
     999901    1    3    3    0    0  0.52399216201E-01  0.37822121221E-01 -0.10937343523E+00  0.88912245447E+00  0.88000000000E+00 0. -1.
        -11    1    4    4    0    0 -0.25109978560E-01 -0.77328190243E-02  0.68101984229E-01  0.72996225178E-01  0.51100000000E-03 0.  1.
         11    1    4    4    0    0 -0.11384328366E-01 -0.20019643902E-01  0.54255468957E-01  0.58943244795E-01  0.51100000000E-03 0. -1.
</event>
<event>
 8    1  0.1132255E+005  0.1043930E+01  0.7957747E-01            NaN
         13   -1    0    0    0    0  0.00000000000E+00  0.00000000000E+00  0.74505805969E-08  0.10566000000E+00  0.10566000000E+00 0. -1.
     999900   -1    0    0    0    0 -0.00000000000E+00 -0.00000000000E+00 -0.74505805969E-08  0.93827000000E+00  0.93827000000E+00 0.  1.
     999902    2    1    2    0    0  0.20785300332E-01 -0.11213533706E-02  0.12461194831E-02  0.10230772075E+01  0.10228646702E+01 0.  0.
     999903    2    3    3    0    0 -0.65202571372E-01  0.10942539214E+00  0.26878529333E-01  0.13163370534E+00  0.19485514712E-01 0.  0.
         14    1    1    2    0    0 -0.20785300332E-01  0.11213533706E-02 -0.12461194831E-02  0.20852792548E-01  0.00000000000E+00 0.  1.
     999901    1    3    3    0    0  0.85987871704E-01 -0.11054674551E+00 -0.25632409850E-01  0.89144350211E+00  0.88000000000E+00 0.  1.
        -11    1    4    4    0    0 -0.60074146350E-01  0.86204152347E-01  0.21707960768E-01  0.10729191779E+00  0.51100000000E-03 0. -1.
         11    1    4    4    0    0 -0.51284250219E-02  0.23221239795E-01  0.51705685647E-02  0.24341787549E-01  0.51100000000E-03 0.  1.
</event>
<event>
 8    1  0.1132255E+005  0.1043930E+01  0.7957747E-01            NaN
         13   -1    0    0    0    0  0.00000000000E+00  0.00000000000E+00  0.74505805969E-08  0.10566000000E+00  0.10566000000E+00 0.  1.
     999900   -1    0    0    0    0 -0.00000000000E+00 -0.00000000000E+00 -0.74505805969E-08  0.93827000000E+00  0.93827000000E+00 0.  1.
     999902    2    1    2    0    0 -0.11040960485E-01 -0.60882540161E-04  0.21275016702E-01  0.10199605851E+01  0.10196789016E+01 0.  0.
     999903    2    3    3    0    0  0.15754922241E-02  0.55619745080E-01 -0.11343762418E+00  0.12788043019E+00  0.19729967753E-01 0.  0.
         14    1    1    2    0    0  0.11040960485E-01  0.60882540161E-04 -0.21275016702E-01  0.23969414903E-01  0.00000000000E+00 0. -1.
     999901    1    3    3    0    0 -0.12616452709E-01 -0.55680627620E-01  0.13471264088E+00  0.89208015491E+00  0.88000000000E+00 0. -1.
        -11    1    4    4    0    0  0.98309176960E-02  0.40514581826E-01 -0.83914980827E-01  0.93701992569E-01  0.51100000000E-03 0. -1.
         11    1    4    4    0    0 -0.82554254719E-02  0.15105163253E-01 -0.29522643350E-01  0.34178437618E-01  0.51100000000E-03 0.  1.
</event>
<event>
 8    1  0.1132255E+005  0.1043930E+01  0.7957747E-01            NaN
         13   -1    0    0    0    0  0.00000000000E+00  0.00000000000E+00  0.74505805969E-08  0.10566000000E+00  0.10566000000E+00 0. -1.
     999900   -1    0    0    0    0 -0.00000000000E+00 -0.00000000000E+00 -0.74505805969E-08  0.93827000000E+00  0.93827000000E+00 0.  1.
     999902    2    1    2    0    0 -0.19255926296E-01  0.10438110928E-01  0.79262238765E-02  0.10206368705E+01  0.10203710362E+01 0.  0.
     999903    2    3    3    0    0  0.42994215689E-01  0.14041632919E-01 -0.11906741289E+00  0.12933700551E+00  0.22479816379E-01 0.  0.
         14    1    1    2    0    0  0.19255926296E-01 -0.10438110928E-01 -0.79262238765E-02  0.23293129506E-01  0.00000000000E+00 0.  1.
     999901    1    3    3    0    0 -0.62250141984E-01 -0.36035219914E-02  0.12699363676E+00  0.89129986499E+00  0.88000000000E+00 0. -1.
        -11    1    4    4    0    0  0.21040123531E-01  0.11740028363E-01 -0.87880161475E-01  0.91124634244E-01  0.51100000000E-03 0. -1.
         11    1    4    4    0    0  0.21954092157E-01  0.23016045568E-02 -0.31187251411E-01  0.38212371263E-01  0.51100000000E-03 0.  1.
</event>
<event>
 8    1  0.1132255E+005  0.1043930E+01  0.7957747E-01            NaN
         13   -1    0    0    0    0  0.00000000000E+00  0.00000000000E+00  0.74505805969E-08  0.10566000000E+00  0.10566000000E+00 0.  1.
     999900   -1    0    0    0    0 -0.00000000000E+00 -0.00000000000E+00 -0.74505805969E-08  0.93827000000E+00  0.93827000000E+00 0. -1.
     999902    2    1    2    0    0 -0.18455081056E-01  0.13522214022E-01  0.64395594287E-02  0.10201622022E+01  0.10198852928E+01 0.  0.
     999903    2    3    3    0    0 -0.50397198041E-01 -0.65650372710E-02 -0.11868226583E+00  0.13051099654E+00  0.19096143854E-01 0.  0.
         14    1    1    2    0    0  0.18455081056E-01 -0.13522214022E-01 -0.64395594287E-02  0.23767797847E-01  0.00000000000E+00 0.  1.
     999901    1    3    3    0    0  0.31942116985E-01  0.20087251293E-01  0.12512182526E+00  0.88965120562E+00  0.88000000000E+00 0.  1.
        -11    1    4    4    0    0 -0.11382647724E-01 -0.84833825253E-02 -0.43882810943E-01  0.46124772797E-01  0.51100000000E-03 0. -1.
         11    1    4    4    0    0 -0.39014550317E-01  0.19183452543E-02 -0.74799454884E-01  0.84386223739E-01  0.51100000000E-03 0.  1.
</event>
<event>
 8    1  0.1132255E+005  0.1043930E+01  0.7957747E-01            NaN
         13   -1    0    0    0    0  0.00000000000E+00  0.00000000000E+00  0.74505805969E-08  0.10566000000E+00  0.10566000000E+00 0. -1.
     999900   -1    0    0    0    0 -0.00000000000E+00 -0.00000000000E+00 -0.74505805969E-08  0.93827000000E+00  0.93827000000E+00 0. -1.
     999902    2    1    2    0    0  0.20546675640E-01 -0.99290764099E-02  0.65259999916E-02  0.10201951919E+01  0.10199190598E+01 0.  0.
     999903    2    3    3    0    0  0.11707985567E-01  0.73347067333E-01 -0.10412819720E+00  0.12932068342E+00  0.19086343197E-01 0.  0.
         14    1    1    2    0    0 -0.20546675640E-01  0.99290764099E-02 -0.65259999916E-02  0.23734808070E-01  0.00000000000E+00 0.  1.
     999901    1    3    3    0    0  0.88386900735E-02 -0.83276143743E-01  0.11065419719E+00  0.89087450851E+00  0.88000000000E+00 0.  1.
        -11    1    4    4    0    0  0.18644043201E-02  0.53590237356E-01 -0.82618829788E-01  0.98496302976E-01  0.51100000000E-03 0.  1.
         11    1    4    4    0    0  0.98435812466E-02  0.19756829977E-01 -0.21509367407E-01  0.30824380444E-01  0.51100000000E-03 0. -1.
</event>
<event>
 8    1  0.1132255E+005  0.1043930E+01  0.7957747E-01            NaN
         13   -1    0    0    0    0  0.00000000000E+00  0.00000000000E+00  0.74505805969E-08  0.10566000000E+00  0.10566000000E+00 0.  1.
     999900   -1    0    0    0    0 -0.00000000000E+00 -0.00000000000E+00 -0.74505805969E-08  0.93827000000E+00  0.93827000000E+00 0. -1.
     999902    2    1    2    0    0  0.16441598716E-01 -0.16876922407E-01 -0.36778443333E-02  0.10200829202E+01  0.10198041384E+01 0.  0.
     999903    2    3    3    0    0  0.62474016968E-01  0.91653185694E-01 -0.65167445405E-01  0.13009486465E+00  0.19353775452E-01 0.  0.
         14    1    1    2    0    0 -0.16441598716E-01  0.16876922407E-01  0.36778443333E-02  0.23847079847E-01  0.00000000000E+00 0.  1.
     999901    1    3    3    0    0 -0.46032418252E-01 -0.10853010810E+00  0.61489601072E-01  0.88998805550E+00  0.88000000000E+00 0.  1.
        -11    1    4    4    0    0  0.62937299730E-02  0.23004828795E-01 -0.15100048918E-01  0.28233061881E-01  0.51100000000E-03 0. -1.
         11    1    4    4    0    0  0.56180286995E-01  0.68648356900E-01 -0.50067396487E-01  0.10186180277E+00  0.51100000000E-03 0.  1.
</event>
<event>
 8    1  0.1132255E+005  0.1043930E+01  0.7957747E-01            NaN
         13   -1    0    0    0    0  0.00000000000E+00  0.00000000000E+00  0.74505805969E-08  0.10566000000E+00  0.10566000000E+00 0. -1.
     999900   -1    0    0    0    0 -0.00000000000E+00 -0.00000000000E+00 -0.74505805969E-08  0.93827000000E+00  0.93827000000E+00 0.  1.
     999902    2    1    2    0    0 -0.23883526828E-01 -0.21321326449E-02 -0.24477330947E-02  0.10198268832E+01  0.10195420106E+01 0.  0.
     999903    2    3    3    0    0 -0.74289937703E-01  0.10658685705E+00 -0.56026127789E-02  0.13169931450E+00  0.20822277266E-01 0.  0.
         14    1    1    2    0    0  0.23883526828E-01  0.21321326449E-02  0.24477330947E-02  0.24103116825E-01  0.00000000000E+00 0.  1.
     999901    1    3    3    0    0  0.50406410875E-01 -0.10871898969E+00  0.31548796841E-02  0.88812756868E+00  0.88000000000E+00 0. -1.
        -11    1    4    4    0    0 -0.50020662181E-01  0.82014287072E-01 -0.11168099263E-01  0.96712964442E-01  0.51100000000E-03 0. -1.
         11    1    4    4    0    0 -0.24269275522E-01  0.24572569975E-01  0.55654864840E-02  0.34986350057E-01  0.51100000000E-03 0.  1.
</event>
<event>
 8    1  0.1132255E+005  0.1043930E+01  0.7957747E-01            NaN
         13   -1    0    0    0    0  0.00000000000E+00  0.00000000000E+00  0.74505805969E-08  0.10566000000E+00  0.10566000000E+00 0.  1.
     999900   -1    0    0    0    0 -0.00000000000E+00 -0.00000000000E+00 -0.74505805969E-08  0.93827000000E+00  0.93827000000E+00 0.  1.
     999902    2    1    2    0    0 -0.13896830837E-01 -0.14075376376E-01 -0.13274231697E-01  0.10201089304E+01  0.10198307637E+01 0.  0.
     999903    2    3    3    0    0  0.11809455677E+00 -0.28619324754E-01  0.36350494586E-01  0.12876395442E+00  0.22212775917E-01 0.  0.
         14    1    1    2    0    0  0.13896830837E-01  0.14075376376E-01  0.13274231697E-01  0.23821069551E-01  0.00000000000E+00 0.  1.
     999901    1    3    3    0    0 -0.13199138760E+00  0.14543948378E-01 -0.49624726282E-01  0.89134497603E+00  0.88000000000E+00 0.  1.
        -11    1    4    4    0    0  0.69374800413E-01 -0.27561169661E-01  0.24999307159E-01  0.78725519909E-01  0.51100000000E-03 0. -1.
         11    1    4    4    0    0  0.48719756352E-01 -0.10581550928E-02  0.11351187427E-01  0.50038434510E-01  0.51100000000E-03 0.  1.
</event>
<event>
 7    1  0.1246236E+005  0.1043930E+01  0.7957747E-01            NaN
         13   -1    0    0    0    0  0.00000000000E+00  0.00000000000E+00  0.74505805969E-08  0.10566000000E+00  0.10566000000E+00 0.  1.
     999900   -1    0    0    0    0 -0.00000000000E+00 -0.00000000000E+00 -0.74505805969E-08  0.93827000000E+00  0.93827000000E+00 0. -1.
     999903    2    1    2    0    0 -0.14920805538E-01  0.56371735101E-01 -0.47605497238E-01  0.77880641445E-01  0.19967673586E-01 0.  0.
         14    1    1    2    0    0 -0.55582092113E-01 -0.59164561804E-01 -0.73936424719E-02  0.81513681588E-01  0.00000000000E+00 0.  1.
     999901    1    1    2    0    0  0.70502897651E-01  0.27928267032E-02  0.54999139710E-01  0.88453567697E+00  0.88000000000E+00 0.  1.
        -11    1    3    3    0    0 -0.85024718398E-02  0.31773010197E-01 -0.14026616913E-01  0.35760639080E-01  0.51100000000E-03 0.  1.
         11    1    3    3    0    0 -0.64183336983E-02  0.24598724903E-01 -0.33578880325E-01  0.42120002365E-01  0.51100000000E-03 0. -1.
</event>
<event>
 8    1  0.1132255E+005  0.1043930E+01  0.7957747E-01            NaN
         13   -1    0    0    0    0  0.00000000000E+00  0.00000000000E+00  0.74505805969E-08  0.10566000000E+00  0.10566000000E+00 0. -1.
     999900   -1    0    0    0    0 -0.00000000000E+00 -0.00000000000E+00 -0.74505805969E-08  0.93827000000E+00  0.93827000000E+00 0.  1.
     999902    2    1    2    0    0  0.17680258520E-01  0.90281235992E-02  0.13078618251E-01  0.10201571413E+01  0.10198801126E+01 0.  0.
     999903    2    3    3    0    0 -0.85947604947E-01 -0.89015378267E-01 -0.25395672813E-01  0.12783907386E+00  0.19676387977E-01 0.  0.
         14    1    1    2    0    0 -0.17680258520E-01 -0.90281235992E-02 -0.13078618251E-01  0.23772858734E-01  0.00000000000E+00 0.  1.
     999901    1    3    3    0    0  0.10362786347E+00  0.98043501866E-01  0.38474291063E-01  0.89231806741E+00  0.88000000000E+00 0.  1.
        -11    1    4    4    0    0 -0.55623021252E-01 -0.50451694351E-01 -0.69229116532E-02  0.75415394866E-01  0.51100000000E-03 0. -1.
         11    1    4    4    0    0 -0.30324583695E-01 -0.38563683916E-01 -0.18472761159E-01  0.52423678995E-01  0.51100000000E-03 0.  1.
</event>
<event>
 8    1  0.1132255E+005  0.1043930E+01  0.7957747E-01            NaN
         13   -1    0    0    0    0  0.00000000000E+00  0.00000000000E+00  0.74505805969E-08  0.10566000000E+00  0.10566000000E+00 0. -1.
     999900   -1    0    0    0    0 -0.00000000000E+00 -0.00000000000E+00 -0.74505805969E-08  0.93827000000E+00  0.93827000000E+00 0. -1.
     999902    2    1    2    0    0  0.70673428200E-02 -0.21457914525E-01 -0.87240773533E-02  0.10197122595E+01  0.10194246383E+01 0.  0.
     999903    2    3    3    0    0  0.31235373843E-01  0.89169094933E-01 -0.85638882907E-01  0.12912912677E+00  0.20335610283E-01 0.  0.
         14    1    1    2    0    0 -0.70673428200E-02  0.21457914525E-01  0.87240773533E-02  0.24217740521E-01  0.00000000000E+00 0. -1.
     999901    1    3    3    0    0 -0.24168031023E-01 -0.11062700946E+00  0.76914805554E-01  0.89058313270E+00  0.88000000000E+00 0.  1.
        -11    1    4    4    0    0  0.14187147839E-01  0.38426912164E-01 -0.23954030760E-01  0.47454814855E-01  0.51100000000E-03 0.  1.
         11    1    4    4    0    0  0.17048226004E-01  0.50742182769E-01 -0.61684852147E-01  0.81674311919E-01  0.51100000000E-03 0. -1.
</event>
<event>
 8    1  0.1132255E+005  0.1043930E+01  0.7957747E-01            NaN
         13   -1    0    0    0    0  0.00000000000E+00  0.00000000000E+00  0.74505805969E-08  0.10566000000E+00  0.10566000000E+00 0.  1.
     999900   -1    0    0    0    0 -0.00000000000E+00 -0.00000000000E+00 -0.74505805969E-08  0.93827000000E+00  0.93827000000E+00 0. -1.
     999902    2    1    2    0    0  0.22089327402E-01  0.90805351857E-02 -0.59149349748E-03  0.10200397432E+01  0.10197599391E+01 0.  0.
     999903    2    3    3    0    0 -0.81882690405E-01 -0.38250883151E-01 -0.88812913387E-01  0.12828110852E+00  0.20010101643E-01 0.  0.
         14    1    1    2    0    0 -0.22089327402E-01 -0.90805351857E-02  0.59149349748E-03  0.23890256777E-01  0.00000000000E+00 0. -1.
     999901    1    3    3    0    0  0.10397201781E+00  0.47331418336E-01  0.88221419890E-01  0.89175863471E+00  0.88000000000E+00 0.  1.
        -11    1    4    4    0    0 -0.35600669268E-01 -0.68530546245E-02 -0.40664580572E-01  0.54481567930E-01  0.51100000000E-03 0.  1.
         11    1    4    4    0    0 -0.46282021137E-01 -0.31397828526E-01 -0.48148332816E-01  0.73799540586E-01  0.51100000000E-03 0. -1.
</event>
<event>
 8    1  0.1132255E+005  0.1043930E+01  0.7957747E-01            NaN
         13   -1    0    0    0    0  0.00000000000E+00  0.00000000000E+00  0.74505805969E-08  0.10566000000E+00  0.10566000000E+00 0. -1.
     999900   -1    0    0    0    0 -0.00000000000E+00 -0.00000000000E+00 -0.74505805969E-08  0.93827000000E+00  0.93827000000E+00 0. -1.
     999902    2    1    2    0    0  0.51531940425E-02  0.47745340566E-02 -0.22819467795E-01  0.10200536583E+01  0.10197741838E+01 0.  0.
     999903    2    3    3    0    0 -0.50006584946E-01 -0.74188985679E-01  0.89170246047E-01  0.12774231424E+00  0.19028976144E-01 0.  0.
         14    1    1    2    0    0 -0.51531940425E-02 -0.47745340566E-02  0.22819467795E-01  0.23876341737E-01  0.00000000000E+00 0. -1.
     999901    1    3    3    0    0  0.55159778988E-01  0.78963519735E-01 -0.11198971384E+00  0.89231134402E+00  0.88000000000E+00 0.  1.
        -11    1    4    4    0    0 -0.39629122183E-01 -0.42724240465E-01  0.54640482366E-01  0.79885364633E-01  0.51100000000E-03 0. -1.
         11    1    4    4    0    0 -0.10377462763E-01 -0.31464745213E-01  0.34529763681E-01  0.47856949606E-01  0.51100000000E-03 0.  1.
</event>
<event>
 8    1  0.1132255E+005  0.1043930E+01  0.7957747E-01            NaN
         13   -1    0    0    0    0  0.00000000000E+00  0.00000000000E+00  0.74505805969E-08  0.10566000000E+00  0.10566000000E+00 0.  1.
     999900   -1    0    0    0    0 -0.00000000000E+00 -0.00000000000E+00 -0.74505805969E-08  0.93827000000E+00  0.93827000000E+00 0. -1.
     999902    2    1    2    0    0 -0.16116929412E-01  0.59847005769E-02 -0.16705722372E-01  0.10199580744E+01  0.10196763312E+01 0.  0.
     999903    2    3    3    0    0  0.10209750834E-01 -0.25687154305E-01 -0.12756483109E+00  0.13204707527E+00  0.19989373316E-01 0.  0.
         14    1    1    2    0    0  0.16116929412E-01 -0.59847005769E-02  0.16705722372E-01  0.23971925551E-01  0.00000000000E+00 0.  1.
     999901    1    3    3    0    0 -0.26326680246E-01  0.31671854882E-01  0.11085910872E+00  0.88791099918E+00  0.88000000000E+00 0.  1.
        -11    1    4    4    0    0 -0.36249378651E-02 -0.17782306262E-01 -0.69875475932E-01  0.72195525126E-01  0.51100000000E-03 0. -1.
         11    1    4    4    0    0  0.13834688699E-01 -0.79048480426E-02 -0.57689355163E-01  0.59851550139E-01  0.51100000000E-03 0.  1.
</event>
<event>
 8    1  0.1132255E+005  0.1043930E+01  0.7957747E-01            NaN
         13   -1    0    0    0    0  0.00000000000E+00  0.00000000000E+00  0.74505805969E-08  0.10566000000E+00  0.10566000000E+00 0. -1.
     999900   -1    0    0    0    0 -0.00000000000E+00 -0.00000000000E+00 -0.74505805969E-08  0.93827000000E+00  0.93827000000E+00 0. -1.
     999902    2    1    2    0    0  0.10406823240E-01 -0.13025795278E-01 -0.15863042925E-01  0.10209167550E+01  0.10206573427E+01 0.  0.
     999903    2    3    3    0    0 -0.11173743626E+00  0.15926698582E-01 -0.62848211535E-01  0.13076785003E+00  0.20283454318E-01 0.  0.
         14    1    1    2    0    0 -0.10406823240E-01  0.13025795278E-01  0.15863042925E-01  0.23013244956E-01  0.00000000000E+00 0. -1.
     999901    1    3    3    0    0  0.12214425950E+00 -0.28952493860E-01  0.46985168611E-01  0.89014890501E+00  0.88000000000E+00 0.  1.
        -11    1    4    4    0    0 -0.50300323143E-01 -0.29523386999E-02 -0.28519463999E-01  0.57900429703E-01  0.51100000000E-03 0. -1.
         11    1    4    4    0    0 -0.61437113115E-01  0.18879037282E-01 -0.34328747536E-01  0.72867420326E-01  0.51100000000E-03 0.  1.
</event>
<event>
 8    1  0.1132255E+005  0.1043930E+01  0.7957747E-01            NaN
         13   -1    0    0    0    0  0.00000000000E+00  0.00000000000E+00  0.74505805969E-08  0.10566000000E+00  0.10566000000E+00 0. -1.
     999900   -1    0    0    0    0 -0.00000000000E+00 -0.00000000000E+00 -0.74505805969E-08  0.93827000000E+00  0.93827000000E+00 0. -1.
     999902    2    1    2    0    0  0.14204069371E-01  0.13590698228E-01  0.88915106585E-02  0.10223540498E+01  0.10221263530E+01 0.  0.
     999903    2    3    3    0    0  0.49463480560E-01 -0.69008091936E-01  0.10083496684E+00  0.13301756380E+00  0.17810925801E-01 0.  0.
         14    1    1    2    0    0 -0.14204069371E-01 -0.13590698228E-01 -0.88915106585E-02  0.21575950195E-01  0.00000000000E+00 0.  1.
     999901    1    3    3    0    0 -0.35259411189E-01  0.82598790164E-01 -0.91943456185E-01  0.88933648601E+00  0.88000000000E+00 0.  1.
        -11    1    4    4    0    0  0.26205379148E-01 -0.34161442242E-01  0.64538931899E-01  0.77583895777E-01  0.51100000000E-03 0.  1.
         11    1    4    4    0    0  0.23258101412E-01 -0.34846649695E-01  0.36296034945E-01  0.55433668018E-01  0.51100000000E-03 0. -1.
</event>
<event>
 8    1  0.1132255E+005  0.1043930E+01  0.7957747E-01            NaN
         13   -1    0    0    0    0  0.00000000000E+00  0.00000000000E+00  0.74505805969E-08  0.10566000000E+00  0.10566000000E+00 0.  1.
     999900   -1    0    0    0    0 -0.00000000000E+00 -0.00000000000E+00 -0.74505805969E-08  0.93827000000E+00  0.93827000000E+00 0. -1.
     999902    2    1    2    0    0  0.80915468752E-03  0.22804333116E-01 -0.84418390465E-02  0.10195998338E+01  0.10193095036E+01 0.  0.
     999903    2    3    3    0    0  0.50497789876E-01 -0.35701324847E-01  0.11053475823E+00  0.12828209968E+00  0.20340917939E-01 0.  0.
         14    1    1    2    0    0 -0.80915468752E-03 -0.22804333116E-01  0.84418390465E-02  0.24330166186E-01  0.00000000000E+00 0. -1.
     999901    1    3    3    0    0 -0.49688635188E-01  0.58505657963E-01 -0.11897659728E+00  0.89131773413E+00  0.88000000000E+00 0.  1.
        -11    1    4    4    0    0  0.39352423045E-01 -0.16257138781E-01  0.68917860490E-01  0.81011359551E-01  0.51100000000E-03 0. -1.
         11    1    4    4    0    0  0.11145366830E-01 -0.19444186067E-01  0.41616897743E-01  0.47270740129E-01  0.51100000000E-03 0.  1.
</event>
<event>
 8    1  0.1132255E+005  0.1043930E+01  0.7957747E-01            NaN
         13   -1    0    0    0    0  0.00000000000E+00  0.00000000000E+00  0.74505805969E-08  0.10566000000E+00  0.10566000000E+00 0. -1.
     999900   -1    0    0    0    0 -0.00000000000E+00 -0.00000000000E+00 -0.74505805969E-08  0.93827000000E+00  0.93827000000E+00 0.  1.
     999902    2    1    2    0    0 -0.21147162055E-01  0.90526566401E-02 -0.10746430342E-01  0.10185402615E+01  0.10182237600E+01 0.  0.
     999903    2    3    3    0    0 -0.98509307499E-02 -0.56660205374E-01  0.11153063994E+00  0.12758713873E+00  0.23064574906E-01 0.  0.
         14    1    1    2    0    0  0.21147162055E-01 -0.90526566401E-02  0.10746430342E-01  0.25389738485E-01  0.00000000000E+00 0. -1.
     999901    1    3    3    0    0 -0.11296231305E-01  0.65712862014E-01 -0.12227707028E+00  0.89095312278E+00  0.88000000000E+00 0.  1.
        -11    1    4    4    0    0 -0.46499209252E-02 -0.51246557534E-01  0.79625595827E-01  0.94806793298E-01  0.51100000000E-03 0.  1.
         11    1    4    4    0    0 -0.52010098248E-02 -0.54136478402E-02  0.31905044112E-01  0.32780345437E-01  0.51100000000E-03 0. -1.
</event>
<event>
 8    1  0.1132255E+005  0.1043930E+01  0.7957747E-01            NaN
         13   -1    0    0    0    0  0.00000000000E+00  0.00000000000E+00  0.74505805969E-08  0.10566000000E+00  0.10566000000E+00 0. -1.
     999900   -1    0    0    0    0 -0.00000000000E+00 -0.00000000000E+00 -0.74505805969E-08  0.93827000000E+00  0.93827000000E+00 0. -1.
     999902    2    1    2    0    0  0.20604069402E-01  0.70032002878E-03  0.10545376639E-01  0.10207735086E+01  0.10205108196E+01 0.  0.
     999903    2    3    3    0    0  0.25075693838E-01 -0.53037113585E-01  0.11699965690E+00  0.13271933180E+00  0.21994896690E-01 0.  0.
         14    1    1    2    0    0 -0.20604069402E-01 -0.70032002878E-03 -0.10545376639E-01  0.23156491369E-01  0.00000000000E+00 0.  1.
     999901    1    3    3    0    0 -0.44716244359E-02  0.53737433614E-01 -0.10645428026E+00  0.88805417683E+00  0.88000000000E+00 0. -1.
        -11    1    4    4    0    0  0.26831623993E-01 -0.33879144377E-01  0.76066293730E-01  0.87487568446E-01  0.51100000000E-03 0. -1.
         11    1    4    4    0    0 -0.17559301548E-02 -0.19157969208E-01  0.40933363171E-01  0.45231763357E-01  0.51100000000E-03 0.  1.
</event>
<event>
 8    1  0.1132255E+005  0.1043930E+01  0.7957747E-01            NaN
         13   -1    0    0    0    0  0.00000000000E+00  0.00000000000E+00  0.74505805969E-08  0.10566000000E+00  0.10566000000E+00 0.  1.
     999900   -1    0    0    0    0 -0.00000000000E+00 -0.00000000000E+00 -0.74505805969E-08  0.93827000000E+00  0.93827000000E+00 0. -1.
     999902    2    1    2    0    0 -0.18235568785E-01 -0.14001391538E-01  0.60976724291E-02  0.10201443627E+01  0.10198670326E+01 0.  0.
     999903    2    3    3    0    0  0.11226639345E+00 -0.18096309612E-01 -0.56313178944E-01  0.12832451267E+00  0.19099395501E-01 0.  0.
         14    1    1    2    0    0  0.18235568785E-01  0.14001391538E-01 -0.60976724291E-02  0.23785637325E-01  0.00000000000E+00 0. -1.
     999901    1    3    3    0    0 -0.13050196223E+00  0.40949180740E-02  0.62410851374E-01  0.89181985001E+00  0.88000000000E+00 0.  1.
        -11    1    4    4    0    0  0.68503810647E-01 -0.37444989847E-02 -0.40261229836E-01  0.79548859795E-01  0.51100000000E-03 0. -1.
         11    1    4    4    0    0  0.43762582802E-01 -0.14351810627E-01 -0.16051949109E-01  0.48775652871E-01  0.51100000000E-03 0.  1.
</event>
<event>
 8    1  0.1132255E+005  0.1043930E+01  0.7957747E-01            NaN
         13   -1    0    0    0    0  0.00000000000E+00  0.00000000000E+00  0.74505805969E-08  0.10566000000E+00  0.10566000000E+00 0.  1.
     999900   -1    0    0    0    0 -0.00000000000E+00 -0.00000000000E+00 -0.74505805969E-08  0.93827000000E+00  0.93827000000E+00 0.  1.
     999902    2    1    2    0    0 -0.32245230363E-01  0.28795760608E-02  0.40366158520E-02  0.10113057589E+01  0.10107794007E+01 0.  0.
     999903    2    3    3    0    0  0.30996211441E-01  0.10009395458E+00  0.59054722940E-01  0.12199304256E+00  0.20378352807E-01 0.  0.
         14    1    1    2    0    0  0.32245230363E-01 -0.28795760608E-02 -0.40366158520E-02  0.32624241094E-01  0.00000000000E+00 0. -1.
     999901    1    3    3    0    0 -0.63241441803E-01 -0.97214378521E-01 -0.55018107088E-01  0.88931271635E+00  0.88000000000E+00 0. -1.
        -11    1    4    4    0    0  0.17637405415E-01  0.77904253877E-01  0.51376607550E-01  0.94973510866E-01  0.51100000000E-03 0. -1.
         11    1    4    4    0    0  0.13358806026E-01  0.22189700705E-01  0.76781153897E-02  0.27019531690E-01  0.51100000000E-03 0.  1.
</event>
<event>
 8    1  0.1132255E+005  0.1043930E+01  0.7957747E-01            NaN
         13   -1    0    0    0    0  0.00000000000E+00  0.00000000000E+00  0.74505805969E-08  0.10566000000E+00  0.10566000000E+00 0. -1.
     999900   -1    0    0    0    0 -0.00000000000E+00 -0.00000000000E+00 -0.74505805969E-08  0.93827000000E+00  0.93827000000E+00 0.  1.
     999902    2    1    2    0    0  0.56966743229E-02  0.21433263347E-01 -0.94497219742E-02  0.10198232764E+01  0.10195383176E+01 0.  0.
     999903    2    3    3    0    0  0.72176393364E-01 -0.58089562757E-01 -0.89086467875E-01  0.13016859948E+00  0.20582431147E-01 0.  0.
         14    1    1    2    0    0 -0.56966743229E-02 -0.21433263347E-01  0.94497219742E-02  0.24106723573E-01  0.00000000000E+00 0. -1.
     999901    1    3    3    0    0 -0.66479719041E-01  0.79522826104E-01  0.79636745901E-01  0.88965467695E+00  0.88000000000E+00 0. -1.
        -11    1    4    4    0    0  0.66648970839E-01 -0.51836546599E-01 -0.71292076349E-01  0.11050762032E+00  0.51100000000E-03 0.  1.
         11    1    4    4    0    0  0.55274225250E-02 -0.62530161578E-02 -0.17794391526E-01  0.19660979162E-01  0.51100000000E-03 0. -1.
</event>
<event>
 8    1  0.1132255E+005  0.1043930E+01  0.7957747E-01            NaN
         13   -1    0    0    0    0  0.00000000000E+00  0.00000000000E+00  0.74505805969E-08  0.10566000000E+00  0.10566000000E+00 0. -1.
     999900   -1    0    0    0    0 -0.00000000000E+00 -0.00000000000E+00 -0.74505805969E-08  0.93827000000E+00  0.93827000000E+00 0.  1.
     999902    2    1    2    0    0  0.44481214144E-02  0.17541559532E-01 -0.14410521878E-01  0.10207965775E+01  0.10205344176E+01 0.  0.
     999903    2    3    3    0    0 -0.54935378168E-01 -0.10892628914E+00  0.34960444192E-01  0.12840764378E+00  0.19582085738E-01 0.  0.
         14    1    1    2    0    0 -0.44481214144E-02 -0.17541559532E-01  0.14410521878E-01  0.23133422482E-01  0.00000000000E+00 0. -1.
     999901    1    3    3    0    0  0.59383499582E-01  0.12646784867E+00 -0.49370966070E-01  0.89238893374E+00  0.88000000000E+00 0.  1.
        -11    1    4    4    0    0 -0.45800505422E-01 -0.70876148499E-01  0.22480450076E-01  0.87331245723E-01  0.51100000000E-03 0.  1.
         11    1    4    4    0    0 -0.91348727463E-02 -0.38050140643E-01  0.12479994116E-01  0.41076398055E-01  0.51100000000E-03 0. -1.
</event>
<event>
 8    1  0.1132255E+005  0.1043930E+01  0.7957747E-01            NaN
         13   -1    0    0    0    0  0.00000000000E+00  0.00000000000E+00  0.74505805969E-08  0.10566000000E+00  0.10566000000E+00 0. -1.
     999900   -1    0    0    0    0 -0.00000000000E+00 -0.00000000000E+00 -0.74505805969E-08  0.93827000000E+00  0.93827000000E+00 0. -1.
     999902    2    1    2    0    0 -0.27247408431E-02  0.11015085972E-01  0.19873952843E-01  0.10210448447E+01  0.10207883446E+01 0.  0.
     999903    2    3    3    0    0  0.11974277907E+00 -0.46801583997E-01 -0.62173028498E-02  0.13030256189E+00  0.20282538718E-01 0.  0.
         14    1    1    2    0    0  0.27247408431E-02 -0.11015085972E-01 -0.19873952843E-01  0.22885155303E-01  0.00000000000E+00 0.  1.
     999901    1    3    3    0    0 -0.12246751991E+00  0.57816669969E-01  0.26091255693E-01  0.89074228281E+00  0.88000000000E+00 0. -1.
        -11    1    4    4    0    0  0.54186547490E-01 -0.19247006020E-01  0.71345114584E-02  0.57946454114E-01  0.51100000000E-03 0. -1.
         11    1    4    4    0    0  0.65556231576E-01 -0.27554577977E-01 -0.13351814308E-01  0.72356107775E-01  0.51100000000E-03 0.  1.
</event>
<event>
 8    1  0.1132255E+005  0.1043930E+01  0.7957747E-01            NaN
         13   -1    0    0    0    0  0.00000000000E+00  0.00000000000E+00  0.74505805969E-08  0.10566000000E+00  0.10566000000E+00 0. -1.
     999900   -1    0    0    0    0 -0.00000000000E+00 -0.00000000000E+00 -0.74505805969E-08  0.93827000000E+00  0.93827000000E+00 0. -1.
     999902    2    1    2    0    0 -0.20576787987E-01  0.30290814590E-02  0.12414684383E-01  0.10197080280E+01  0.10194203051E+01 0.  0.
     999903    2    3    3    0    0 -0.80091364758E-01  0.41637501500E-01 -0.92190018996E-01  0.13067780417E+00  0.20721502367E-01 0.  0.
         14    1    1    2    0    0  0.20576787987E-01 -0.30290814590E-02 -0.12414684383E-01  0.24221971981E-01  0.00000000000E+00 0.  1.
     999901    1    3    3    0    0  0.59514576771E-01 -0.38608420041E-01  0.10460470338E+00  0.88903022385E+00  0.88000000000E+00 0.  1.
        -11    1    4    4    0    0 -0.80572217098E-02  0.97322072779E-02 -0.63036117305E-02  0.14129094876E-01  0.51100000000E-03 0.  1.
         11    1    4    4    0    0 -0.72034143048E-01  0.31905294222E-01 -0.85886407266E-01  0.11654870929E+00  0.51100000000E-03 0. -1.
</event>
<event>
 8    1  0.1132255E+005  0.1043930E+01  0.7957747E-01            NaN
         13   -1    0    0    0    0  0.00000000000E+00  0.00000000000E+00  0.74505805969E-08  0.10566000000E+00  0.10566000000E+00 0.  1.
     999900   -1    0    0    0    0 -0.00000000000E+00 -0.00000000000E+00 -0.74505805969E-08  0.93827000000E+00  0.93827000000E+00 0. -1.
     999902    2    1    2    0    0  0.13205917946E-01 -0.43408806098E-02  0.18571321377E-01  0.10207322956E+01  0.10204686598E+01 0.  0.
     999903    2    3    3    0    0  0.45988377862E-01  0.93173646771E-01  0.79953155038E-01  0.13261546641E+00  0.19952332685E-01 0.  0.
         14    1    1    2    0    0 -0.13205917946E-01  0.43408806098E-02 -0.18571321377E-01  0.23197704433E-01  0.00000000000E+00 0. -1.
     999901    1    3    3    0    0 -0.32782459917E-01 -0.97514527381E-01 -0.61381833661E-01  0.88811682916E+00  0.88000000000E+00 0. -1.
        -11    1    4    4    0    0  0.29139207911E-01  0.47852466218E-01  0.53636254574E-01  0.77563270216E-01  0.51100000000E-03 0.  1.
         11    1    4    4    0    0  0.16849169951E-01  0.45321180553E-01  0.26316900464E-01  0.55052196194E-01  0.51100000000E-03 0. -1.
</event>
<event>
 8    1  0.1132255E+005  0.1043930E+01  0.7957747E-01            NaN
         13   -1    0    0    0    0  0.00000000000E+00  0.00000000000E+00  0.74505805969E-08  0.10566000000E+00  0.10566000000E+00 0. -1.
     999900   -1    0    0    0    0 -0.00000000000E+00 -0.00000000000E+00 -0.74505805969E-08  0.93827000000E+00  0.93827000000E+00 0. -1.
     999902    2    1    2    0    0  0.15653284046E-01 -0.14170782364E-01 -0.10031215544E-01  0.10205534806E+01  0.10202857174E+01 0.  0.
     999903    2    3    3    0    0  0.41901550951E-01 -0.99900536850E-01 -0.74395667838E-01  0.13365926760E+00  0.24376775585E-01 0.  0.
         14    1    1    2    0    0 -0.15653284046E-01  0.14170782364E-01  0.10031215544E-01  0.23376519405E-01  0.00000000000E+00 0. -1.
     999901    1    3    3    0    0 -0.26248266905E-01  0.85729754486E-01  0.64364452294E-01  0.88689421299E+00  0.88000000000E+00 0.  1.
        -11    1    4    4    0    0  0.31117448056E-01 -0.93140045562E-01 -0.63984509806E-01  0.11720768864E+00  0.51100000000E-03 0. -1.
         11    1    4    4    0    0  0.10784102895E-01 -0.67604912879E-02 -0.10411158033E-01  0.16451578960E-01  0.51100000000E-03 0.  1.
</event>
<event>
 8    1  0.1132255E+005  0.1043930E+01  0.7957747E-01            NaN
         13   -1    0    0    0    0  0.00000000000E+00  0.00000000000E+00  0.74505805969E-08  0.10566000000E+00  0.10566000000E+00 0.  1.
     999900   -1    0    0    0    0 -0.00000000000E+00 -0.00000000000E+00 -0.74505805969E-08  0.93827000000E+00  0.93827000000E+00 0.  1.
     999902    2    1    2    0    0  0.12292465149E-01  0.10133040942E-01 -0.18162814339E-01  0.10197707152E+01  0.10194844974E+01 0.  0.
     999903    2    3    3    0    0 -0.11957123065E+00 -0.42497859125E-01 -0.59460290185E-03  0.12821775099E+00  0.18332781772E-01 0.  0.
         14    1    1    2    0    0 -0.12292465149E-01 -0.10133040942E-01  0.18162814339E-01  0.24159284817E-01  0.00000000000E+00 0.  1.
     999901    1    3    3    0    0  0.13186369580E+00  0.52630900067E-01 -0.17568211437E-01  0.89155296419E+00  0.88000000000E+00 0.  1.
        -11    1    4    4    0    0 -0.81325195281E-01 -0.21127819337E-01  0.42659452416E-02  0.84134603745E-01  0.51100000000E-03 0. -1.
         11    1    4    4    0    0 -0.38246035365E-01 -0.21370039788E-01 -0.48605481434E-02  0.44083147244E-01  0.51100000000E-03 0.  1.
</event>
<event>
 8    1  0.1132255E+005  0.1043930E+01  0.7957747E-01            NaN
         13   -1    0    0    0    0  0.00000000000E+00  0.00000000000E+00  0.74505805969E-08  0.10566000000E+00  0.10566000000E+00 0.  1.
     999900   -1    0    0    0    0 -0.00000000000E+00 -0.00000000000E+00 -0.74505805969E-08  0.93827000000E+00  0.93827000000E+00 0. -1.
     999902    2    1    2    0    0  0.13676142260E-01  0.12547821246E-01  0.15466417122E-01  0.10197702247E+01  0.10194839952E+01 0.  0.
     999903    2    3    3    0    0  0.78194500668E-01  0.45461526927E-01 -0.91573146843E-01  0.13033028918E+00  0.20474684142E-01 0.  0.
         14    1    1    2    0    0 -0.13676142260E-01 -0.12547821246E-01 -0.15466417122E-01  0.24159775325E-01  0.00000000000E+00 0. -1.
     999901    1    3    3    0    0 -0.64518358408E-01 -0.32913705681E-01  0.10703956396E+00  0.88943993549E+00  0.88000000000E+00 0. -1.
        -11    1    4    4    0    0  0.14280831323E-01  0.49269145072E-03 -0.10628223504E-01  0.17815867758E-01  0.51100000000E-03 0. -1.
         11    1    4    4    0    0  0.63913669346E-01  0.44968835477E-01 -0.80944923339E-01  0.11251442143E+00  0.51100000000E-03 0.  1.
</event>
<event>
 8    1  0.1132255E+005  0.1043930E+01  0.7957747E-01            NaN
         13   -1    0    0    0    0  0.00000000000E+00  0.00000000000E+00  0.74505805969E-08  0.10566000000E+00  0.10566000000E+00 0.  1.
     999900   -1    0    0    0    0 -0.00000000000E+00 -0.00000000000E+00 -0.74505805969E-08  0.93827000000E+00  0.93827000000E+00 0. -1.
     999902    2    1    2    0    0  0.67552511287E-02 -0.23318606258E-01 -0.52163828826E-02  0.10190985388E+01  0.10187959709E+01 0.  0.
     999903    2    3    3    0    0 -0.36541235608E-01 -0.11986757240E+00  0.35881291606E-01  0.13180754510E+00  0.19551599564E-01 0.  0.
         14    1    1    2    0    0 -0.67552511287E-02  0.23318606258E-01  0.52163828826E-02  0.24831461214E-01  0.00000000000E+00 0.  1.
     999901    1    3    3    0    0  0.43296486737E-01  0.96548966141E-01 -0.41097674488E-01  0.88729099369E+00  0.88000000000E+00 0.  1.
        -11    1    4    4    0    0 -0.18179420256E-01 -0.81156232838E-01  0.16547366909E-01  0.84799185856E-01  0.51100000000E-03 0. -1.
         11    1    4    4    0    0 -0.18361815352E-01 -0.38711339562E-01  0.19333924697E-01  0.47008359244E-01  0.51100000000E-03 0.  1.
</event>
<event>
 8    1  0.1132255E+005  0.1043930E+01  0.7957747E-01            NaN
         13   -1    0    0    0    0  0.00000000000E+00  0.00000000000E+00  0.74505805969E-08  0.10566000000E+00  0.10566000000E+00 0. -1.
     999900   -1    0    0    0    0 -0.00000000000E+00 -0.00000000000E+00 -0.74505805969E-08  0.93827000000E+00  0.93827000000E+00 0. -1.
     999902    2    1    2    0    0 -0.15260036219E-01  0.16911842120E-01  0.33286296315E-02  0.10209091641E+01  0.10206495787E+01 0.  0.
     999903    2    3    3    0    0 -0.41817673376E-02  0.10303999395E+00 -0.80848489145E-01  0.13263748614E+00  0.20530392136E-01 0.  0.
         14    1    1    2    0    0  0.15260036219E-01 -0.16911842120E-01 -0.33286296315E-02  0.23020835878E-01  0.00000000000E+00 0. -1.
     999901    1    3    3    0    0 -0.11078268881E-01 -0.86128151830E-01  0.84177118776E-01  0.88827167798E+00  0.88000000000E+00 0. -1.
        -11    1    4    4    0    0  0.35054261720E-02  0.43126224662E-01 -0.23025578954E-01  0.49016300079E-01  0.51100000000E-03 0.  1.
         11    1    4    4    0    0 -0.76871935096E-02  0.59913769288E-01 -0.57822910191E-01  0.83621186061E-01  0.51100000000E-03 0. -1.
</event>
<event>
 8    1  0.1132255E+005  0.1043930E+01  0.7957747E-01            NaN
         13   -1    0    0    0    0  0.00000000000E+00  0.00000000000E+00  0.74505805969E-08  0.10566000000E+00  0.10566000000E+00 0. -1.
     999900   -1    0    0    0    0 -0.00000000000E+00 -0.00000000000E+00 -0.74505805969E-08  0.93827000000E+00  0.93827000000E+00 0.  1.
     999902    2    1    2    0    0 -0.49475609572E-02 -0.21345090497E-01 -0.63360435184E-02  0.10211213022E+01  0.10208665325E+01 0.  0.
     999903    2    3    3    0    0  0.38404427651E-01  0.48788856928E-01  0.11216639744E+00  0.12935844471E+00  0.17235251064E-01 0.  0.
         14    1    1    2    0    0  0.49475609572E-02  0.21345090497E-01  0.63360435184E-02  0.22808697797E-01  0.00000000000E+00 0.  1.
     999901    1    3    3    0    0 -0.43351988608E-01 -0.70133947424E-01 -0.11850244096E+00  0.89176285750E+00  0.88000000000E+00 0.  1.
        -11    1    4    4    0    0  0.94839266980E-02  0.11965658737E-01  0.14572597512E-01  0.21112640145E-01  0.51100000000E-03 0.  1.
         11    1    4    4    0    0  0.28920500953E-01  0.36823198191E-01  0.97593799925E-01  0.10824580456E+00  0.51100000000E-03 0. -1.
</event>
<event>
 8    1  0.1132255E+005  0.1043930E+01  0.7957747E-01            NaN
         13   -1    0    0    0    0  0.00000000000E+00  0.00000000000E+00  0.74505805969E-08  0.10566000000E+00  0.10566000000E+00 0.  1.
     999900   -1    0    0    0    0 -0.00000000000E+00 -0.00000000000E+00 -0.74505805969E-08  0.93827000000E+00  0.93827000000E+00 0.  1.
     999902    2    1    2    0    0 -0.21910829372E-01  0.11009703936E-02 -0.10104322006E-01  0.10197764515E+01  0.10194903713E+01 0.  0.
     999903    2    3    3    0    0  0.55891705432E-01  0.16117392967E-01  0.11198306182E+00  0.12782126396E+00  0.20357217239E-01 0.  0.
         14    1    1    2    0    0  0.21910829372E-01 -0.11009703936E-02  0.10104322006E-01  0.24153548451E-01  0.00000000000E+00 0. -1.
     999901    1    3    3    0    0 -0.77802534804E-01 -0.15016422573E-01 -0.12208738383E+00  0.89195518758E+00  0.88000000000E+00 0.  1.
        -11    1    4    4    0    0  0.54787612009E-01  0.13547389161E-01  0.94213047715E-01  0.10982519594E+00  0.51100000000E-03 0.  1.
         11    1    4    4    0    0  0.11040934226E-02  0.25700038053E-02  0.17770014109E-01  0.17996068023E-01  0.51100000000E-03 0. -1.
</event>
<event>
 8    1  0.1132255E+005  0.1043930E+01  0.7957747E-01            NaN
         13   -1    0    0    0    0  0.00000000000E+00  0.00000000000E+00  0.74505805969E-08  0.10566000000E+00  0.10566000000E+00 0.  1.
     999900   -1    0    0    0    0 -0.00000000000E+00 -0.00000000000E+00 -0.74505805969E-08  0.93827000000E+00  0.93827000000E+00 0. -1.
     999902    2    1    2    0    0 -0.12558131484E-01 -0.95532496698E-02  0.17837257988E-01  0.10201153193E+01  0.10198373035E+01 0.  0.
     999903    2    3    3    0    0  0.35262756412E-01  0.10695855545E+00  0.61977488833E-01  0.13005341242E+00  0.19725272809E-01 0.  0.
         14    1    1    2    0    0  0.12558131484E-01  0.95532496698E-02 -0.17837257988E-01  0.23814680728E-01  0.00000000000E+00 0. -1.
     999901    1    3    3    0    0 -0.47820887895E-01 -0.11651180512E+00 -0.44140230845E-01  0.89006190685E+00  0.88000000000E+00 0. -1.
        -11    1    4    4    0    0  0.10730755374E-01  0.53038521636E-01  0.21126039196E-01  0.58093067929E-01  0.51100000000E-03 0. -1.
         11    1    4    4    0    0  0.24532001038E-01  0.53920033809E-01  0.40851449637E-01  0.71960344492E-01  0.51100000000E-03 0.  1.
</event>
<event>
 8    1  0.1132255E+005  0.1043930E+01  0.7957747E-01            NaN
         13   -1    0    0    0    0  0.00000000000E+00  0.00000000000E+00  0.74505805969E-08  0.10566000000E+00  0.10566000000E+00 0.  1.
     999900   -1    0    0    0    0 -0.00000000000E+00 -0.00000000000E+00 -0.74505805969E-08  0.93827000000E+00  0.93827000000E+00 0. -1.
     999902    2    1    2    0    0 -0.13816672465E-01  0.15244377873E-01  0.10649504166E-01  0.10207631393E+01  0.10205002122E+01 0.  0.
     999903    2    3    3    0    0  0.50905102565E-01  0.11175469788E+00  0.45420942361E-01  0.13244326284E+00  0.19942765659E-01 0.  0.
         14    1    1    2    0    0  0.13816672465E-01 -0.15244377873E-01 -0.10649504166E-01  0.23166860679E-01  0.00000000000E+00 0. -1.
     999901    1    3    3    0    0 -0.64721775030E-01 -0.96510320007E-01 -0.34771438195E-01  0.88831987648E+00  0.88000000000E+00 0. -1.
        -11    1    4    4    0    0  0.27249021756E-01  0.75483157402E-01  0.36794758046E-01  0.88285511714E-01  0.51100000000E-03 0.  1.
         11    1    4    4    0    0  0.23656080809E-01  0.36271540479E-01  0.86261843148E-02  0.44157751129E-01  0.51100000000E-03 0. -1.
</event>
