<event>
 8    1  0.2922807E+004  0.1043930E+01  0.7957747E-01            NaN
         13   -1    0    0    0    0  0.00000000000E+00  0.00000000000E+00  0.74505805969E-08  0.10566000000E+00  0.10566000000E+00 0.  1.
     999900   -1    0    0    0    0 -0.00000000000E+00 -0.00000000000E+00 -0.74505805969E-08  0.93827000000E+00  0.93827000000E+00 0. -1.
     999902    2    1    2    0    0  0.74494366735E-02 -0.25647075174E-02 -0.11051556123E-01  0.10303576485E+01  0.10302682540E+01 0.  0.
     999903    2    3    3    0    0 -0.15301255614E-01 -0.12624634935E+00 -0.40431969094E-01  0.14093201860E+00  0.45330128982E-01 0.  0.
         14    1    1    2    0    0 -0.74494366735E-02  0.25647075174E-02  0.11051556123E-01  0.13572351459E-01  0.00000000000E+00 0.  1.
     999901    1    3    3    0    0  0.22750692288E-01  0.12368164184E+00  0.29380412972E-01  0.88942562994E+00  0.88000000000E+00 0. -1.
        -11    1    4    4    0    0  0.16300263035E-02 -0.66830215460E-01  0.43883743411E-03  0.66853484452E-01  0.51100000000E-03 0. -1.
         11    1    4    4    0    0 -0.16931281918E-01 -0.59416133894E-01 -0.40870806529E-01  0.74078534149E-01  0.51100000000E-03 0.  1.
</event>
<event>
 8    1  0.2922807E+004  0.1043930E+01  0.7957747E-01            NaN
         13   -1    0    0    0    0  0.00000000000E+00  0.00000000000E+00  0.74505805969E-08  0.10566000000E+00  0.10566000000E+00 0.  1.
     999900   -1    0    0    0    0 -0.00000000000E+00 -0.00000000000E+00 -0.74505805969E-08  0.93827000000E+00  0.93827000000E+00 0. -1.
     999902    2    1    2    0    0  0.43197937865E-02 -0.89254342334E-02  0.11909064345E-01  0.10284332323E+01  0.10283164705E+01 0.  0.
     999903    2    3    3    0    0 -0.93546589838E-01 -0.35168269274E-01 -0.83409078737E-01  0.13750559002E+00  0.44305092675E-01 0.  0.
         14    1    1    2    0    0 -0.43197937865E-02  0.89254342334E-02 -0.11909064345E-01  0.15496767669E-01  0.00000000000E+00 0. -1.
     999901    1    3    3    0    0  0.97866383624E-01  0.26242835040E-01  0.95318143082E-01  0.89092764231E+00  0.88000000000E+00 0. -1.
        -11    1    4    4    0    0 -0.41113042847E-01 -0.10012794952E-01 -0.93465982525E-02  0.43337724615E-01  0.51100000000E-03 0. -1.
         11    1    4    4    0    0 -0.52433546990E-01 -0.25155474322E-01 -0.74062480484E-01  0.94167865404E-01  0.51100000000E-03 0.  1.
</event>
<event>
 8    1  0.2922807E+004  0.1043930E+01  0.7957747E-01            NaN
         13   -1    0    0    0    0  0.00000000000E+00  0.00000000000E+00  0.74505805969E-08  0.10566000000E+00  0.10566000000E+00 0.  1.
     999900   -1    0    0    0    0 -0.00000000000E+00 -0.00000000000E+00 -0.74505805969E-08  0.93827000000E+00  0.93827000000E+00 0.  1.
     999902    2    1    2    0    0  0.53347641846E-02 -0.10658202045E-01 -0.10682415154E-01  0.10279246580E+01  0.10278000445E+01 0.  0.
     999903    2    3    3    0    0  0.77471913581E-01  0.93505467844E-01  0.45737558559E-01  0.13706156419E+00  0.44144968041E-01 0.  0.
         14    1    1    2    0    0 -0.53347641846E-02  0.10658202045E-01  0.10682415154E-01  0.16005342022E-01  0.00000000000E+00 0.  1.
     999901    1    3    3    0    0 -0.72137149396E-01 -0.10416366989E+00 -0.56419973712E-01  0.89086309379E+00  0.88000000000E+00 0.  1.
        -11    1    4    4    0    0  0.73527703625E-01  0.82621412551E-01  0.53751950833E-01  0.12297216901E+00  0.51100000000E-03 0. -1.
         11    1    4    4    0    0  0.39442099554E-02  0.10884055293E-01 -0.80143922745E-02  0.14089395172E-01  0.51100000000E-03 0.  1.
</event>
<event>
 8    1  0.2922807E+004  0.1043930E+01  0.7957747E-01            NaN
         13   -1    0    0    0    0  0.00000000000E+00  0.00000000000E+00  0.74505805969E-08  0.10566000000E+00  0.10566000000E+00 0. -1.
     999900   -1    0    0    0    0 -0.00000000000E+00 -0.00000000000E+00 -0.74505805969E-08  0.93827000000E+00  0.93827000000E+00 0.  1.
     999902    2    1    2    0    0  0.22285425530E-02  0.52781136746E-02 -0.11865124678E-01  0.10307540344E+01  0.10306698178E+01 0.  0.
     999903    2    3    3    0    0 -0.53074275370E-01 -0.45674044410E-01 -0.11420702630E+00  0.14163740037E+00  0.45988164664E-01 0.  0.
         14    1    1    2    0    0 -0.22285425530E-02 -0.52781136746E-02  0.11865124678E-01  0.13175965600E-01  0.00000000000E+00 0. -1.
     999901    1    3    3    0    0  0.55302817923E-01  0.50952158084E-01  0.10234190162E+00  0.88911663403E+00  0.88000000000E+00 0. -1.
        -11    1    4    4    0    0 -0.52441730003E-01 -0.35820668888E-01 -0.62899758287E-01  0.89386218618E-01  0.51100000000E-03 0.  1.
         11    1    4    4    0    0 -0.63254536658E-03 -0.98533755219E-02 -0.51307268009E-01  0.52251181751E-01  0.51100000000E-03 0. -1.
</event>
<event>
 8    1  0.2922807E+004  0.1043930E+01  0.7957747E-01            NaN
         13   -1    0    0    0    0  0.00000000000E+00  0.00000000000E+00  0.74505805969E-08  0.10566000000E+00  0.10566000000E+00 0.  1.
     999900   -1    0    0    0    0 -0.00000000000E+00 -0.00000000000E+00 -0.74505805969E-08  0.93827000000E+00  0.93827000000E+00 0. -1.
     999902    2    1    2    0    0 -0.43020514150E-02  0.19681095342E-01 -0.11878020126E-01  0.10205432404E+01  0.10202752399E+01 0.  0.
     999903    2    3    3    0    0 -0.56011445291E-01 -0.17480917325E-01  0.10714915505E+00  0.13024983655E+00  0.45179796578E-01 0.  0.
         14    1    1    2    0    0  0.43020514150E-02 -0.19681095342E-01  0.11878020126E-01  0.23386759552E-01  0.00000000000E+00 0. -1.
     999901    1    3    3    0    0  0.51709393876E-01  0.37162012668E-01 -0.11902717517E+00  0.89029340390E+00  0.88000000000E+00 0. -1.
        -11    1    4    4    0    0 -0.56778526079E-01 -0.38970713888E-03  0.78638522025E-01  0.96996036839E-01  0.51100000000E-03 0. -1.
         11    1    4    4    0    0  0.76708078787E-03 -0.17091210186E-01  0.28510633023E-01  0.33253799707E-01  0.51100000000E-03 0.  1.
</event>
<event>
 8    1  0.2922807E+004  0.1043930E+01  0.7957747E-01            NaN
         13   -1    0    0    0    0  0.00000000000E+00  0.00000000000E+00  0.74505805969E-08  0.10566000000E+00  0.10566000000E+00 0.  1.
     999900   -1    0    0    0    0 -0.00000000000E+00 -0.00000000000E+00 -0.74505805969E-08  0.93827000000E+00  0.93827000000E+00 0.  1.
     999902    2    1    2    0    0  0.64343251419E-02  0.11455702360E-01  0.55202008165E-02  0.10296784642E+01  0.10295798334E+01 0.  0.
     999903    2    3    3    0    0 -0.18709191148E-01 -0.74859395043E-01 -0.10524246291E+00  0.13819046081E+00  0.45460582914E-01 0.  0.
         14    1    1    2    0    0 -0.64343251419E-02 -0.11455702360E-01 -0.55202008165E-02  0.14251535835E-01  0.00000000000E+00 0. -1.
     999901    1    3    3    0    0  0.25143516290E-01  0.86315097403E-01  0.11076266373E+00  0.89148800336E+00  0.88000000000E+00 0.  1.
        -11    1    4    4    0    0 -0.31616352716E-01 -0.52799324795E-01 -0.87883839401E-01  0.10729022699E+00  0.51100000000E-03 0. -1.
         11    1    4    4    0    0  0.12907161568E-01 -0.22060070247E-01 -0.17358623513E-01  0.30900233823E-01  0.51100000000E-03 0.  1.
</event>
<event>
 8    1  0.2922807E+004  0.1043930E+01  0.7957747E-01            NaN
         13   -1    0    0    0    0  0.00000000000E+00  0.00000000000E+00  0.74505805969E-08  0.10566000000E+00  0.10566000000E+00 0.  1.
     999900   -1    0    0    0    0 -0.00000000000E+00 -0.00000000000E+00 -0.74505805969E-08  0.93827000000E+00  0.93827000000E+00 0. -1.
     999902    2    1    2    0    0 -0.78220159186E-03  0.10005227315E-01  0.92066848732E-02  0.10303109156E+01  0.10302209003E+01 0.  0.
     999903    2    3    3    0    0  0.42365789445E-01  0.26198900775E-01 -0.12184536186E+00  0.13941326541E+00  0.45918665587E-01 0.  0.
         14    1    1    2    0    0  0.78220159186E-03 -0.10005227315E-01 -0.92066848732E-02  0.13619084378E-01  0.00000000000E+00 0.  1.
     999901    1    3    3    0    0 -0.43147991037E-01 -0.16193673460E-01  0.13105204673E+00  0.89089765021E+00  0.88000000000E+00 0.  1.
        -11    1    4    4    0    0  0.42502471866E-01  0.36437378779E-01 -0.90335272909E-01  0.10627730397E+00  0.51100000000E-03 0.  1.
         11    1    4    4    0    0 -0.13668242075E-03 -0.10238478005E-01 -0.31510088953E-01  0.33135961443E-01  0.51100000000E-03 0. -1.
</event>
<event>
 8    1  0.2922807E+004  0.1043930E+01  0.7957747E-01            NaN
         13   -1    0    0    0    0  0.00000000000E+00  0.00000000000E+00  0.74505805969E-08  0.10566000000E+00  0.10566000000E+00 0.  1.
     999900   -1    0    0    0    0 -0.00000000000E+00 -0.00000000000E+00 -0.74505805969E-08  0.93827000000E+00  0.93827000000E+00 0.  1.
     999902    2    1    2    0    0  0.12496100621E-01 -0.12285696439E-02 -0.55018613804E-02  0.10302211564E+01  0.10301299426E+01 0.  0.
     999903    2    3    3    0    0  0.31101244616E-01 -0.10857814127E+00  0.69977938942E-01  0.14029572011E+00  0.45049716584E-01 0.  0.
         14    1    1    2    0    0 -0.12496100621E-01  0.12285696439E-02  0.55018613804E-02  0.13708843597E-01  0.00000000000E+00 0. -1.
     999901    1    3    3    0    0 -0.18605143995E-01  0.10734957162E+00 -0.75479800322E-01  0.88992543630E+00  0.88000000000E+00 0. -1.
        -11    1    4    4    0    0  0.37857096234E-01 -0.53527637347E-01  0.44628875271E-01  0.79311823357E-01  0.51100000000E-03 0. -1.
         11    1    4    4    0    0 -0.67558516182E-02 -0.55050503919E-01  0.25349063671E-01  0.60983896750E-01  0.51100000000E-03 0.  1.
</event>
<event>
 8    1  0.2922807E+004  0.1043930E+01  0.7957747E-01            NaN
         13   -1    0    0    0    0  0.00000000000E+00  0.00000000000E+00  0.74505805969E-08  0.10566000000E+00  0.10566000000E+00 0.  1.
     999900   -1    0    0    0    0 -0.00000000000E+00 -0.00000000000E+00 -0.74505805969E-08  0.93827000000E+00  0.93827000000E+00 0. -1.
     999902    2    1    2    0    0 -0.11315285927E-01 -0.36448184134E-02  0.28068618837E-02  0.10317153010E+01  0.10316429923E+01 0.  0.
     999903    2    3    3    0    0 -0.22447109223E-01  0.50232029362E-01 -0.12168341297E+00  0.14125224131E+00  0.46024050215E-01 0.  0.
         14    1    1    2    0    0  0.11315285927E-01  0.36448184134E-02 -0.28068618837E-02  0.12214698953E-01  0.00000000000E+00 0.  1.
     999901    1    3    3    0    0  0.11131823296E-01 -0.53876847775E-01  0.12449027485E+00  0.89046305973E+00  0.88000000000E+00 0.  1.
        -11    1    4    4    0    0  0.72187388782E-02 -0.37976830314E-02 -0.58889937398E-02  0.10073428198E-01  0.51100000000E-03 0.  1.
         11    1    4    4    0    0 -0.29665848101E-01  0.54029712393E-01 -0.11579441923E+00  0.13117881312E+00  0.51100000000E-03 0. -1.
</event>
<event>
 8    1  0.2922807E+004  0.1043930E+01  0.7957747E-01            NaN
         13   -1    0    0    0    0  0.00000000000E+00  0.00000000000E+00  0.74505805969E-08  0.10566000000E+00  0.10566000000E+00 0. -1.
     999900   -1    0    0    0    0 -0.00000000000E+00 -0.00000000000E+00 -0.74505805969E-08  0.93827000000E+00  0.93827000000E+00 0. -1.
     999902    2    1    2    0    0 -0.98163478846E-02 -0.56556917622E-02  0.83011019730E-02  0.10298852206E+01  0.10297894502E+01 0.  0.
     999903    2    3    3    0    0  0.10087294058E+00 -0.84499620797E-01  0.43344421362E-02  0.13944475759E+00  0.45940363239E-01 0.  0.
         14    1    1    2    0    0  0.98163478846E-02  0.56556917622E-02 -0.83011019730E-02  0.14044779424E-01  0.00000000000E+00 0. -1.
     999901    1    3    3    0    0 -0.11068928847E+00  0.78843929035E-01  0.39666598368E-02  0.89044046298E+00  0.88000000000E+00 0.  1.
        -11    1    4    4    0    0  0.46962950709E-01 -0.34999622466E-01 -0.20652340559E-01  0.62106944891E-01  0.51100000000E-03 0.  1.
         11    1    4    4    0    0  0.53909989875E-01 -0.49499998331E-01  0.24986782695E-01  0.77337812702E-01  0.51100000000E-03 0. -1.
</event>
<event>
 8    1  0.2922807E+004  0.1043930E+01  0.7957747E-01            NaN
         13   -1    0    0    0    0  0.00000000000E+00  0.00000000000E+00  0.74505805969E-08  0.10566000000E+00  0.10566000000E+00 0. -1.
     999900   -1    0    0    0    0 -0.00000000000E+00 -0.00000000000E+00 -0.74505805969E-08  0.93827000000E+00  0.93827000000E+00 0.  1.
     999902    2    1    2    0    0 -0.32898191699E-02 -0.39478014310E-02  0.12510682159E-01  0.10304050152E+01  0.10303162476E+01 0.  0.
     999903    2    3    3    0    0 -0.65847026674E-01 -0.53464861229E-01  0.10473689313E+00  0.14199575284E+00  0.44706316473E-01 0.  0.
         14    1    1    2    0    0  0.32898191699E-02  0.39478014310E-02 -0.12510682159E-01  0.13524984821E-01  0.00000000000E+00 0.  1.
     999901    1    3    3    0    0  0.62557207504E-01  0.49517059798E-01 -0.92226210975E-01  0.88840926234E+00  0.88000000000E+00 0.  1.
        -11    1    4    4    0    0 -0.39958188847E-01 -0.60540300123E-02  0.32909273852E-01  0.52120912903E-01  0.51100000000E-03 0.  1.
         11    1    4    4    0    0 -0.25888837827E-01 -0.47410831217E-01  0.71827619282E-01  0.89874839936E-01  0.51100000000E-03 0. -1.
</event>
<event>
 8    1  0.2922807E+004  0.1043930E+01  0.7957747E-01            NaN
         13   -1    0    0    0    0  0.00000000000E+00  0.00000000000E+00  0.74505805969E-08  0.10566000000E+00  0.10566000000E+00 0. -1.
     999900   -1    0    0    0    0 -0.00000000000E+00 -0.00000000000E+00 -0.74505805969E-08  0.93827000000E+00  0.93827000000E+00 0. -1.
     999902    2    1    2    0    0  0.33134026019E-02  0.45266925351E-02 -0.13615670031E-01  0.10292039668E+01  0.10290986101E+01 0.  0.
     999903    2    3    3    0    0 -0.11908045036E+00 -0.35585961077E-01  0.40327399245E-01  0.13819379016E+00  0.44996780182E-01 0.  0.
         14    1    1    2    0    0 -0.33134026019E-02 -0.45266925351E-02  0.13615670031E-01  0.14726033156E-01  0.00000000000E+00 0. -1.
     999901    1    3    3    0    0  0.12239385296E+00  0.40112653612E-01 -0.53943069276E-01  0.89101017668E+00  0.88000000000E+00 0.  1.
        -11    1    4    4    0    0 -0.50486256994E-01 -0.80600252967E-02 -0.51882365708E-02  0.51390709985E-01  0.51100000000E-03 0.  1.
         11    1    4    4    0    0 -0.68594193366E-01 -0.27525935780E-01  0.45515635816E-01  0.86803080180E-01  0.51100000000E-03 0. -1.
</event>
<event>
 8    1  0.2922807E+004  0.1043930E+01  0.7957747E-01            NaN
         13   -1    0    0    0    0  0.00000000000E+00  0.00000000000E+00  0.74505805969E-08  0.10566000000E+00  0.10566000000E+00 0. -1.
     999900   -1    0    0    0    0 -0.00000000000E+00 -0.00000000000E+00 -0.74505805969E-08  0.93827000000E+00  0.93827000000E+00 0.  1.
     999902    2    1    2    0    0 -0.10118716315E-01 -0.82843952835E-02 -0.65713658876E-02  0.10292943424E+01  0.10291902840E+01 0.  0.
     999903    2    3    3    0    0  0.49594003838E-01  0.12056383781E+00 -0.40227710440E-02  0.13790555431E+00  0.44794586931E-01 0.  0.
         14    1    1    2    0    0  0.10118716315E-01  0.82843952835E-02  0.65713658876E-02  0.14635657645E-01  0.00000000000E+00 0. -1.
     999901    1    3    3    0    0 -0.59712720154E-01 -0.12884823309E+00 -0.25485948436E-02  0.89138878805E+00  0.88000000000E+00 0. -1.
        -11    1    4    4    0    0  0.34829474169E-01  0.11725758659E+00 -0.68133022361E-02  0.12251169778E+00  0.51100000000E-03 0.  1.
         11    1    4    4    0    0  0.14764529669E-01  0.33062512139E-02  0.27905311921E-02  0.15393856527E-01  0.51100000000E-03 0. -1.
</event>
<event>
 8    1  0.2922807E+004  0.1043930E+01  0.7957747E-01            NaN
         13   -1    0    0    0    0  0.00000000000E+00  0.00000000000E+00  0.74505805969E-08  0.10566000000E+00  0.10566000000E+00 0. -1.
     999900   -1    0    0    0    0 -0.00000000000E+00 -0.00000000000E+00 -0.74505805969E-08  0.93827000000E+00  0.93827000000E+00 0. -1.
     999902    2    1    2    0    0  0.17882904911E-01  0.48963615385E-02 -0.15092394783E-01  0.10200228248E+01  0.10197426196E+01 0.  0.
     999903    2    3    3    0    0 -0.70267811783E-01  0.79910512307E-01 -0.61956511818E-01  0.13120680498E+00  0.45314026167E-01 0.  0.
         14    1    1    2    0    0 -0.17882904911E-01 -0.48963615385E-02  0.15092394783E-01  0.23907175171E-01  0.00000000000E+00 0.  1.
     999901    1    3    3    0    0  0.88150716694E-01 -0.75014150768E-01  0.46864117035E-01  0.88881601985E+00  0.88000000000E+00 0.  1.
        -11    1    4    4    0    0 -0.65190649770E-01  0.66166171161E-01 -0.68236507546E-01  0.11525738634E+00  0.51100000000E-03 0.  1.
         11    1    4    4    0    0 -0.50771620137E-02  0.13744341146E-01  0.62799957280E-02  0.15949418641E-01  0.51100000000E-03 0. -1.
</event>
<event>
 8    1  0.2922807E+004  0.1043930E+01  0.7957747E-01            NaN
         13   -1    0    0    0    0  0.00000000000E+00  0.00000000000E+00  0.74505805969E-08  0.10566000000E+00  0.10566000000E+00 0. -1.
     999900   -1    0    0    0    0 -0.00000000000E+00 -0.00000000000E+00 -0.74505805969E-08  0.93827000000E+00  0.93827000000E+00 0. -1.
     999902    2    1    2    0    0  0.28693922736E-02 -0.29776057564E-02  0.13330714110E-01  0.10299726547E+01  0.10298780811E+01 0.  0.
     999903    2    3    3    0    0  0.11267444217E+00 -0.33881022861E-01  0.63586204430E-01  0.14118821266E+00  0.45248783103E-01 0.  0.
         14    1    1    2    0    0 -0.28693922736E-02  0.29776057564E-02 -0.13330714110E-01  0.13957345262E-01  0.00000000000E+00 0.  1.
     999901    1    3    3    0    0 -0.10980504990E+00  0.30903417105E-01 -0.50255490320E-01  0.88878444208E+00  0.88000000000E+00 0. -1.
        -11    1    4    4    0    0  0.93243217217E-01 -0.86916940746E-02  0.41353702616E-01  0.10237300886E+00  0.51100000000E-03 0.  1.
         11    1    4    4    0    0  0.19431224952E-01 -0.25189328786E-01  0.22232501814E-01  0.38815203796E-01  0.51100000000E-03 0. -1.
</event>
<event>
 8    1  0.2922807E+004  0.1043930E+01  0.7957747E-01            NaN
         13   -1    0    0    0    0  0.00000000000E+00  0.00000000000E+00  0.74505805969E-08  0.10566000000E+00  0.10566000000E+00 0.  1.
     999900   -1    0    0    0    0 -0.00000000000E+00 -0.00000000000E+00 -0.74505805969E-08  0.93827000000E+00  0.93827000000E+00 0.  1.
     999902    2    1    2    0    0  0.11366414361E-01 -0.68913527400E-02 -0.22590262846E-02  0.10304470731E+01  0.10303588604E+01 0.  0.
     999903    2    3    3    0    0  0.31639210376E-01 -0.53490747302E-01  0.11849424984E+00  0.14074833559E+00  0.43668146826E-01 0.  0.
         14    1    1    2    0    0 -0.11366414361E-01  0.68913527400E-02  0.22590262846E-02  0.13482926899E-01  0.00000000000E+00 0. -1.
     999901    1    3    3    0    0 -0.20272796014E-01  0.46599394562E-01 -0.12075327612E+00  0.88969873751E+00  0.88000000000E+00 0.  1.
        -11    1    4    4    0    0  0.42006646384E-02 -0.28859254011E-01  0.19439720312E-01  0.35052331909E-01  0.51100000000E-03 0.  1.
         11    1    4    4    0    0  0.27438545737E-01 -0.24631493291E-01  0.99054529525E-01  0.10569600368E+00  0.51100000000E-03 0. -1.
</event>
<event>
 8    1  0.2922807E+004  0.1043930E+01  0.7957747E-01            NaN
         13   -1    0    0    0    0  0.00000000000E+00  0.00000000000E+00  0.74505805969E-08  0.10566000000E+00  0.10566000000E+00 0. -1.
     999900   -1    0    0    0    0 -0.00000000000E+00 -0.00000000000E+00 -0.74505805969E-08  0.93827000000E+00  0.93827000000E+00 0.  1.
     999902    2    1    2    0    0  0.36336094851E-03 -0.67480978848E-02  0.11535366156E-01  0.10305608741E+01  0.10304741538E+01 0.  0.
     999903    2    3    3    0    0  0.11551762946E+00 -0.35422292455E-01 -0.55188889909E-01  0.14009198558E+00  0.44507182964E-01 0.  0.
         14    1    1    2    0    0 -0.36336094851E-03  0.67480978848E-02 -0.11535366156E-01  0.13369125947E-01  0.00000000000E+00 0.  1.
     999901    1    3    3    0    0 -0.11515426851E+00  0.28674194570E-01  0.66724256065E-01  0.89046888847E+00  0.88000000000E+00 0.  1.
        -11    1    4    4    0    0  0.11428860989E+00 -0.37761213129E-01 -0.43324204126E-01  0.12792592916E+00  0.51100000000E-03 0. -1.
         11    1    4    4    0    0  0.12290195690E-02  0.23389206742E-02 -0.11864685783E-01  0.12166056418E-01  0.51100000000E-03 0.  1.
</event>
<event>
 8    1  0.2922807E+004  0.1043930E+01  0.7957747E-01            NaN
         13   -1    0    0    0    0  0.00000000000E+00  0.00000000000E+00  0.74505805969E-08  0.10566000000E+00  0.10566000000E+00 0.  1.
     999900   -1    0    0    0    0 -0.00000000000E+00 -0.00000000000E+00 -0.74505805969E-08  0.93827000000E+00  0.93827000000E+00 0.  1.
     999902    2    1    2    0    0 -0.50545860316E-02 -0.66980580920E-02  0.69041730190E-02  0.10330635182E+01  0.10330063660E+01 0.  0.
     999903    2    3    3    0    0  0.13378694268E+00 -0.13857366077E-01  0.45495735300E-03  0.14212591196E+00  0.45919442911E-01 0.  0.
         14    1    1    2    0    0  0.50545860316E-02  0.66980580920E-02 -0.69041730190E-02  0.10866481824E-01  0.00000000000E+00 0. -1.
     999901    1    3    3    0    0 -0.13884152871E+00  0.71593079851E-02  0.64492156660E-02  0.89093760622E+00  0.88000000000E+00 0. -1.
        -11    1    4    4    0    0  0.37480909651E-01  0.16290235981E-01  0.45727960413E-02  0.41126171244E-01  0.51100000000E-03 0. -1.
         11    1    4    4    0    0  0.96306033032E-01 -0.30147602058E-01 -0.41178386883E-02  0.10099974072E+00  0.51100000000E-03 0.  1.
</event>
<event>
 8    1  0.2922807E+004  0.1043930E+01  0.7957747E-01            NaN
         13   -1    0    0    0    0  0.00000000000E+00  0.00000000000E+00  0.74505805969E-08  0.10566000000E+00  0.10566000000E+00 0. -1.
     999900   -1    0    0    0    0 -0.00000000000E+00 -0.00000000000E+00 -0.74505805969E-08  0.93827000000E+00  0.93827000000E+00 0. -1.
     999902    2    1    2    0    0  0.69907558600E-03  0.14233445356E-01  0.15970107259E-03  0.10296785026E+01  0.10295798724E+01 0.  0.
     999903    2    3    3    0    0 -0.45450232600E-01 -0.11868302870E+00  0.29396141994E-01  0.13802200081E+00  0.45106037278E-01 0.  0.
         14    1    1    2    0    0 -0.69907558600E-03 -0.14233445356E-01 -0.15970107259E-03  0.14251497388E-01  0.00000000000E+00 0. -1.
     999901    1    3    3    0    0  0.46149308186E-01  0.13291647406E+00 -0.29236440921E-01  0.89165650180E+00  0.88000000000E+00 0.  1.
        -11    1    4    4    0    0 -0.34407802777E-01 -0.10210000145E+00  0.68944865230E-02  0.10796343017E+00  0.51100000000E-03 0. -1.
         11    1    4    4    0    0 -0.11042429823E-01 -0.16583027248E-01  0.22501655471E-01  0.30058570642E-01  0.51100000000E-03 0.  1.
</event>
<event>
 8    1  0.2922807E+004  0.1043930E+01  0.7957747E-01            NaN
         13   -1    0    0    0    0  0.00000000000E+00  0.00000000000E+00  0.74505805969E-08  0.10566000000E+00  0.10566000000E+00 0. -1.
     999900   -1    0    0    0    0 -0.00000000000E+00 -0.00000000000E+00 -0.74505805969E-08  0.93827000000E+00  0.93827000000E+00 0.  1.
     999902    2    1    2    0    0  0.62945168123E-02  0.10577539403E-01 -0.58934026934E-02  0.10302831147E+01  0.10301927291E+01 0.  0.
     999903    2    3    3    0    0  0.97049339815E-02  0.12124491561E+00 -0.57031261842E-01  0.14187218520E+00  0.45613997857E-01 0.  0.
         14    1    1    2    0    0 -0.62945168123E-02 -0.10577539403E-01  0.58934026934E-02  0.13646885250E-01  0.00000000000E+00 0.  1.
     999901    1    3    3    0    0 -0.34104171692E-02 -0.11066737621E+00  0.51137859149E-01  0.88841092955E+00  0.88000000000E+00 0. -1.
        -11    1    4    4    0    0  0.26656215515E-01  0.51194643129E-01 -0.22472765804E-01  0.61941356416E-01  0.51100000000E-03 0. -1.
         11    1    4    4    0    0 -0.16951281534E-01  0.70050272486E-01 -0.34558496038E-01  0.79930828786E-01  0.51100000000E-03 0.  1.
</event>
<event>
 8    1  0.2922807E+004  0.1043930E+01  0.7957747E-01            NaN
         13   -1    0    0    0    0  0.00000000000E+00  0.00000000000E+00  0.74505805969E-08  0.10566000000E+00  0.10566000000E+00 0. -1.
     999900   -1    0    0    0    0 -0.00000000000E+00 -0.00000000000E+00 -0.74505805969E-08  0.93827000000E+00  0.93827000000E+00 0. -1.
     999902    2    1    2    0    0 -0.33634177715E-02 -0.10946183687E-01  0.88828309515E-02  0.10294373742E+01  0.10293353541E+01 0.  0.
     999903    2    3    3    0    0  0.50372942979E-01  0.11820514737E+00 -0.25511425818E-01  0.13772518540E+00  0.42514745642E-01 0.  0.
         14    1    1    2    0    0  0.33634177715E-02  0.10946183687E-01 -0.88828309515E-02  0.14492625785E-01  0.00000000000E+00 0.  1.
     999901    1    3    3    0    0 -0.53736360751E-01 -0.12915133106E+00  0.34394256770E-01  0.89171218881E+00  0.88000000000E+00 0. -1.
        -11    1    4    4    0    0  0.43677947411E-01  0.55090851632E-01 -0.23820018521E-01  0.74232199394E-01  0.51100000000E-03 0.  1.
         11    1    4    4    0    0  0.66949955677E-02  0.63114295740E-01 -0.16914072971E-02  0.63492986007E-01  0.51100000000E-03 0. -1.
</event>
<event>
 8    1  0.2922807E+004  0.1043930E+01  0.7957747E-01            NaN
         13   -1    0    0    0    0  0.00000000000E+00  0.00000000000E+00  0.74505805969E-08  0.10566000000E+00  0.10566000000E+00 0. -1.
     999900   -1    0    0    0    0 -0.00000000000E+00 -0.00000000000E+00 -0.74505805969E-08  0.93827000000E+00  0.93827000000E+00 0. -1.
     999902    2    1    2    0    0 -0.11459380606E-01 -0.37544611065E-02 -0.65309515693E-02  0.10302162583E+01  0.10301249789E+01 0.  0.
     999903    2    3    3    0    0  0.32890331662E-01  0.83852612686E-02  0.12707772577E+00  0.13894438707E+00  0.44773963299E-01 0.  0.
         14    1    1    2    0    0  0.11459380606E-01  0.37544611065E-02  0.65309515693E-02  0.13713741666E-01  0.00000000000E+00 0.  1.
     999901    1    3    3    0    0 -0.44349712268E-01 -0.12139722375E-01 -0.13360867734E+00  0.89127187126E+00  0.88000000000E+00 0. -1.
        -11    1    4    4    0    0 -0.78006986547E-02  0.79456114876E-02  0.55481035895E-01  0.56589664307E-01  0.51100000000E-03 0.  1.
         11    1    4    4    0    0  0.40691030317E-01  0.43964978106E-03  0.71596689874E-01  0.82354722768E-01  0.51100000000E-03 0. -1.
</event>
<event>
 8    1  0.2922807E+004  0.1043930E+01  0.7957747E-01            NaN
         13   -1    0    0    0    0  0.00000000000E+00  0.00000000000E+00  0.74505805969E-08  0.10566000000E+00  0.10566000000E+00 0. -1.
     999900   -1    0    0    0    0 -0.00000000000E+00 -0.00000000000E+00 -0.74505805969E-08  0.93827000000E+00  0.93827000000E+00 0. -1.
     999902    2    1    2    0    0  0.76355017389E-02 -0.19890316164E-02 -0.66948746983E-02  0.10335821267E+01  0.10335303258E+01 0.  0.
     999903    2    3    3    0    0 -0.13003561347E-01 -0.50729376191E-01  0.12290455442E+00  0.14251669473E+00  0.49627780150E-01 0.  0.
         14    1    1    2    0    0 -0.76355017389E-02  0.19890316164E-02  0.66948746983E-02  0.10347873250E-01  0.00000000000E+00 0. -1.
     999901    1    3    3    0    0  0.20639063086E-01  0.48740344575E-01 -0.12959942912E+00  0.89106543202E+00  0.88000000000E+00 0. -1.
        -11    1    4    4    0    0 -0.27808116430E-01 -0.11302959049E-01  0.52306462984E-01  0.60309828499E-01  0.51100000000E-03 0.  1.
         11    1    4    4    0    0  0.14804555083E-01 -0.39426417143E-01  0.70598091437E-01  0.82206866230E-01  0.51100000000E-03 0. -1.
</event>
<event>
 8    1  0.2922807E+004  0.1043930E+01  0.7957747E-01            NaN
         13   -1    0    0    0    0  0.00000000000E+00  0.00000000000E+00  0.74505805969E-08  0.10566000000E+00  0.10566000000E+00 0.  1.
     999900   -1    0    0    0    0 -0.00000000000E+00 -0.00000000000E+00 -0.74505805969E-08  0.93827000000E+00  0.93827000000E+00 0.  1.
     999902    2    1    2    0    0  0.79318547170E-02 -0.10910292100E-01 -0.30909817143E-02  0.10300915405E+01  0.10299985820E+01 0.  0.
     999903    2    3    3    0    0  0.10450605791E+00 -0.56607701606E-01  0.61497037315E-01  0.14127972570E+00  0.45300411396E-01 0.  0.
         14    1    1    2    0    0 -0.79318547170E-02  0.10910292100E-01  0.30909817143E-02  0.13838459485E-01  0.00000000000E+00 0. -1.
     999901    1    3    3    0    0 -0.96574203197E-01  0.45697409506E-01 -0.64588019030E-01  0.88881181482E+00  0.88000000000E+00 0.  1.
        -11    1    4    4    0    0  0.34049531716E-01 -0.40379326072E-01  0.13577890371E-01  0.54538800978E-01  0.51100000000E-03 0.  1.
         11    1    4    4    0    0  0.70456526197E-01 -0.16228375533E-01  0.47919146945E-01  0.86740924719E-01  0.51100000000E-03 0. -1.
</event>
<event>
 8    1  0.2922807E+004  0.1043930E+01  0.7957747E-01            NaN
         13   -1    0    0    0    0  0.00000000000E+00  0.00000000000E+00  0.74505805969E-08  0.10566000000E+00  0.10566000000E+00 0. -1.
     999900   -1    0    0    0    0 -0.00000000000E+00 -0.00000000000E+00 -0.74505805969E-08  0.93827000000E+00  0.93827000000E+00 0.  1.
     999902    2    1    2    0    0  0.28362481895E-02 -0.10200505991E-01  0.93015872328E-02  0.10298369467E+01  0.10297405123E+01 0.  0.
     999903    2    3    3    0    0  0.79205111962E-01  0.10270981377E+00  0.21720947292E-01  0.13925557245E+00  0.45799118987E-01 0.  0.
         14    1    1    2    0    0 -0.28362481895E-02  0.10200505991E-01 -0.93015872328E-02  0.14093053300E-01  0.00000000000E+00 0.  1.
     999901    1    3    3    0    0 -0.76368863772E-01 -0.11291031976E+00 -0.12419360059E-01  0.89058137425E+00  0.88000000000E+00 0.  1.
        -11    1    4    4    0    0  0.46285179689E-01  0.27066018291E-01 -0.11948677249E-02  0.53633721061E-01  0.51100000000E-03 0. -1.
         11    1    4    4    0    0  0.32919932272E-01  0.75643795482E-01  0.22915815017E-01  0.85621851385E-01  0.51100000000E-03 0.  1.
</event>
<event>
 8    1  0.2922807E+004  0.1043930E+01  0.7957747E-01            NaN
         13   -1    0    0    0    0  0.00000000000E+00  0.00000000000E+00  0.74505805969E-08  0.10566000000E+00  0.10566000000E+00 0. -1.
     999900   -1    0    0    0    0 -0.00000000000E+00 -0.00000000000E+00 -0.74505805969E-08  0.93827000000E+00  0.93827000000E+00 0. -1.
     999902    2    1    2    0    0  0.20988009139E-02  0.23442009213E-02 -0.12922797826E-01  0.10306296637E+01  0.10305438393E+01 0.  0.
     999903    2    3    3    0    0  0.31739031015E-01 -0.12144728852E+00  0.42596568362E-01  0.13973950425E+00  0.44225009143E-01 0.  0.
         14    1    1    2    0    0 -0.20988009139E-02 -0.23442009213E-02  0.12922797826E-01  0.13300336345E-01  0.00000000000E+00 0. -1.
     999901    1    3    3    0    0 -0.29640230101E-01  0.12379148944E+00 -0.55519366188E-01  0.89089015940E+00  0.88000000000E+00 0. -1.
        -11    1    4    4    0    0  0.16352197346E-01 -0.13462175017E-01  0.18284489376E-01  0.27985856910E-01  0.51100000000E-03 0.  1.
         11    1    4    4    0    0  0.15386833668E-01 -0.10798511350E+00  0.24312078986E-01  0.11175364734E+00  0.51100000000E-03 0. -1.
</event>
<event>
 8    1  0.2922807E+004  0.1043930E+01  0.7957747E-01            NaN
         13   -1    0    0    0    0  0.00000000000E+00  0.00000000000E+00  0.74505805969E-08  0.10566000000E+00  0.10566000000E+00 0.  1.
     999900   -1    0    0    0    0 -0.00000000000E+00 -0.00000000000E+00 -0.74505805969E-08  0.93827000000E+00  0.93827000000E+00 0. -1.
     999902    2    1    2    0    0 -0.33715689548E-02  0.13059546100E-01  0.44211210331E-02  0.10297361445E+01  0.10296383160E+01 0.  0.
     999903    2    3    3    0    0 -0.11204687740E+00  0.51807177905E-01  0.51215764299E-01  0.14097214872E+00  0.44850928449E-01 0.  0.
         14    1    1    2    0    0  0.33715689548E-02 -0.13059546100E-01 -0.44211210331E-02  0.14193855458E-01  0.00000000000E+00 0.  1.
     999901    1    3    3    0    0  0.10867530845E+00 -0.38747631805E-01 -0.46794643266E-01  0.88876399583E+00  0.88000000000E+00 0. -1.
        -11    1    4    4    0    0 -0.37127737172E-01  0.28839556042E-01  0.40162246747E-01  0.61834100988E-01  0.51100000000E-03 0.  1.
         11    1    4    4    0    0 -0.74919140232E-01  0.22967621864E-01  0.11053517552E-01  0.79138047729E-01  0.51100000000E-03 0. -1.
</event>
<event>
 8    1  0.2922807E+004  0.1043930E+01  0.7957747E-01            NaN
         13   -1    0    0    0    0  0.00000000000E+00  0.00000000000E+00  0.74505805969E-08  0.10566000000E+00  0.10566000000E+00 0.  1.
     999900   -1    0    0    0    0 -0.00000000000E+00 -0.00000000000E+00 -0.74505805969E-08  0.93827000000E+00  0.93827000000E+00 0.  1.
     999902    2    1    2    0    0 -0.12544363365E-01 -0.84952356111E-03 -0.22853703644E-02  0.10311508897E+01  0.10310717005E+01 0.  0.
     999903    2    3    3    0    0 -0.10797685164E+00 -0.63400009303E-02 -0.81001153244E-01  0.14248127750E+00  0.45172242701E-01 0.  0.
         14    1    1    2    0    0  0.12544363365E-01  0.84952356111E-03  0.22853703644E-02  0.12779110306E-01  0.00000000000E+00 0.  1.
     999901    1    3    3    0    0  0.95432488270E-01  0.54904773692E-02  0.78715782880E-01  0.88866961219E+00  0.88000000000E+00 0.  1.
        -11    1    4    4    0    0 -0.30137734262E-01 -0.22609597052E-01 -0.27083667988E-01  0.46403266027E-01  0.51100000000E-03 0.  1.
         11    1    4    4    0    0 -0.77839117373E-01  0.16269596122E-01 -0.53917485256E-01  0.96078011474E-01  0.51100000000E-03 0. -1.
</event>
<event>
 8    1  0.2922807E+004  0.1043930E+01  0.7957747E-01            NaN
         13   -1    0    0    0    0  0.00000000000E+00  0.00000000000E+00  0.74505805969E-08  0.10566000000E+00  0.10566000000E+00 0.  1.
     999900   -1    0    0    0    0 -0.00000000000E+00 -0.00000000000E+00 -0.74505805969E-08  0.93827000000E+00  0.93827000000E+00 0. -1.
     999902    2    1    2    0    0 -0.45479430141E-02  0.61267682402E-02  0.10512458477E-01  0.10309402788E+01  0.10308584411E+01 0.  0.
     999903    2    3    3    0    0  0.51989335998E-01  0.37018748333E-03 -0.12106910193E+00  0.13934434495E+00  0.45344138883E-01 0.  0.
         14    1    1    2    0    0  0.45479430141E-02 -0.61267682402E-02 -0.10512458477E-01  0.12989721243E-01  0.00000000000E+00 0. -1.
     999901    1    3    3    0    0 -0.56537279012E-01  0.57565807569E-02  0.13158156041E+00  0.89159593381E+00  0.88000000000E+00 0.  1.
        -11    1    4    4    0    0  0.27926726611E-01 -0.22435117384E-01 -0.63622003562E-01  0.73015457332E-01  0.51100000000E-03 0. -1.
         11    1    4    4    0    0  0.24062609387E-01  0.22805304867E-01 -0.57447098370E-01  0.66328887619E-01  0.51100000000E-03 0.  1.
</event>
<event>
 8    1  0.2922807E+004  0.1043930E+01  0.7957747E-01            NaN
         13   -1    0    0    0    0  0.00000000000E+00  0.00000000000E+00  0.74505805969E-08  0.10566000000E+00  0.10566000000E+00 0. -1.
     999900   -1    0    0    0    0 -0.00000000000E+00 -0.00000000000E+00 -0.74505805969E-08  0.93827000000E+00  0.93827000000E+00 0.  1.
     999902    2    1    2    0    0  0.11020186570E-01  0.70419047524E-02 -0.47230474467E-02  0.10300253205E+01  0.10299314641E+01 0.  0.
     999903    2    3    3    0    0 -0.12835145602E+00  0.25573429389E-01  0.92890306771E-02  0.13875419986E+00  0.45148038017E-01 0.  0.
         14    1    1    2    0    0 -0.11020186570E-01 -0.70419047524E-02  0.47230474467E-02  0.13904679492E-01  0.00000000000E+00 0. -1.
     999901    1    3    3    0    0  0.13937164259E+00 -0.18531524637E-01 -0.14012078124E-01  0.89127112064E+00  0.88000000000E+00 0.  1.
        -11    1    4    4    0    0 -0.86074114488E-01  0.15619029228E-01  0.27431291584E-01  0.91681209295E-01  0.51100000000E-03 0.  1.
         11    1    4    4    0    0 -0.42277341527E-01  0.99544001615E-02 -0.18142260907E-01  0.47072990568E-01  0.51100000000E-03 0. -1.
</event>
<event>
 8    1  0.2922807E+004  0.1043930E+01  0.7957747E-01            NaN
         13   -1    0    0    0    0  0.00000000000E+00  0.00000000000E+00  0.74505805969E-08  0.10566000000E+00  0.10566000000E+00 0. -1.
     999900   -1    0    0    0    0 -0.00000000000E+00 -0.00000000000E+00 -0.74505805969E-08  0.93827000000E+00  0.93827000000E+00 0. -1.
     999902    2    1    2    0    0  0.10305860399E-01  0.61318419791E-02 -0.41525822243E-02  0.10312392875E+01  0.10311611969E+01 0.  0.
     999903    2    3    3    0    0 -0.25356046629E-01 -0.11262913628E+00  0.65390338936E-01  0.13982907921E+00  0.44136419499E-01 0.  0.
         14    1    1    2    0    0 -0.10305860399E-01 -0.61318419791E-02  0.41525822243E-02  0.12690712500E-01  0.00000000000E+00 0. -1.
     999901    1    3    3    0    0  0.35661907028E-01  0.11876097826E+00 -0.69542921160E-01  0.89141020830E+00  0.88000000000E+00 0. -1.
        -11    1    4    4    0    0 -0.35511657322E-01 -0.61194500049E-01  0.43175451511E-01  0.82886822693E-01  0.51100000000E-03 0.  1.
         11    1    4    4    0    0  0.10155610693E-01 -0.51434636228E-01  0.22214887425E-01  0.56942256513E-01  0.51100000000E-03 0. -1.
</event>
<event>
 8    1  0.2922807E+004  0.1043930E+01  0.7957747E-01            NaN
         13   -1    0    0    0    0  0.00000000000E+00  0.00000000000E+00  0.74505805969E-08  0.10566000000E+00  0.10566000000E+00 0.  1.
     999900   -1    0    0    0    0 -0.00000000000E+00 -0.00000000000E+00 -0.74505805969E-08  0.93827000000E+00  0.93827000000E+00 0.  1.
     999902    2    1    2    0    0 -0.25232755837E-01 -0.50453744486E-02 -0.53098992776E-02  0.10176556246E+01  0.10173163852E+01 0.  0.
     999903    2    3    3    0    0 -0.91082121698E-01  0.73617526107E-01  0.36749940104E-01  0.13069845487E+00  0.44900278004E-01 0.  0.
         14    1    1    2    0    0  0.25232755837E-01  0.50453744486E-02  0.53098992776E-02  0.26274375365E-01  0.00000000000E+00 0.  1.
     999901    1    3    3    0    0  0.65849365861E-01 -0.78662900556E-01 -0.42059839382E-01  0.88695716976E+00  0.88000000000E+00 0. -1.
        -11    1    4    4    0    0 -0.94968994295E-01  0.63365160473E-01  0.30977218328E-01  0.11829667204E+00  0.51100000000E-03 0. -1.
         11    1    4    4    0    0  0.38868725977E-02  0.10252365634E-01  0.57727217760E-02  0.12401782831E-01  0.51100000000E-03 0.  1.
</event>
<event>
 8    1  0.2922807E+004  0.1043930E+01  0.7957747E-01            NaN
         13   -1    0    0    0    0  0.00000000000E+00  0.00000000000E+00  0.74505805969E-08  0.10566000000E+00  0.10566000000E+00 0.  1.
     999900   -1    0    0    0    0 -0.00000000000E+00 -0.00000000000E+00 -0.74505805969E-08  0.93827000000E+00  0.93827000000E+00 0. -1.
     999902    2    1    2    0    0 -0.73702665777E-02  0.58374220940E-02 -0.11140451296E-01  0.10293524151E+01  0.10292491868E+01 0.  0.
     999903    2    3    3    0    0  0.11905846404E+00 -0.53118106262E-01  0.72001086607E-02  0.13817546613E+00  0.45212462931E-01 0.  0.
         14    1    1    2    0    0  0.73702665777E-02 -0.58374220940E-02  0.11140451296E-01  0.14577584889E-01  0.00000000000E+00 0.  1.
     999901    1    3    3    0    0 -0.12642873062E+00  0.58955528356E-01 -0.18340559956E-01  0.89117694898E+00  0.88000000000E+00 0.  1.
        -11    1    4    4    0    0  0.11280794889E+00 -0.46928535031E-01 -0.59732489135E-02  0.12232686360E+00  0.51100000000E-03 0. -1.
         11    1    4    4    0    0  0.62505151458E-02 -0.61895712304E-02  0.13173357574E-01  0.15848602537E-01  0.51100000000E-03 0.  1.
</event>
<event>
 8    1  0.2922807E+004  0.1043930E+01  0.7957747E-01            NaN
         13   -1    0    0    0    0  0.00000000000E+00  0.00000000000E+00  0.74505805969E-08  0.10566000000E+00  0.10566000000E+00 0. -1.
     999900   -1    0    0    0    0 -0.00000000000E+00 -0.00000000000E+00 -0.74505805969E-08  0.93827000000E+00  0.93827000000E+00 0.  1.
     999902    2    1    2    0    0  0.16394601798E-02  0.67467760726E-02  0.10644818448E-01  0.10312209884E+01  0.10311426710E+01 0.  0.
     999903    2    3    3    0    0  0.65821511273E-01  0.10327224514E-01  0.11771173167E+00  0.14240408978E+00  0.44539309621E-01 0.  0.
         14    1    1    2    0    0 -0.16394601798E-02 -0.67467760726E-02 -0.10644818448E-01  0.12709011639E-01  0.00000000000E+00 0.  1.
     999901    1    3    3    0    0 -0.64182051093E-01 -0.35804484415E-02 -0.10706691322E+00  0.88881689858E+00  0.88000000000E+00 0.  1.
        -11    1    4    4    0    0  0.59249786452E-01  0.93504082782E-02  0.61901951851E-01  0.86197912351E-01  0.51100000000E-03 0.  1.
         11    1    4    4    0    0  0.65717248208E-02  0.97681623589E-03  0.55809779818E-01  0.56206177431E-01  0.51100000000E-03 0. -1.
</event>
<event>
 8    1  0.2922807E+004  0.1043930E+01  0.7957747E-01            NaN
         13   -1    0    0    0    0  0.00000000000E+00  0.00000000000E+00  0.74505805969E-08  0.10566000000E+00  0.10566000000E+00 0.  1.
     999900   -1    0    0    0    0 -0.00000000000E+00 -0.00000000000E+00 -0.74505805969E-08  0.93827000000E+00  0.93827000000E+00 0. -1.
     999902    2    1    2    0    0 -0.75016303567E-02 -0.10873312808E-01 -0.10589345468E-02  0.10306776518E+01  0.10305924496E+01 0.  0.
     999903    2    3    3    0    0 -0.12584037557E+00 -0.32989473469E-01 -0.37513718583E-01  0.14173325849E+00  0.41915772663E-01 0.  0.
         14    1    1    2    0    0  0.75016303567E-02  0.10873312808E-01  0.10589345468E-02  0.13252348162E-01  0.00000000000E+00 0. -1.
     999901    1    3    3    0    0  0.11833874521E+00  0.22116160661E-01  0.36454784036E-01  0.88894439335E+00  0.88000000000E+00 0.  1.
        -11    1    4    4    0    0 -0.44137791385E-01 -0.28867500739E-01 -0.26577205150E-02  0.52809107421E-01  0.51100000000E-03 0.  1.
         11    1    4    4    0    0 -0.81702584184E-01 -0.41219727300E-02 -0.34855998068E-01  0.88924151072E-01  0.51100000000E-03 0. -1.
</event>
<event>
 8    1  0.2922807E+004  0.1043930E+01  0.7957747E-01            NaN
         13   -1    0    0    0    0  0.00000000000E+00  0.00000000000E+00  0.74505805969E-08  0.10566000000E+00  0.10566000000E+00 0.  1.
     999900   -1    0    0    0    0 -0.00000000000E+00 -0.00000000000E+00 -0.74505805969E-08  0.93827000000E+00  0.93827000000E+00 0. -1.
     999902    2    1    2    0    0  0.83568644549E-03 -0.14958804108E-01  0.20049623563E-02  0.10288143106E+01  0.10287032622E+01 0.  0.
     999903    2    3    3    0    0  0.66501147961E-01  0.62833425817E-01 -0.92684771497E-01  0.13789920265E+00  0.45335208645E-01 0.  0.
         14    1    1    2    0    0 -0.83568644549E-03  0.14958804108E-01 -0.20049623563E-02  0.15115689407E-01  0.00000000000E+00 0. -1.
     999901    1    3    3    0    0 -0.65665461515E-01 -0.77792229925E-01  0.94689733853E-01  0.89091510795E+00  0.88000000000E+00 0.  1.
        -11    1    4    4    0    0  0.16617031172E-03 -0.11880672800E-02 -0.21199338895E-01  0.21239402229E-01  0.51100000000E-03 0. -1.
         11    1    4    4    0    0  0.66334977649E-01  0.64021493097E-01 -0.71485432601E-01  0.11665980042E+00  0.51100000000E-03 0.  1.
</event>
<event>
 8    1  0.2922807E+004  0.1043930E+01  0.7957747E-01            NaN
         13   -1    0    0    0    0  0.00000000000E+00  0.00000000000E+00  0.74505805969E-08  0.10566000000E+00  0.10566000000E+00 0. -1.
     999900   -1    0    0    0    0 -0.00000000000E+00 -0.00000000000E+00 -0.74505805969E-08  0.93827000000E+00  0.93827000000E+00 0. -1.
     999902    2    1    2    0    0  0.90430197114E-02  0.55684346102E-02  0.88733018475E-02  0.10300909554E+01  0.10299979890E+01 0.  0.
     999903    2    3    3    0    0 -0.58651295682E-01  0.52174630090E-01  0.10749628562E+00  0.14077596581E+00  0.45828534982E-01 0.  0.
         14    1    1    2    0    0 -0.90430197114E-02 -0.55684346102E-02 -0.88733018475E-02  0.13839044591E-01  0.00000000000E+00 0.  1.
     999901    1    3    3    0    0  0.67694315394E-01 -0.46606195480E-01 -0.98622983770E-01  0.88931498960E+00  0.88000000000E+00 0. -1.
        -11    1    4    4    0    0 -0.36885356354E-02  0.27360224167E-01  0.51724289538E-01  0.58633185235E-01  0.51100000000E-03 0. -1.
         11    1    4    4    0    0 -0.54962760047E-01  0.24814405923E-01  0.55771996079E-01  0.82142780577E-01  0.51100000000E-03 0.  1.
</event>
<event>
 8    1  0.2922807E+004  0.1043930E+01  0.7957747E-01            NaN
         13   -1    0    0    0    0  0.00000000000E+00  0.00000000000E+00  0.74505805969E-08  0.10566000000E+00  0.10566000000E+00 0. -1.
     999900   -1    0    0    0    0 -0.00000000000E+00 -0.00000000000E+00 -0.74505805969E-08  0.93827000000E+00  0.93827000000E+00 0. -1.
     999902    2    1    2    0    0 -0.78997811717E-03  0.53701008595E-02 -0.12756929996E-01  0.10300663312E+01  0.10299730314E+01 0.  0.
     999903    2    3    3    0    0  0.11380688806E+00 -0.66744687926E-01 -0.81249707939E-02  0.13969874448E+00  0.45198041126E-01 0.  0.
         14    1    1    2    0    0  0.78997811717E-03 -0.53701008595E-02  0.12756929996E-01  0.13863668764E-01  0.00000000000E+00 0. -1.
     999901    1    3    3    0    0 -0.11459686618E+00  0.72114788786E-01 -0.46319592024E-02  0.89036758676E+00  0.88000000000E+00 0.  1.
        -11    1    4    4    0    0  0.66889290214E-01 -0.16240819546E-01  0.67870349546E-02  0.69168391115E-01  0.51100000000E-03 0.  1.
         11    1    4    4    0    0  0.46917597850E-01 -0.50503868380E-01 -0.14912005748E-01  0.70530353365E-01  0.51100000000E-03 0. -1.
</event>
<event>
 8    1  0.2922807E+004  0.1043930E+01  0.7957747E-01            NaN
         13   -1    0    0    0    0  0.00000000000E+00  0.00000000000E+00  0.74505805969E-08  0.10566000000E+00  0.10566000000E+00 0. -1.
     999900   -1    0    0    0    0 -0.00000000000E+00 -0.00000000000E+00 -0.74505805969E-08  0.93827000000E+00  0.93827000000E+00 0. -1.
     999902    2    1    2    0    0  0.58403758451E-02 -0.52713650460E-02  0.11102116093E-01  0.10303228599E+01  0.10302330035E+01 0.  0.
     999903    2    3    3    0    0  0.91443256481E-01 -0.83183603270E-01 -0.49341032239E-01  0.14068723551E+00  0.45573893448E-01 0.  0.
         14    1    1    2    0    0 -0.58403758451E-02  0.52713650460E-02 -0.11102116093E-01  0.13607140081E-01  0.00000000000E+00 0.  1.
     999901    1    3    3    0    0 -0.85602880636E-01  0.77912238224E-01  0.60443148331E-01  0.88963562441E+00  0.88000000000E+00 0. -1.
        -11    1    4    4    0    0  0.74760698995E-02 -0.15140537042E-01 -0.24554395665E-01  0.29804478699E-01  0.51100000000E-03 0. -1.
         11    1    4    4    0    0  0.83967186582E-01 -0.68043066228E-01 -0.24786636574E-01  0.11088275681E+00  0.51100000000E-03 0.  1.
</event>
<event>
 8    1  0.2922807E+004  0.1043930E+01  0.7957747E-01            NaN
         13   -1    0    0    0    0  0.00000000000E+00  0.00000000000E+00  0.74505805969E-08  0.10566000000E+00  0.10566000000E+00 0. -1.
     999900   -1    0    0    0    0 -0.00000000000E+00 -0.00000000000E+00 -0.74505805969E-08  0.93827000000E+00  0.93827000000E+00 0. -1.
     999902    2    1    2    0    0  0.89802574849E-02 -0.31660428056E-02 -0.99091706137E-02  0.10301873469E+01  0.10300956796E+01 0.  0.
     999903    2    3    3    0    0  0.70879403933E-01 -0.10547127475E+00  0.38847984783E-01  0.14076330574E+00  0.46444188257E-01 0.  0.
         14    1    1    2    0    0 -0.89802574849E-02  0.31660428056E-02  0.99091706137E-02  0.13742653084E-01  0.00000000000E+00 0. -1.
     999901    1    3    3    0    0 -0.61899146448E-01  0.10230523194E+00 -0.48757155396E-01  0.88942404117E+00  0.88000000000E+00 0.  1.
        -11    1    4    4    0    0  0.14812285932E-01 -0.47243455236E-01  0.33439320974E-01  0.59747779753E-01  0.51100000000E-03 0.  1.
         11    1    4    4    0    0  0.56067118002E-01 -0.58227819513E-01  0.54086638083E-02  0.81015525990E-01  0.51100000000E-03 0. -1.
</event>
<event>
 8    1  0.2922807E+004  0.1043930E+01  0.7957747E-01            NaN
         13   -1    0    0    0    0  0.00000000000E+00  0.00000000000E+00  0.74505805969E-08  0.10566000000E+00  0.10566000000E+00 0.  1.
     999900   -1    0    0    0    0 -0.00000000000E+00 -0.00000000000E+00 -0.74505805969E-08  0.93827000000E+00  0.93827000000E+00 0. -1.
     999902    2    1    2    0    0 -0.67116882150E-02  0.14097129142E-01  0.29502815727E-02  0.10280403817E+01  0.10279175776E+01 0.  0.
     999903    2    3    3    0    0  0.10700196828E+00  0.12097147427E-03 -0.74843310304E-01  0.13721044753E+00  0.42139648351E-01 0.  0.
         14    1    1    2    0    0  0.67116882150E-02 -0.14097129142E-01 -0.29502815727E-02  0.15889618312E-01  0.00000000000E+00 0. -1.
     999901    1    3    3    0    0 -0.11371365650E+00  0.13976157668E-01  0.77793591877E-01  0.89082993416E+00  0.88000000000E+00 0.  1.
        -11    1    4    4    0    0  0.10275241238E+00 -0.83184500950E-02 -0.59063509265E-01  0.11881083331E+00  0.51100000000E-03 0. -1.
         11    1    4    4    0    0  0.42495558985E-02  0.84394215692E-02 -0.15779801039E-01  0.18399614224E-01  0.51100000000E-03 0.  1.
</event>
<event>
 8    1  0.2922807E+004  0.1043930E+01  0.7957747E-01            NaN
         13   -1    0    0    0    0  0.00000000000E+00  0.00000000000E+00  0.74505805969E-08  0.10566000000E+00  0.10566000000E+00 0. -1.
     999900   -1    0    0    0    0 -0.00000000000E+00 -0.00000000000E+00 -0.74505805969E-08  0.93827000000E+00  0.93827000000E+00 0. -1.
     999902    2    1    2    0    0 -0.76807059188E-03 -0.12244892476E-01  0.80005805372E-02  0.10292829316E+01  0.10291787098E+01 0.  0.
     999903    2    3    3    0    0 -0.18888818886E-01  0.12644175730E+00 -0.25866760561E-01  0.13759389098E+00  0.43802786039E-01 0.  0.
         14    1    1    2    0    0  0.76807059188E-03  0.12244892476E-01 -0.80005805372E-02  0.14647068414E-01  0.00000000000E+00 0. -1.
     999901    1    3    3    0    0  0.18120748294E-01 -0.13868664978E+00  0.33867341098E-01  0.89168904061E+00  0.88000000000E+00 0.  1.
        -11    1    4    4    0    0 -0.21239402531E-01  0.47903753202E-01  0.61159874989E-02  0.52759342441E-01  0.51100000000E-03 0. -1.
         11    1    4    4    0    0  0.23505836453E-02  0.78538004098E-01 -0.31982748060E-01  0.84834548538E-01  0.51100000000E-03 0.  1.
</event>
<event>
 8    1  0.2922807E+004  0.1043930E+01  0.7957747E-01            NaN
         13   -1    0    0    0    0  0.00000000000E+00  0.00000000000E+00  0.74505805969E-08  0.10566000000E+00  0.10566000000E+00 0. -1.
     999900   -1    0    0    0    0 -0.00000000000E+00 -0.00000000000E+00 -0.74505805969E-08  0.93827000000E+00  0.93827000000E+00 0.  1.
     999902    2    1    2    0    0 -0.47928478462E-02  0.12517520403E-01  0.17838202920E-02  0.10304081021E+01  0.10303193753E+01 0.  0.
     999903    2    3    3    0    0  0.98373180184E-01  0.83666383784E-01  0.33594723253E-01  0.14096033881E+00  0.45429784646E-01 0.  0.
         14    1    1    2    0    0  0.47928478462E-02 -0.12517520403E-01 -0.17838202920E-02  0.13521897882E-01  0.00000000000E+00 0. -1.
     999901    1    3    3    0    0 -0.10316602803E+00 -0.71148863381E-01 -0.31810902961E-01  0.88944776330E+00  0.88000000000E+00 0.  1.
        -11    1    4    4    0    0  0.65129019893E-01  0.27477057660E-01  0.93062230472E-02  0.71299683298E-01  0.51100000000E-03 0.  1.
         11    1    4    4    0    0  0.33244160290E-01  0.56189326123E-01  0.24288500206E-01  0.69660655516E-01  0.51100000000E-03 0. -1.
</event>
<event>
 8    1  0.2922807E+004  0.1043930E+01  0.7957747E-01            NaN
         13   -1    0    0    0    0  0.00000000000E+00  0.00000000000E+00  0.74505805969E-08  0.10566000000E+00  0.10566000000E+00 0.  1.
     999900   -1    0    0    0    0 -0.00000000000E+00 -0.00000000000E+00 -0.74505805969E-08  0.93827000000E+00  0.93827000000E+00 0.  1.
     999902    2    1    2    0    0  0.11033237431E-01  0.15381013426E-02 -0.85380661414E-02  0.10298944502E+01  0.10297988065E+01 0.  0.
     999903    2    3    3    0    0 -0.61631626084E-02  0.12830312536E+00 -0.33725434537E-01  0.14028808165E+00  0.45206906214E-01 0.  0.
         14    1    1    2    0    0 -0.11033237431E-01 -0.15381013426E-02  0.85380661414E-02  0.14035549771E-01  0.00000000000E+00 0.  1.
     999901    1    3    3    0    0  0.17196400039E-01 -0.12676502401E+00  0.25187368395E-01  0.88960636858E+00  0.88000000000E+00 0. -1.
        -11    1    4    4    0    0 -0.24572111242E-01  0.70584906164E-01 -0.26376167321E-01  0.79258948723E-01  0.51100000000E-03 0.  1.
         11    1    4    4    0    0  0.18408948634E-01  0.57718219191E-01 -0.73492672156E-02  0.61029132928E-01  0.51100000000E-03 0. -1.
</event>
<event>
 8    1  0.2922807E+004  0.1043930E+01  0.7957747E-01            NaN
         13   -1    0    0    0    0  0.00000000000E+00  0.00000000000E+00  0.74505805969E-08  0.10566000000E+00  0.10566000000E+00 0. -1.
     999900   -1    0    0    0    0 -0.00000000000E+00 -0.00000000000E+00 -0.74505805969E-08  0.93827000000E+00  0.93827000000E+00 0. -1.
     999902    2    1    2    0    0 -0.79459502096E-02 -0.10865917479E-01 -0.57918545834E-02  0.10292755854E+01  0.10291712583E+01 0.  0.
     999903    2    3    3    0    0  0.22070475725E-01 -0.12380090400E+00 -0.44035755874E-01  0.14072739145E+00  0.45291071727E-01 0.  0.
         14    1    1    2    0    0  0.79459502096E-02  0.10865917479E-01  0.57918545834E-02  0.14654414588E-01  0.00000000000E+00 0. -1.
     999901    1    3    3    0    0 -0.30016425934E-01  0.11293498652E+00  0.38243901290E-01  0.88854819396E+00  0.88000000000E+00 0. -1.
        -11    1    4    4    0    0  0.35494416581E-01 -0.92013788142E-01 -0.27059455450E-01  0.10226859766E+00  0.51100000000E-03 0. -1.
         11    1    4    4    0    0 -0.13423940856E-01 -0.31787115862E-01 -0.16976300423E-01  0.38458793793E-01  0.51100000000E-03 0.  1.
</event>
<event>
 8    1  0.2922807E+004  0.1043930E+01  0.7957747E-01            NaN
         13   -1    0    0    0    0  0.00000000000E+00  0.00000000000E+00  0.74505805969E-08  0.10566000000E+00  0.10566000000E+00 0.  1.
     999900   -1    0    0    0    0 -0.00000000000E+00 -0.00000000000E+00 -0.74505805969E-08  0.93827000000E+00  0.93827000000E+00 0. -1.
     999902    2    1    2    0    0 -0.29489239643E-02 -0.59332575097E-02  0.12212342385E-01  0.10300360803E+01  0.10299423701E+01 0.  0.
     999903    2    3    3    0    0  0.10640749043E+00 -0.14351158250E-01  0.78999793488E-01  0.14071597483E+00  0.45072257962E-01 0.  0.
         14    1    1    2    0    0  0.29489239643E-02  0.59332575097E-02 -0.12212342385E-01  0.13893919668E-01  0.00000000000E+00 0. -1.
     999901    1    3    3    0    0 -0.10935641440E+00  0.84179007406E-02 -0.66787451103E-01  0.88932010550E+00  0.88000000000E+00 0. -1.
        -11    1    4    4    0    0  0.62077766140E-01  0.72699033924E-02  0.63287580705E-01  0.88949870920E-01  0.51100000000E-03 0.  1.
         11    1    4    4    0    0  0.44329724294E-01 -0.21621061643E-01  0.15712212784E-01  0.51766103911E-01  0.51100000000E-03 0. -1.
</event>
<event>
 8    1  0.2922807E+004  0.1043930E+01  0.7957747E-01            NaN
         13   -1    0    0    0    0  0.00000000000E+00  0.00000000000E+00  0.74505805969E-08  0.10566000000E+00  0.10566000000E+00 0.  1.
     999900   -1    0    0    0    0 -0.00000000000E+00 -0.00000000000E+00 -0.74505805969E-08  0.93827000000E+00  0.93827000000E+00 0. -1.
     999902    2    1    2    0    0 -0.14695811157E-03  0.21554514597E-01 -0.15562960249E-02  0.10223188743E+01  0.10220904265E+01 0.  0.
     999903    2    3    3    0    0  0.51071719114E-01 -0.15771535492E-01  0.11303821708E+00  0.13262876571E+00  0.44223174337E-01 0.  0.
         14    1    1    2    0    0  0.14695811157E-03 -0.21554514597E-01  0.15562960249E-02  0.21611125689E-01  0.00000000000E+00 0.  1.
     999901    1    3    3    0    0 -0.51218677225E-01  0.37326050090E-01 -0.11459451310E+00  0.88969010860E+00  0.88000000000E+00 0. -1.
        -11    1    4    4    0    0 -0.68016534192E-02  0.45609069734E-03  0.34937177065E-02  0.76770887954E-02  0.51100000000E-03 0.  1.
         11    1    4    4    0    0  0.57873372533E-01 -0.16227626190E-01  0.10954449937E+00  0.12495167691E+00  0.51100000000E-03 0. -1.
</event>
<event>
 8    1  0.2922807E+004  0.1043930E+01  0.7957747E-01            NaN
         13   -1    0    0    0    0  0.00000000000E+00  0.00000000000E+00  0.74505805969E-08  0.10566000000E+00  0.10566000000E+00 0. -1.
     999900   -1    0    0    0    0 -0.00000000000E+00 -0.00000000000E+00 -0.74505805969E-08  0.93827000000E+00  0.93827000000E+00 0.  1.
     999902    2    1    2    0    0 -0.76588010464E-02 -0.79378696925E-02  0.86303200557E-02  0.10299246641E+01  0.10298294346E+01 0.  0.
     999903    2    3    3    0    0 -0.17468790430E-01  0.12083556658E+00  0.50486304919E-01  0.13951422099E+00  0.44821402081E-01 0.  0.
         14    1    1    2    0    0  0.76588010464E-02  0.79378696925E-02 -0.86303200557E-02  0.14005335876E-01  0.00000000000E+00 0. -1.
     999901    1    3    3    0    0  0.98099893834E-02 -0.12877343627E+00 -0.41855984863E-01  0.89041044314E+00  0.88000000000E+00 0. -1.
        -11    1    4    4    0    0 -0.12110318179E-01  0.78674516193E-01  0.89823686507E-02  0.80107948246E-01  0.51100000000E-03 0. -1.
         11    1    4    4    0    0 -0.53584722512E-02  0.42161050382E-01  0.41503936268E-01  0.59406272741E-01  0.51100000000E-03 0.  1.
</event>
<event>
 8    1  0.2922807E+004  0.1043930E+01  0.7957747E-01            NaN
         13   -1    0    0    0    0  0.00000000000E+00  0.00000000000E+00  0.74505805969E-08  0.10566000000E+00  0.10566000000E+00 0. -1.
     999900   -1    0    0    0    0 -0.00000000000E+00 -0.00000000000E+00 -0.74505805969E-08  0.93827000000E+00  0.93827000000E+00 0.  1.
     999902    2    1    2    0    0 -0.98124861315E-02  0.77929788108E-02 -0.32280708269E-02  0.10309902997E+01  0.10309090950E+01 0.  0.
     999903    2    3    3    0    0 -0.90873075220E-01 -0.73440756144E-01  0.64819355037E-01  0.14093401441E+00  0.44826188416E-01 0.  0.
         14    1    1    2    0    0  0.98124861315E-02 -0.77929788108E-02  0.32280708269E-02  0.12939700309E-01  0.00000000000E+00 0. -1.
     999901    1    3    3    0    0  0.81060589088E-01  0.81233734954E-01 -0.68047425864E-01  0.89005628528E+00  0.88000000000E+00 0.  1.
        -11    1    4    4    0    0 -0.41693379168E-01 -0.50777402489E-01  0.15095292593E-01  0.67415216750E-01  0.51100000000E-03 0. -1.
         11    1    4    4    0    0 -0.49179696052E-01 -0.22663353654E-01  0.49724062445E-01  0.73518797662E-01  0.51100000000E-03 0.  1.
</event>
<event>
 8    1  0.2922807E+004  0.1043930E+01  0.7957747E-01            NaN
         13   -1    0    0    0    0  0.00000000000E+00  0.00000000000E+00  0.74505805969E-08  0.10566000000E+00  0.10566000000E+00 0.  1.
     999900   -1    0    0    0    0 -0.00000000000E+00 -0.00000000000E+00 -0.74505805969E-08  0.93827000000E+00  0.93827000000E+00 0.  1.
     999902    2    1    2    0    0 -0.88246668326E-02  0.10978176950E-01 -0.86215334582E-03  0.10298183586E+01  0.10297216679E+01 0.  0.
     999903    2    3    3    0    0  0.29111489540E-01  0.11506446207E+00 -0.59799240367E-01  0.14091640288E+00  0.46842013160E-01 0.  0.
         14    1    1    2    0    0  0.88246668326E-02 -0.10978176950E-01  0.86215334582E-03  0.14111641373E-01  0.00000000000E+00 0. -1.
     999901    1    3    3    0    0 -0.37936156372E-01 -0.10408628512E+00  0.58937087021E-01  0.88890195575E+00  0.88000000000E+00 0. -1.
        -11    1    4    4    0    0  0.23568790423E-01  0.30669010275E-01 -0.25148469903E-02  0.38764179981E-01  0.51100000000E-03 0. -1.
         11    1    4    4    0    0  0.55426991170E-02  0.84395451793E-01 -0.57284393377E-01  0.10215222290E+00  0.51100000000E-03 0.  1.
</event>
<event>
 8    1  0.2922807E+004  0.1043930E+01  0.7957747E-01            NaN
         13   -1    0    0    0    0  0.00000000000E+00  0.00000000000E+00  0.74505805969E-08  0.10566000000E+00  0.10566000000E+00 0. -1.
     999900   -1    0    0    0    0 -0.00000000000E+00 -0.00000000000E+00 -0.74505805969E-08  0.93827000000E+00  0.93827000000E+00 0.  1.
     999902    2    1    2    0    0 -0.87559037042E-02  0.26330656754E-02  0.57161103862E-02  0.10331470133E+01  0.10330907406E+01 0.  0.
     999903    2    3    3    0    0 -0.26016140021E-01  0.61551471391E-01  0.11865281280E+00  0.14380793676E+00  0.46225637006E-01 0.  0.
         14    1    1    2    0    0  0.87559037042E-02 -0.26330656754E-02 -0.57161103862E-02  0.10782986714E-01  0.00000000000E+00 0. -1.
     999901    1    3    3    0    0  0.17260236317E-01 -0.58918405715E-01 -0.11293670241E+00  0.88933907653E+00  0.88000000000E+00 0.  1.
        -11    1    4    4    0    0 -0.91537554048E-02  0.54848008728E-01  0.57390378850E-01  0.79912527209E-01  0.51100000000E-03 0. -1.
         11    1    4    4    0    0 -0.16862384616E-01  0.67034626628E-02  0.61262433951E-01  0.63895409547E-01  0.51100000000E-03 0.  1.
</event>
<event>
 8    1  0.2922807E+004  0.1043930E+01  0.7957747E-01            NaN
         13   -1    0    0    0    0  0.00000000000E+00  0.00000000000E+00  0.74505805969E-08  0.10566000000E+00  0.10566000000E+00 0. -1.
     999900   -1    0    0    0    0 -0.00000000000E+00 -0.00000000000E+00 -0.74505805969E-08  0.93827000000E+00  0.93827000000E+00 0.  1.
     999902    2    1    2    0    0  0.42136671695E-02  0.82466382627E-02 -0.96347157851E-02  0.10305662512E+01  0.10304796011E+01 0.  0.
     999903    2    3    3    0    0  0.49279821989E-02  0.22313422720E-01 -0.13259963417E+00  0.14190503576E+00  0.45079955094E-01 0.  0.
         14    1    1    2    0    0 -0.42136671695E-02 -0.82466382627E-02  0.96347157851E-02  0.13363748797E-01  0.00000000000E+00 0. -1.
     999901    1    3    3    0    0 -0.71431502937E-03 -0.14066784457E-01  0.12296491839E+00  0.88866121544E+00  0.88000000000E+00 0. -1.
        -11    1    4    4    0    0 -0.12888184422E-01  0.11557576594E-01 -0.10928602257E+00  0.11064980219E+00  0.51100000000E-03 0. -1.
         11    1    4    4    0    0  0.17816166621E-01  0.10755846126E-01 -0.23313611599E-01  0.31255233573E-01  0.51100000000E-03 0.  1.
</event>
<event>
 8    1  0.2922807E+004  0.1043930E+01  0.7957747E-01            NaN
         13   -1    0    0    0    0  0.00000000000E+00  0.00000000000E+00  0.74505805969E-08  0.10566000000E+00  0.10566000000E+00 0.  1.
     999900   -1    0    0    0    0 -0.00000000000E+00 -0.00000000000E+00 -0.74505805969E-08  0.93827000000E+00  0.93827000000E+00 0.  1.
     999902    2    1    2    0    0 -0.11389438035E-01 -0.20425726567E-02 -0.72257782834E-02  0.10302880326E+01  0.10301977125E+01 0.  0.
     999903    2    3    3    0    0  0.67777351527E-01  0.11144687055E+00 -0.20444040181E-01  0.13937728697E+00  0.44653051508E-01 0.  0.
         14    1    1    2    0    0  0.11389438035E-01  0.20425726567E-02  0.72257782834E-02  0.13641967366E-01  0.00000000000E+00 0. -1.
     999901    1    3    3    0    0 -0.79166789562E-01 -0.11348944321E+00  0.13218261897E-01  0.89091074566E+00  0.88000000000E+00 0.  1.
        -11    1    4    4    0    0  0.47043851886E-02  0.29190922065E-01  0.10208390324E-01  0.31284397470E-01  0.51100000000E-03 0. -1.
         11    1    4    4    0    0  0.63072966338E-01  0.82255948486E-01 -0.30652430505E-01  0.10809288950E+00  0.51100000000E-03 0.  1.
</event>
<event>
 8    1  0.2922807E+004  0.1043930E+01  0.7957747E-01            NaN
         13   -1    0    0    0    0  0.00000000000E+00  0.00000000000E+00  0.74505805969E-08  0.10566000000E+00  0.10566000000E+00 0.  1.
     999900   -1    0    0    0    0 -0.00000000000E+00 -0.00000000000E+00 -0.74505805969E-08  0.93827000000E+00  0.93827000000E+00 0.  1.
     999902    2    1    2    0    0 -0.83361092654E-02 -0.31995120140E-02 -0.99863619657E-02  0.10305339177E+01  0.10304468451E+01 0.  0.
     999903    2    3    3    0    0 -0.13318271066E+00  0.99947135973E-02  0.12346562464E-01  0.14134354386E+00  0.44587342008E-01 0.  0.
         14    1    1    2    0    0  0.83361092654E-02  0.31995120140E-02  0.99863619657E-02  0.13396082268E-01  0.00000000000E+00 0.  1.
     999901    1    3    3    0    0  0.12484660140E+00 -0.13194225611E-01 -0.22332924430E-01  0.88919037387E+00  0.88000000000E+00 0. -1.
        -11    1    4    4    0    0 -0.86834441754E-01  0.13818706336E-03 -0.12674194491E-01  0.87756114872E-01  0.51100000000E-03 0.  1.
         11    1    4    4    0    0 -0.46348268909E-01  0.98565265340E-02  0.25020756955E-01  0.53587428990E-01  0.51100000000E-03 0. -1.
</event>
<event>
 8    1  0.2922807E+004  0.1043930E+01  0.7957747E-01            NaN
         13   -1    0    0    0    0  0.00000000000E+00  0.00000000000E+00  0.74505805969E-08  0.10566000000E+00  0.10566000000E+00 0. -1.
     999900   -1    0    0    0    0 -0.00000000000E+00 -0.00000000000E+00 -0.74505805969E-08  0.93827000000E+00  0.93827000000E+00 0.  1.
     999902    2    1    2    0    0  0.75560959198E-02 -0.90778007308E-02 -0.78646587674E-02  0.10297400772E+01  0.10296423033E+01 0.  0.
     999903    2    3    3    0    0  0.82772579061E-01 -0.16515339534E-01  0.10226692705E+00  0.13966041643E+00  0.43845766768E-01 0.  0.
         14    1    1    2    0    0 -0.75560959198E-02  0.90778007308E-02  0.78646587674E-02  0.14189922804E-01  0.00000000000E+00 0. -1.
     999901    1    3    3    0    0 -0.75216483141E-01  0.74375388030E-02 -0.11013158582E+00  0.89007966077E+00  0.88000000000E+00 0.  1.
        -11    1    4    4    0    0  0.56265520456E-01 -0.28047611104E-01  0.85861327097E-01  0.10641854111E+00  0.51100000000E-03 0.  1.
         11    1    4    4    0    0  0.26507058605E-01  0.11532271570E-01  0.16405599955E-01  0.33241875314E-01  0.51100000000E-03 0. -1.
</event>
<event>
 8    1  0.2922807E+004  0.1043930E+01  0.7957747E-01            NaN
         13   -1    0    0    0    0  0.00000000000E+00  0.00000000000E+00  0.74505805969E-08  0.10566000000E+00  0.10566000000E+00 0.  1.
     999900   -1    0    0    0    0 -0.00000000000E+00 -0.00000000000E+00 -0.74505805969E-08  0.93827000000E+00  0.93827000000E+00 0.  1.
     999902    2    1    2    0    0  0.12411045599E-02 -0.99918126326E-02 -0.97797391947E-02  0.10298936202E+01  0.10297979651E+01 0.  0.
     999903    2    3    3    0    0 -0.11818258365E+00 -0.35600239085E-01  0.47285227957E-01  0.13962724470E+00  0.45004161784E-01 0.  0.
         14    1    1    2    0    0 -0.12411045599E-02  0.99918126326E-02  0.97797391947E-02  0.14036379837E-01  0.00000000000E+00 0.  1.
     999901    1    3    3    0    0  0.11942368821E+00  0.25608426452E-01 -0.57064967152E-01  0.89026637547E+00  0.88000000000E+00 0.  1.
        -11    1    4    4    0    0 -0.10649589230E+00 -0.38059498971E-01  0.54630562620E-01  0.12559721347E+00  0.51100000000E-03 0. -1.
         11    1    4    4    0    0 -0.11686691347E-01  0.24592598865E-02 -0.73453346627E-02  0.14030031224E-01  0.51100000000E-03 0.  1.
</event>
<event>
 8    1  0.2922807E+004  0.1043930E+01  0.7957747E-01            NaN
         13   -1    0    0    0    0  0.00000000000E+00  0.00000000000E+00  0.74505805969E-08  0.10566000000E+00  0.10566000000E+00 0. -1.
     999900   -1    0    0    0    0 -0.00000000000E+00 -0.00000000000E+00 -0.74505805969E-08  0.93827000000E+00  0.93827000000E+00 0. -1.
     999902    2    1    2    0    0 -0.93293827114E-02  0.34336246858E-02 -0.11447216003E-01  0.10287686704E+01  0.10286569454E+01 0.  0.
     999903    2    3    3    0    0 -0.13143554372E+00 -0.11464220418E-01  0.12654288766E-01  0.13988580813E+00  0.44734525715E-01 0.  0.
         14    1    1    2    0    0  0.93293827114E-02 -0.34336246858E-02  0.11447216003E-01  0.15161329575E-01  0.00000000000E+00 0. -1.
     999901    1    3    3    0    0  0.12210616101E+00  0.14897845104E-01 -0.24101504769E-01  0.88888286229E+00  0.88000000000E+00 0.  1.
        -11    1    4    4    0    0 -0.80753388707E-01 -0.29606308742E-02 -0.13966511315E-01  0.82007314809E-01  0.51100000000E-03 0.  1.
         11    1    4    4    0    0 -0.50682155010E-01 -0.85035895440E-02  0.26620800081E-01  0.57878493325E-01  0.51100000000E-03 0. -1.
</event>
<event>
 8    1  0.2922807E+004  0.1043930E+01  0.7957747E-01            NaN
         13   -1    0    0    0    0  0.00000000000E+00  0.00000000000E+00  0.74505805969E-08  0.10566000000E+00  0.10566000000E+00 0.  1.
     999900   -1    0    0    0    0 -0.00000000000E+00 -0.00000000000E+00 -0.74505805969E-08  0.93827000000E+00  0.93827000000E+00 0.  1.
     999902    2    1    2    0    0 -0.50136150580E-02 -0.80144028266E-02 -0.97490725935E-02  0.10303501839E+01  0.10302606903E+01 0.  0.
     999903    2    3    3    0    0  0.36970250902E-01  0.12473766127E+00 -0.29255133287E-01  0.13919012986E+00  0.39896689549E-01 0.  0.
         14    1    1    2    0    0  0.50136150580E-02  0.80144028266E-02  0.97490725935E-02  0.13579816090E-01  0.00000000000E+00 0.  1.
     999901    1    3    3    0    0 -0.41983865960E-01 -0.13275206410E+00  0.19506060693E-01  0.89116005405E+00  0.88000000000E+00 0.  1.
        -11    1    4    4    0    0 -0.33029514916E-02  0.13016806817E-01  0.68228374821E-02  0.15071794206E-01  0.51100000000E-03 0. -1.
         11    1    4    4    0    0  0.40273202394E-01  0.11172085445E+00 -0.36077970769E-01  0.12411833566E+00  0.51100000000E-03 0.  1.
</event>
<event>
 8    1  0.2922807E+004  0.1043930E+01  0.7957747E-01            NaN
         13   -1    0    0    0    0  0.00000000000E+00  0.00000000000E+00  0.74505805969E-08  0.10566000000E+00  0.10566000000E+00 0. -1.
     999900   -1    0    0    0    0 -0.00000000000E+00 -0.00000000000E+00 -0.74505805969E-08  0.93827000000E+00  0.93827000000E+00 0.  1.
     999902    2    1    2    0    0  0.39860033399E-02 -0.79411658267E-02  0.11644177781E-01  0.10292829111E+01  0.10291786890E+01 0.  0.
     999903    2    3    3    0    0  0.11405186799E+00  0.42632668028E-01 -0.49095741338E-01  0.13891133416E+00  0.45393765703E-01 0.  0.
         14    1    1    2    0    0 -0.39860033399E-02  0.79411658267E-02 -0.11644177781E-01  0.14647088909E-01  0.00000000000E+00 0. -1.
     999901    1    3    3    0    0 -0.11006586465E+00 -0.50573833854E-01  0.60739919118E-01  0.89037157693E+00  0.88000000000E+00 0. -1.
        -11    1    4    4    0    0  0.49882587976E-01  0.19037985819E-01  0.21950117990E-02  0.53439654612E-01  0.51100000000E-03 0. -1.
         11    1    4    4    0    0  0.64169280017E-01  0.23594682209E-01 -0.51290753137E-01  0.85471679548E-01  0.51100000000E-03 0.  1.
</event>
<event>
 8    1  0.2922807E+004  0.1043930E+01  0.7957747E-01            NaN
         13   -1    0    0    0    0  0.00000000000E+00  0.00000000000E+00  0.74505805969E-08  0.10566000000E+00  0.10566000000E+00 0.  1.
     999900   -1    0    0    0    0 -0.00000000000E+00 -0.00000000000E+00 -0.74505805969E-08  0.93827000000E+00  0.93827000000E+00 0.  1.
     999902    2    1    2    0    0  0.19531344709E-03  0.13566393242E-01 -0.32418186884E-02  0.10299802845E+01  0.10298858150E+01 0.  0.
     999903    2    3    3    0    0 -0.77954201141E-01  0.10121483019E+00  0.39595539504E-01  0.14114698499E+00  0.45092851959E-01 0.  0.
         14    1    1    2    0    0 -0.19531344709E-03 -0.13566393242E-01  0.32418186884E-02  0.13949715457E-01  0.00000000000E+00 0. -1.
     999901    1    3    3    0    0  0.78149514588E-01 -0.87648436951E-01 -0.42837358192E-01  0.88883329955E+00  0.88000000000E+00 0.  1.
        -11    1    4    4    0    0 -0.25191929531E-01  0.14208311994E-01  0.25226531631E-01  0.38381616203E-01  0.51100000000E-03 0. -1.
         11    1    4    4    0    0 -0.52762271610E-01  0.87006518199E-01  0.14369007873E-01  0.10276536879E+00  0.51100000000E-03 0.  1.
</event>
<event>
 8    1  0.2922807E+004  0.1043930E+01  0.7957747E-01            NaN
         13   -1    0    0    0    0  0.00000000000E+00  0.00000000000E+00  0.74505805969E-08  0.10566000000E+00  0.10566000000E+00 0. -1.
     999900   -1    0    0    0    0 -0.00000000000E+00 -0.00000000000E+00 -0.74505805969E-08  0.93827000000E+00  0.93827000000E+00 0. -1.
     999902    2    1    2    0    0  0.20732839950E-02  0.57951243428E-02 -0.11748185811E-01  0.10306672008E+01  0.10305818633E+01 0.  0.
     999903    2    3    3    0    0 -0.60653747005E-01 -0.20283180899E-01  0.11470854517E+00  0.13903607571E+00  0.45636559484E-01 0.  0.
         14    1    1    2    0    0 -0.20732839950E-02 -0.57951243428E-02  0.11748185811E-01  0.13262799196E-01  0.00000000000E+00 0. -1.
     999901    1    3    3    0    0  0.62727031000E-01  0.26078305242E-01 -0.12645673098E+00  0.89163112509E+00  0.88000000000E+00 0. -1.
        -11    1    4    4    0    0 -0.29742852931E-01  0.10062426349E-01  0.27846894348E-01  0.41971423258E-01  0.51100000000E-03 0.  1.
         11    1    4    4    0    0 -0.30910894074E-01 -0.30345607248E-01  0.86861650821E-01  0.97064652454E-01  0.51100000000E-03 0. -1.
</event>
<event>
 8    1  0.2922807E+004  0.1043930E+01  0.7957747E-01            NaN
         13   -1    0    0    0    0  0.00000000000E+00  0.00000000000E+00  0.74505805969E-08  0.10566000000E+00  0.10566000000E+00 0. -1.
     999900   -1    0    0    0    0 -0.00000000000E+00 -0.00000000000E+00 -0.74505805969E-08  0.93827000000E+00  0.93827000000E+00 0. -1.
     999902    2    1    2    0    0 -0.38893273383E-02 -0.10295339599E-01 -0.90852682627E-02  0.10296589459E+01  0.10295600429E+01 0.  0.
     999903    2    3    3    0    0 -0.13112142149E+00 -0.11004925842E-01 -0.19604361304E-01  0.14044628262E+00  0.45021014570E-01 0.  0.
         14    1    1    2    0    0  0.38893273383E-02  0.10295339599E-01  0.90852682627E-02  0.14271054061E-01  0.00000000000E+00 0. -1.
     999901    1    3    3    0    0  0.12723209415E+00  0.70958624369E-03  0.10519093041E-01  0.88921266332E+00  0.88000000000E+00 0. -1.
        -11    1    4    4    0    0 -0.64410606946E-01  0.15953692195E-01 -0.16728228697E-01  0.68434942378E-01  0.51100000000E-03 0.  1.
         11    1    4    4    0    0 -0.66710814542E-01 -0.26958618037E-01 -0.28761326065E-02  0.72011340240E-01  0.51100000000E-03 0. -1.
</event>
<event>
 8    1  0.2922807E+004  0.1043930E+01  0.7957747E-01            NaN
         13   -1    0    0    0    0  0.00000000000E+00  0.00000000000E+00  0.74505805969E-08  0.10566000000E+00  0.10566000000E+00 0. -1.
     999900   -1    0    0    0    0 -0.00000000000E+00 -0.00000000000E+00 -0.74505805969E-08  0.93827000000E+00  0.93827000000E+00 0. -1.
     999902    2    1    2    0    0  0.63816212434E-03 -0.99789924198E-02 -0.89058095056E-02  0.10305396683E+01  0.10304526709E+01 0.  0.
     999903    2    3    3    0    0  0.11935809196E+00 -0.41315002427E-01  0.41955632688E-01  0.14056031258E+00  0.45206667838E-01 0.  0.
         14    1    1    2    0    0 -0.63816212434E-03  0.99789924198E-02  0.89058095056E-02  0.13390331720E-01  0.00000000000E+00 0. -1.
     999901    1    3    3    0    0 -0.11871992984E+00  0.31336010007E-01 -0.50861442194E-01  0.88997935570E+00  0.88000000000E+00 0. -1.
        -11    1    4    4    0    0  0.86513231806E-01 -0.17585537847E-01  0.46503093743E-01  0.99782710264E-01  0.51100000000E-03 0.  1.
         11    1    4    4    0    0  0.32844860157E-01 -0.23729464580E-01 -0.45474610548E-02  0.40777602320E-01  0.51100000000E-03 0. -1.
</event>
<event>
 8    1  0.2922807E+004  0.1043930E+01  0.7957747E-01            NaN
         13   -1    0    0    0    0  0.00000000000E+00  0.00000000000E+00  0.74505805969E-08  0.10566000000E+00  0.10566000000E+00 0.  1.
     999900   -1    0    0    0    0 -0.00000000000E+00 -0.00000000000E+00 -0.74505805969E-08  0.93827000000E+00  0.93827000000E+00 0.  1.
     999902    2    1    2    0    0 -0.62133317201E-02  0.38894339756E-02 -0.11618673289E-01  0.10301922143E+01  0.10301006124E+01 0.  0.
     999903    2    3    3    0    0 -0.72066986268E-01 -0.76925060572E-01  0.79506504993E-01  0.13936592118E+00  0.44614573811E-01 0.  0.
         14    1    1    2    0    0  0.62133317201E-02 -0.38894339756E-02  0.11618673289E-01  0.13737785728E-01  0.00000000000E+00 0.  1.
     999901    1    3    3    0    0  0.65853654548E-01  0.80814494548E-01 -0.91125178282E-01  0.89082629309E+00  0.88000000000E+00 0. -1.
        -11    1    4    4    0    0 -0.39829149924E-01 -0.56295593929E-01  0.73207773955E-01  0.10057432261E+00  0.51100000000E-03 0.  1.
         11    1    4    4    0    0 -0.32237836344E-01 -0.20629466643E-01  0.62987310377E-02  0.38791598572E-01  0.51100000000E-03 0. -1.
</event>
<event>
 8    1  0.2922807E+004  0.1043930E+01  0.7957747E-01            NaN
         13   -1    0    0    0    0  0.00000000000E+00  0.00000000000E+00  0.74505805969E-08  0.10566000000E+00  0.10566000000E+00 0.  1.
     999900   -1    0    0    0    0 -0.00000000000E+00 -0.00000000000E+00 -0.74505805969E-08  0.93827000000E+00  0.93827000000E+00 0.  1.
     999902    2    1    2    0    0  0.39989437019E-02 -0.11123157403E-01 -0.88811364821E-02  0.10291451846E+01  0.10290389790E+01 0.  0.
     999903    2    3    3    0    0 -0.85769114410E-01 -0.96712759547E-01  0.28226808241E-01  0.13967293443E+00  0.44744575793E-01 0.  0.
         14    1    1    2    0    0 -0.39989437019E-02  0.11123157403E-01  0.88811364821E-02  0.14784815405E-01  0.00000000000E+00 0.  1.
     999901    1    3    3    0    0  0.89768058112E-01  0.85589602144E-01 -0.37107944723E-01  0.88947225017E+00  0.88000000000E+00 0. -1.
        -11    1    4    4    0    0 -0.78687598420E-01 -0.58874901597E-01  0.19308610391E-01  0.10015525817E+00  0.51100000000E-03 0. -1.
         11    1    4    4    0    0 -0.70815159896E-02 -0.37837857950E-01  0.89181978502E-02  0.39517676258E-01  0.51100000000E-03 0.  1.
</event>
<event>
 8    1  0.2922807E+004  0.1043930E+01  0.7957747E-01            NaN
         13   -1    0    0    0    0  0.00000000000E+00  0.00000000000E+00  0.74505805969E-08  0.10566000000E+00  0.10566000000E+00 0. -1.
     999900   -1    0    0    0    0 -0.00000000000E+00 -0.00000000000E+00 -0.74505805969E-08  0.93827000000E+00  0.93827000000E+00 0.  1.
     999902    2    1    2    0    0  0.41387078700E-02 -0.84743810846E-02 -0.98802498900E-02  0.10302711796E+01  0.10301806347E+01 0.  0.
     999903    2    3    3    0    0  0.49626776855E-01 -0.87413203284E-01  0.86630929841E-01  0.14031898429E+00  0.45613750758E-01 0.  0.
         14    1    1    2    0    0 -0.41387078700E-02  0.84743810846E-02  0.98802498900E-02  0.13658820428E-01  0.00000000000E+00 0. -1.
     999901    1    3    3    0    0 -0.45488068985E-01  0.78938822200E-01 -0.96511179731E-01  0.88995219528E+00  0.88000000000E+00 0.  1.
        -11    1    4    4    0    0  0.37328629289E-01 -0.37421649846E-01  0.20937294187E-01  0.56854532367E-01  0.51100000000E-03 0. -1.
         11    1    4    4    0    0  0.12298147566E-01 -0.49991553438E-01  0.65693635654E-01  0.83464451925E-01  0.51100000000E-03 0.  1.
</event>
<event>
 8    1  0.2922807E+004  0.1043930E+01  0.7957747E-01            NaN
         13   -1    0    0    0    0  0.00000000000E+00  0.00000000000E+00  0.74505805969E-08  0.10566000000E+00  0.10566000000E+00 0.  1.
     999900   -1    0    0    0    0 -0.00000000000E+00 -0.00000000000E+00 -0.74505805969E-08  0.93827000000E+00  0.93827000000E+00 0. -1.
     999902    2    1    2    0    0  0.12640761950E-01  0.11663512754E-02 -0.95300400321E-02  0.10280564087E+01  0.10279338542E+01 0.  0.
     999903    2    3    3    0    0  0.10578213103E-02 -0.72518358141E-01  0.10771779490E+00  0.13715200545E+00  0.44130692367E-01 0.  0.
         14    1    1    2    0    0 -0.12640761950E-01 -0.11663512754E-02  0.95300400321E-02  0.15873591307E-01  0.00000000000E+00 0. -1.
     999901    1    3    3    0    0  0.11582940640E-01  0.73684709417E-01 -0.11724783493E+00  0.89090440324E+00  0.88000000000E+00 0. -1.
        -11    1    4    4    0    0 -0.15830096400E-01 -0.12251960112E-01  0.13913225566E-01  0.24383220568E-01  0.51100000000E-03 0. -1.
         11    1    4    4    0    0  0.16887917710E-01 -0.60266398029E-01  0.93804569332E-01  0.11276878489E+00  0.51100000000E-03 0.  1.
</event>
<event>
 8    1  0.2922807E+004  0.1043930E+01  0.7957747E-01            NaN
         13   -1    0    0    0    0  0.00000000000E+00  0.00000000000E+00  0.74505805969E-08  0.10566000000E+00  0.10566000000E+00 0. -1.
     999900   -1    0    0    0    0 -0.00000000000E+00 -0.00000000000E+00 -0.74505805969E-08  0.93827000000E+00  0.93827000000E+00 0.  1.
     999902    2    1    2    0    0 -0.11061387184E-01  0.80521981798E-02 -0.78942541176E-02  0.10281340692E+01  0.10280127202E+01 0.  0.
     999903    2    3    3    0    0  0.14217823754E-02  0.10809200504E-01  0.12915207330E+00  0.13743483464E+00  0.45707936443E-01 0.  0.
         14    1    1    2    0    0  0.11061387184E-01 -0.80521981798E-02  0.78942541176E-02  0.15795930806E-01  0.00000000000E+00 0. -1.
     999901    1    3    3    0    0 -0.12483169559E-01 -0.27570023240E-02 -0.13704632741E+00  0.89069923456E+00  0.88000000000E+00 0.  1.
        -11    1    4    4    0    0  0.18206288045E-01  0.18164158827E-01  0.50490730637E-01  0.56665515012E-01  0.51100000000E-03 0.  1.
         11    1    4    4    0    0 -0.16784505670E-01 -0.73549583232E-02  0.78661342660E-01  0.80769319624E-01  0.51100000000E-03 0. -1.
</event>
<event>
 8    1  0.2922807E+004  0.1043930E+01  0.7957747E-01            NaN
         13   -1    0    0    0    0  0.00000000000E+00  0.00000000000E+00  0.74505805969E-08  0.10566000000E+00  0.10566000000E+00 0. -1.
     999900   -1    0    0    0    0 -0.00000000000E+00 -0.00000000000E+00 -0.74505805969E-08  0.93827000000E+00  0.93827000000E+00 0.  1.
     999902    2    1    2    0    0  0.12322235939E-01 -0.26587672931E-02 -0.11230353828E-03  0.10313236859E+01  0.10312466369E+01 0.  0.
     999903    2    3    3    0    0  0.50746142489E-01 -0.10249276041E-01  0.12393503549E+00  0.14176100983E+00  0.45343932875E-01 0.  0.
         14    1    1    2    0    0 -0.12322235939E-01  0.26587672931E-02  0.11230353828E-03  0.12606314058E-01  0.00000000000E+00 0.  1.
     999901    1    3    3    0    0 -0.38423906550E-01  0.75905087478E-02 -0.12404733903E+00  0.88956267612E+00  0.88000000000E+00 0.  1.
        -11    1    4    4    0    0  0.32345569803E-01  0.12196255611E-01  0.93571277172E-01  0.99753844886E-01  0.51100000000E-03 0.  1.
         11    1    4    4    0    0  0.18400572686E-01 -0.22445531651E-01  0.30363758317E-01  0.42007164941E-01  0.51100000000E-03 0. -1.
</event>
<event>
 8    1  0.2922807E+004  0.1043930E+01  0.7957747E-01            NaN
         13   -1    0    0    0    0  0.00000000000E+00  0.00000000000E+00  0.74505805969E-08  0.10566000000E+00  0.10566000000E+00 0. -1.
     999900   -1    0    0    0    0 -0.00000000000E+00 -0.00000000000E+00 -0.74505805969E-08  0.93827000000E+00  0.93827000000E+00 0.  1.
     999902    2    1    2    0    0  0.56778342435E-02  0.16743883101E-01  0.12869055896E-01  0.10220620320E+01  0.10218280625E+01 0.  0.
     999903    2    3    3    0    0  0.91118918802E-01 -0.63441024967E-01 -0.56602578350E-01  0.13158120329E+00  0.42217770788E-01 0.  0.
         14    1    1    2    0    0 -0.56778342435E-02 -0.16743883101E-01 -0.12869055896E-01  0.21867967959E-01  0.00000000000E+00 0.  1.
     999901    1    3    3    0    0 -0.85441084559E-01  0.80184908068E-01  0.69471634245E-01  0.89048082875E+00  0.88000000000E+00 0. -1.
        -11    1    4    4    0    0  0.21198276434E-01 -0.23505855900E-01 -0.37022714025E-01  0.48711750740E-01  0.51100000000E-03 0.  1.
         11    1    4    4    0    0  0.69920642369E-01 -0.39935169067E-01 -0.19579864325E-01  0.82869452548E-01  0.51100000000E-03 0. -1.
</event>
<event>
 8    1  0.2922807E+004  0.1043930E+01  0.7957747E-01            NaN
         13   -1    0    0    0    0  0.00000000000E+00  0.00000000000E+00  0.74505805969E-08  0.10566000000E+00  0.10566000000E+00 0.  1.
     999900   -1    0    0    0    0 -0.00000000000E+00 -0.00000000000E+00 -0.74505805969E-08  0.93827000000E+00  0.93827000000E+00 0. -1.
     999902    2    1    2    0    0  0.25524625556E-02 -0.10807903684E-01 -0.78656708458E-02  0.10303213768E+01  0.10302315006E+01 0.  0.
     999903    2    3    3    0    0 -0.93559992611E-01 -0.89918276395E-01  0.30929054303E-01  0.14071411189E+00  0.44778189306E-01 0.  0.
         14    1    1    2    0    0 -0.25524625556E-02  0.10807903684E-01  0.78656708458E-02  0.13608623185E-01  0.00000000000E+00 0. -1.
     999901    1    3    3    0    0  0.96112455167E-01  0.79110372711E-01 -0.38794725149E-01  0.88960726493E+00  0.88000000000E+00 0. -1.
        -11    1    4    4    0    0 -0.41750036272E-01 -0.22728854676E-01 -0.64954253852E-02  0.47980392199E-01  0.51100000000E-03 0. -1.
         11    1    4    4    0    0 -0.51809956339E-01 -0.67189421718E-01  0.37424479689E-01  0.92733719691E-01  0.51100000000E-03 0.  1.
</event>
<event>
 8    1  0.2922807E+004  0.1043930E+01  0.7957747E-01            NaN
         13   -1    0    0    0    0  0.00000000000E+00  0.00000000000E+00  0.74505805969E-08  0.10566000000E+00  0.10566000000E+00 0.  1.
     999900   -1    0    0    0    0 -0.00000000000E+00 -0.00000000000E+00 -0.74505805969E-08  0.93827000000E+00  0.93827000000E+00 0. -1.
     999902    2    1    2    0    0 -0.68263563414E-02 -0.97049247528E-02 -0.79240891461E-02  0.10296619975E+01  0.10295631371E+01 0.  0.
     999903    2    3    3    0    0  0.32536913289E-01 -0.81682471081E-01 -0.10078755246E+00  0.14098103286E+00  0.44574029293E-01 0.  0.
         14    1    1    2    0    0  0.68263563414E-02  0.97049247528E-02  0.79240891461E-02  0.14268002458E-01  0.00000000000E+00 0.  1.
     999901    1    3    3    0    0 -0.39363269630E-01  0.71977546329E-01  0.92863463311E-01  0.88868096468E+00  0.88000000000E+00 0.  1.
        -11    1    4    4    0    0  0.38276866229E-01 -0.83277400726E-01 -0.88958914260E-01  0.12772702732E+00  0.51100000000E-03 0. -1.
         11    1    4    4    0    0 -0.57399529397E-02  0.15949296442E-02 -0.11828638196E-01  0.13254005542E-01  0.51100000000E-03 0.  1.
</event>
<event>
 8    1  0.2922807E+004  0.1043930E+01  0.7957747E-01            NaN
         13   -1    0    0    0    0  0.00000000000E+00  0.00000000000E+00  0.74505805969E-08  0.10566000000E+00  0.10566000000E+00 0. -1.
     999900   -1    0    0    0    0 -0.00000000000E+00 -0.00000000000E+00 -0.74505805969E-08  0.93827000000E+00  0.93827000000E+00 0.  1.
     999902    2    1    2    0    0  0.94294495984E-03 -0.36507770429E-02 -0.17426363974E-01  0.10261003763E+01  0.10259454600E+01 0.  0.
     999903    2    3    3    0    0  0.82756572747E-01  0.84944491066E-01 -0.51025047928E-01  0.13724073457E+00  0.46553698170E-01 0.  0.
         14    1    1    2    0    0 -0.94294495984E-03  0.36507770429E-02  0.17426363974E-01  0.17829623652E-01  0.00000000000E+00 0. -1.
     999901    1    3    3    0    0 -0.81813627788E-01 -0.88595268109E-01  0.33598683955E-01  0.88885964178E+00  0.88000000000E+00 0.  1.
        -11    1    4    4    0    0  0.79119375649E-01  0.63586555311E-01 -0.54627921206E-01  0.11527183748E+00  0.51100000000E-03 0. -1.
         11    1    4    4    0    0  0.36371970981E-02  0.21357935755E-01  0.36028732782E-02  0.21968897089E-01  0.51100000000E-03 0.  1.
</event>
<event>
 8    1  0.2922807E+004  0.1043930E+01  0.7957747E-01            NaN
         13   -1    0    0    0    0  0.00000000000E+00  0.00000000000E+00  0.74505805969E-08  0.10566000000E+00  0.10566000000E+00 0.  1.
     999900   -1    0    0    0    0 -0.00000000000E+00 -0.00000000000E+00 -0.74505805969E-08  0.93827000000E+00  0.93827000000E+00 0. -1.
     999902    2    1    2    0    0 -0.12757006566E-01 -0.34029950723E-02  0.71265921821E-02  0.10289263368E+01  0.10288169403E+01 0.  0.
     999903    2    3    3    0    0  0.41704401369E-01 -0.12012932534E+00 -0.33583115033E-01  0.13861832194E+00  0.43782435566E-01 0.  0.
         14    1    1    2    0    0  0.12757006566E-01  0.34029950723E-02 -0.71265921821E-02  0.15003663157E-01  0.00000000000E+00 0.  1.
     999901    1    3    3    0    0 -0.54461407936E-01  0.11672633026E+00  0.40709707215E-01  0.89030801490E+00  0.88000000000E+00 0.  1.
        -11    1    4    4    0    0  0.23617969738E-01 -0.77143580987E-01  0.78683997746E-03  0.80683460636E-01  0.51100000000E-03 0.  1.
         11    1    4    4    0    0  0.18086431631E-01 -0.42985744349E-01 -0.34369955011E-01  0.57934861308E-01  0.51100000000E-03 0. -1.
</event>
<event>
 8    1  0.2922807E+004  0.1043930E+01  0.7957747E-01            NaN
         13   -1    0    0    0    0  0.00000000000E+00  0.00000000000E+00  0.74505805969E-08  0.10566000000E+00  0.10566000000E+00 0.  1.
     999900   -1    0    0    0    0 -0.00000000000E+00 -0.00000000000E+00 -0.74505805969E-08  0.93827000000E+00  0.93827000000E+00 0. -1.
     999902    2    1    2    0    0 -0.24897358171E-02 -0.13559646038E-01  0.76790787883E-03  0.10301223040E+01  0.10300297611E+01 0.  0.
     999903    2    3    3    0    0 -0.10817966221E+00 -0.11068071536E-01 -0.70880751913E-01  0.14090349018E+00  0.54812143083E-01 0.  0.
         14    1    1    2    0    0  0.24897358171E-02  0.13559646038E-01 -0.76790787883E-03  0.13807695956E-01  0.00000000000E+00 0.  1.
     999901    1    3    3    0    0  0.10568992639E+00 -0.24915745014E-02  0.71648659792E-01  0.88921881387E+00  0.88000000000E+00 0.  1.
        -11    1    4    4    0    0 -0.42440805580E-01  0.19627117623E-01 -0.41859191675E-01  0.62760646692E-01  0.51100000000E-03 0. -1.
         11    1    4    4    0    0 -0.65738856629E-01 -0.30695189160E-01 -0.29021560238E-01  0.78142843486E-01  0.51100000000E-03 0.  1.
</event>
<event>
 8    1  0.2922807E+004  0.1043930E+01  0.7957747E-01            NaN
         13   -1    0    0    0    0  0.00000000000E+00  0.00000000000E+00  0.74505805969E-08  0.10566000000E+00  0.10566000000E+00 0. -1.
     999900   -1    0    0    0    0 -0.00000000000E+00 -0.00000000000E+00 -0.74505805969E-08  0.93827000000E+00  0.93827000000E+00 0.  1.
     999902    2    1    2    0    0 -0.40735020199E-02  0.84892981626E-02 -0.93793977514E-02  0.10306396011E+01  0.10305539057E+01 0.  0.
     999903    2    3    3    0    0 -0.34519631578E-01 -0.12753304165E+00 -0.23385384714E-02  0.13964093807E+00  0.45142453941E-01 0.  0.
         14    1    1    2    0    0  0.40735020199E-02 -0.84892981626E-02  0.93793977514E-02  0.13290398947E-01  0.00000000000E+00 0. -1.
     999901    1    3    3    0    0  0.30446129558E-01  0.13602233981E+00 -0.70408592799E-02  0.89099866298E+00  0.88000000000E+00 0.  1.
        -11    1    4    4    0    0 -0.35596536276E-01 -0.73460276164E-01  0.14678393729E-01  0.82941195629E-01  0.51100000000E-03 0.  1.
         11    1    4    4    0    0  0.10769046984E-02 -0.54072765483E-01 -0.17016932201E-01  0.56699742444E-01  0.51100000000E-03 0. -1.
</event>
<event>
 8    1  0.2922807E+004  0.1043930E+01  0.7957747E-01            NaN
         13   -1    0    0    0    0  0.00000000000E+00  0.00000000000E+00  0.74505805969E-08  0.10566000000E+00  0.10566000000E+00 0. -1.
     999900   -1    0    0    0    0 -0.00000000000E+00 -0.00000000000E+00 -0.74505805969E-08  0.93827000000E+00  0.93827000000E+00 0. -1.
     999902    2    1    2    0    0 -0.97802409679E-02  0.11038152995E-01 -0.94641679700E-03  0.10291519880E+01  0.10290458808E+01 0.  0.
     999903    2    3    3    0    0 -0.45679644975E-01  0.24271814438E-01 -0.12160704723E+00  0.14009468681E+00  0.46502649336E-01 0.  0.
         14    1    1    2    0    0  0.97802409679E-02 -0.11038152995E-01  0.94641679700E-03  0.14778012034E-01  0.00000000000E+00 0. -1.
     999901    1    3    3    0    0  0.35899404007E-01 -0.13233661443E-01  0.12066063043E+00  0.88905730116E+00  0.88000000000E+00 0.  1.
        -11    1    4    4    0    0 -0.49435032258E-02  0.21276620087E-01 -0.75009674006E-01  0.78127108624E-01  0.51100000000E-03 0. -1.
         11    1    4    4    0    0 -0.40736141749E-01  0.29951943506E-02 -0.46597373223E-01  0.61967578185E-01  0.51100000000E-03 0.  1.
</event>
<event>
 8    1  0.2922807E+004  0.1043930E+01  0.7957747E-01            NaN
         13   -1    0    0    0    0  0.00000000000E+00  0.00000000000E+00  0.74505805969E-08  0.10566000000E+00  0.10566000000E+00 0.  1.
     999900   -1    0    0    0    0 -0.00000000000E+00 -0.00000000000E+00 -0.74505805969E-08  0.93827000000E+00  0.93827000000E+00 0. -1.
     999902    2    1    2    0    0 -0.10812344507E-01  0.19618575326E-02  0.88914716911E-02  0.10297944439E+01  0.10296974229E+01 0.  0.
     999903    2    3    3    0    0  0.26848525805E-01  0.12904941402E+00 -0.10066998464E-01  0.13966579486E+00  0.45062125990E-01 0.  0.
         14    1    1    2    0    0  0.10812344507E-01 -0.19618575326E-02 -0.88914716911E-02  0.14135556146E-01  0.00000000000E+00 0. -1.
     999901    1    3    3    0    0 -0.37660870312E-01 -0.12708755649E+00  0.18958470155E-01  0.89012864899E+00  0.88000000000E+00 0. -1.
        -11    1    4    4    0    0  0.33430680874E-01  0.51130970003E-01 -0.34776504198E-02  0.61191026226E-01  0.51100000000E-03 0. -1.
         11    1    4    4    0    0 -0.65821550689E-02  0.77918444019E-01 -0.65893480445E-02  0.78474768635E-01  0.51100000000E-03 0.  1.
</event>
<event>
 8    1  0.2922807E+004  0.1043930E+01  0.7957747E-01            NaN
         13   -1    0    0    0    0  0.00000000000E+00  0.00000000000E+00  0.74505805969E-08  0.10566000000E+00  0.10566000000E+00 0.  1.
     999900   -1    0    0    0    0 -0.00000000000E+00 -0.00000000000E+00 -0.74505805969E-08  0.93827000000E+00  0.93827000000E+00 0.  1.
     999902    2    1    2    0    0 -0.11132147142E-01  0.30805682213E-02 -0.17887190662E-01  0.10226376025E+01  0.10224159134E+01 0.  0.
     999903    2    3    3    0    0  0.64496794519E-01  0.10187856718E+00 -0.32895167675E-01  0.13375852144E+00  0.47646312009E-01 0.  0.
         14    1    1    2    0    0  0.11132147142E-01 -0.30805682213E-02  0.17887190662E-01  0.21292397477E-01  0.00000000000E+00 0.  1.
     999901    1    3    3    0    0 -0.75628941661E-01 -0.98797998955E-01  0.15007977013E-01  0.88887908108E+00  0.88000000000E+00 0.  1.
        -11    1    4    4    0    0  0.69210349097E-01  0.75265212291E-01 -0.30061426975E-01  0.10657802361E+00  0.51100000000E-03 0. -1.
         11    1    4    4    0    0 -0.47135545780E-02  0.26613354885E-01 -0.28337407001E-02  0.27180497831E-01  0.51100000000E-03 0.  1.
</event>
<event>
 8    1  0.2922807E+004  0.1043930E+01  0.7957747E-01            NaN
         13   -1    0    0    0    0  0.00000000000E+00  0.00000000000E+00  0.74505805969E-08  0.10566000000E+00  0.10566000000E+00 0. -1.
     999900   -1    0    0    0    0 -0.00000000000E+00 -0.00000000000E+00 -0.74505805969E-08  0.93827000000E+00  0.93827000000E+00 0. -1.
     999902    2    1    2    0    0 -0.11172355636E-01  0.15139172614E-03  0.82757588871E-02  0.10300255894E+01  0.10299317366E+01 0.  0.
     999903    2    3    3    0    0 -0.23317782384E-01 -0.82674278294E-01 -0.10087673663E+00  0.13933940991E+00  0.43134671582E-01 0.  0.
         14    1    1    2    0    0  0.11172355636E-01 -0.15139172614E-03 -0.82757588871E-02  0.13904410633E-01  0.00000000000E+00 0.  1.
     999901    1    3    3    0    0  0.12145426748E-01  0.82825670020E-01  0.10915249552E+00  0.89068617946E+00  0.88000000000E+00 0.  1.
        -11    1    4    4    0    0 -0.13198752380E-01 -0.50878882586E-01 -0.28860255597E-01  0.59967017866E-01  0.51100000000E-03 0.  1.
         11    1    4    4    0    0 -0.10119030004E-01 -0.31795395708E-01 -0.72016481035E-01  0.79372392040E-01  0.51100000000E-03 0. -1.
</event>
<event>
 8    1  0.2922807E+004  0.1043930E+01  0.7957747E-01            NaN
         13   -1    0    0    0    0  0.00000000000E+00  0.00000000000E+00  0.74505805969E-08  0.10566000000E+00  0.10566000000E+00 0.  1.
     999900   -1    0    0    0    0 -0.00000000000E+00 -0.00000000000E+00 -0.74505805969E-08  0.93827000000E+00  0.93827000000E+00 0. -1.
     999902    2    1    2    0    0  0.11432188320E-01 -0.47678364181E-02  0.67363596564E-02  0.10298301512E+01  0.10297336232E+01 0.  0.
     999903    2    3    3    0    0 -0.84649664972E-01 -0.97683282129E-01  0.27246024026E-01  0.13950119578E+00  0.44840254362E-01 0.  0.
         14    1    1    2    0    0 -0.11432188320E-01  0.47678364181E-02 -0.67363596564E-02  0.14099848769E-01  0.00000000000E+00 0. -1.
     999901    1    3    3    0    0  0.96081853291E-01  0.92915445711E-01 -0.20509664369E-01  0.89032895545E+00  0.88000000000E+00 0. -1.
        -11    1    4    4    0    0 -0.15317119866E-01 -0.46286755204E-01  0.20624928143E-01  0.52940784375E-01  0.51100000000E-03 0.  1.
         11    1    4    4    0    0 -0.69332545106E-01 -0.51396526926E-01  0.66210958828E-02  0.86560411405E-01  0.51100000000E-03 0. -1.
</event>
<event>
 8    1  0.2922807E+004  0.1043930E+01  0.7957747E-01            NaN
         13   -1    0    0    0    0  0.00000000000E+00  0.00000000000E+00  0.74505805969E-08  0.10566000000E+00  0.10566000000E+00 0.  1.
     999900   -1    0    0    0    0 -0.00000000000E+00 -0.00000000000E+00 -0.74505805969E-08  0.93827000000E+00  0.93827000000E+00 0.  1.
     999902    2    1    2    0    0 -0.65863868389E-02 -0.36189614930E-02  0.89161641672E-02  0.10322691528E+01  0.10322032883E+01 0.  0.
     999903    2    3    3    0    0  0.98130227667E-01  0.81566872359E-01 -0.38310245221E-01  0.14072412905E+00  0.45309042790E-01 0.  0.
         14    1    1    2    0    0  0.65863868389E-02  0.36189614930E-02 -0.89161641672E-02  0.11660847196E-01  0.00000000000E+00 0. -1.
     999901    1    3    3    0    0 -0.10471661451E+00 -0.85185833852E-01  0.47226409389E-01  0.89154502376E+00  0.88000000000E+00 0. -1.
        -11    1    4    4    0    0  0.27639863127E-01  0.21490878399E-01 -0.32740716615E-01  0.47937829879E-01  0.51100000000E-03 0.  1.
         11    1    4    4    0    0  0.70490364540E-01  0.60075993960E-01 -0.55695286063E-02  0.92786299167E-01  0.51100000000E-03 0. -1.
</event>
<event>
 8    1  0.2922807E+004  0.1043930E+01  0.7957747E-01            NaN
         13   -1    0    0    0    0  0.00000000000E+00  0.00000000000E+00  0.74505805969E-08  0.10566000000E+00  0.10566000000E+00 0. -1.
     999900   -1    0    0    0    0 -0.00000000000E+00 -0.00000000000E+00 -0.74505805969E-08  0.93827000000E+00  0.93827000000E+00 0. -1.
     999902    2    1    2    0    0 -0.86948476533E-03  0.38538277515E-02 -0.13382401228E-01  0.10299766257E+01  0.10298821063E+01 0.  0.
     999903    2    3    3    0    0 -0.24021431513E-01  0.11911365652E+00 -0.55655756321E-01  0.14115275263E+00  0.45403127875E-01 0.  0.
         14    1    1    2    0    0  0.86948476533E-03 -0.38538277515E-02  0.13382401228E-01  0.13953374313E-01  0.00000000000E+00 0. -1.
     999901    1    3    3    0    0  0.23151946747E-01 -0.11525982877E+00  0.42273355092E-01  0.88882387306E+00  0.88000000000E+00 0.  1.
        -11    1    4    4    0    0 -0.41225957358E-02  0.10437301515E+00 -0.40010593750E-01  0.11185629540E+00  0.51100000000E-03 0. -1.
         11    1    4    4    0    0 -0.19898835777E-01  0.14740641373E-01 -0.15645162571E-01  0.29296457230E-01  0.51100000000E-03 0.  1.
</event>
<event>
 8    1  0.2922807E+004  0.1043930E+01  0.7957747E-01            NaN
         13   -1    0    0    0    0  0.00000000000E+00  0.00000000000E+00  0.74505805969E-08  0.10566000000E+00  0.10566000000E+00 0. -1.
     999900   -1    0    0    0    0 -0.00000000000E+00 -0.00000000000E+00 -0.74505805969E-08  0.93827000000E+00  0.93827000000E+00 0.  1.
     999902    2    1    2    0    0 -0.13557108779E-02  0.25763284354E-02  0.16191321011E-01  0.10274790336E+01  0.10273473269E+01 0.  0.
     999903    2    3    3    0    0  0.14867192113E-01 -0.10677642220E+00 -0.70832209134E-01  0.13630323641E+00  0.44035584080E-01 0.  0.
         14    1    1    2    0    0  0.13557108779E-02 -0.25763284354E-02 -0.16191321011E-01  0.16450966423E-01  0.00000000000E+00 0. -1.
     999901    1    3    3    0    0 -0.16222902991E-01  0.10935275064E+00  0.87023530145E-01  0.89117579717E+00  0.88000000000E+00 0. -1.
        -11    1    4    4    0    0  0.21769317213E-01 -0.65436409553E-01 -0.22986813129E-01  0.72694439718E-01  0.51100000000E-03 0. -1.
         11    1    4    4    0    0 -0.69021250999E-02 -0.41340012652E-01 -0.47845396005E-01  0.63608796694E-01  0.51100000000E-03 0.  1.
</event>
<event>
 8    1  0.2922807E+004  0.1043930E+01  0.7957747E-01            NaN
         13   -1    0    0    0    0  0.00000000000E+00  0.00000000000E+00  0.74505805969E-08  0.10566000000E+00  0.10566000000E+00 0. -1.
     999900   -1    0    0    0    0 -0.00000000000E+00 -0.00000000000E+00 -0.74505805969E-08  0.93827000000E+00  0.93827000000E+00 0.  1.
     999902    2    1    2    0    0  0.17714460726E-02 -0.10986579706E-01  0.27012471107E-02  0.10324783761E+01  0.10324148669E+01 0.  0.
     999903    2    3    3    0    0 -0.55662981423E-01 -0.34719618149E-01  0.11879855299E+00  0.14268033437E+00  0.44054083101E-01 0.  0.
         14    1    1    2    0    0 -0.17714460726E-02  0.10986579706E-01 -0.27012471107E-02  0.11451623936E-01  0.00000000000E+00 0.  1.
     999901    1    3    3    0    0  0.57434427496E-01  0.23733038444E-01 -0.11609730588E+00  0.88979804170E+00  0.88000000000E+00 0.  1.
        -11    1    4    4    0    0  0.22768708486E-02  0.21162845076E-02  0.31304548245E-01  0.31462655050E-01  0.51100000000E-03 0. -1.
         11    1    4    4    0    0 -0.57939852271E-01 -0.36835902657E-01  0.87494004743E-01  0.11121767932E+00  0.51100000000E-03 0.  1.
</event>
<event>
 8    1  0.2922807E+004  0.1043930E+01  0.7957747E-01            NaN
         13   -1    0    0    0    0  0.00000000000E+00  0.00000000000E+00  0.74505805969E-08  0.10566000000E+00  0.10566000000E+00 0. -1.
     999900   -1    0    0    0    0 -0.00000000000E+00 -0.00000000000E+00 -0.74505805969E-08  0.93827000000E+00  0.93827000000E+00 0.  1.
     999902    2    1    2    0    0 -0.91573220661E-02  0.37422719559E-02  0.81757951921E-02  0.10310962642E+01  0.10310163924E+01 0.  0.
     999903    2    3    3    0    0  0.78915978425E-01 -0.40984413332E-01  0.99788576961E-01  0.14084333140E+00  0.44403041782E-01 0.  0.
         14    1    1    2    0    0  0.91573220661E-02 -0.37422719559E-02 -0.81757951921E-02  0.12833735771E-01  0.00000000000E+00 0.  1.
     999901    1    3    3    0    0 -0.88073300491E-01  0.44726685288E-01 -0.91612781769E-01  0.89025293283E+00  0.88000000000E+00 0.  1.
        -11    1    4    4    0    0  0.43192701063E-01  0.23030654131E-02  0.42459519286E-01  0.60613409692E-01  0.51100000000E-03 0. -1.
         11    1    4    4    0    0  0.35723277361E-01 -0.43287478746E-01  0.57329057675E-01  0.80229921703E-01  0.51100000000E-03 0.  1.
</event>
<event>
 8    1  0.2922807E+004  0.1043930E+01  0.7957747E-01            NaN
         13   -1    0    0    0    0  0.00000000000E+00  0.00000000000E+00  0.74505805969E-08  0.10566000000E+00  0.10566000000E+00 0. -1.
     999900   -1    0    0    0    0 -0.00000000000E+00 -0.00000000000E+00 -0.74505805969E-08  0.93827000000E+00  0.93827000000E+00 0.  1.
     999902    2    1    2    0    0 -0.67670617480E-02 -0.68518566142E-02 -0.10598365666E-01  0.10296098597E+01  0.10295102703E+01 0.  0.
     999903    2    3    3    0    0 -0.12934479258E+00  0.30447445615E-01 -0.41730628321E-02  0.14030798599E+00  0.44853028532E-01 0.  0.
         14    1    1    2    0    0  0.67670617480E-02  0.68518566142E-02  0.10598365666E-01  0.14320140312E-01  0.00000000000E+00 0.  1.
     999901    1    3    3    0    0  0.12257773083E+00 -0.37299302230E-01 -0.64253028334E-02  0.88930187370E+00  0.88000000000E+00 0. -1.
        -11    1    4    4    0    0 -0.74969990150E-01 -0.49451942973E-02  0.17705281927E-02  0.75155507189E-01  0.51100000000E-03 0.  1.
         11    1    4    4    0    0 -0.54374802428E-01  0.35392639913E-01 -0.59435910248E-02  0.65152478804E-01  0.51100000000E-03 0. -1.
</event>
<event>
 8    1  0.2922807E+004  0.1043930E+01  0.7957747E-01            NaN
         13   -1    0    0    0    0  0.00000000000E+00  0.00000000000E+00  0.74505805969E-08  0.10566000000E+00  0.10566000000E+00 0. -1.
     999900   -1    0    0    0    0 -0.00000000000E+00 -0.00000000000E+00 -0.74505805969E-08  0.93827000000E+00  0.93827000000E+00 0. -1.
     999902    2    1    2    0    0 -0.12341542909E-01  0.79397194533E-02 -0.65459321754E-03  0.10292405031E+01  0.10291356723E+01 0.  0.
     999903    2    3    3    0    0 -0.13029629393E+00 -0.26349662171E-01  0.14126255127E-03  0.14070816360E+00  0.46123079259E-01 0.  0.
         14    1    1    2    0    0  0.12341542909E-01 -0.79397194533E-02  0.65459321754E-03  0.14689496882E-01  0.00000000000E+00 0.  1.
     999901    1    3    3    0    0  0.11795475102E+00  0.34289381624E-01 -0.79585576881E-03  0.88853233952E+00  0.88000000000E+00 0.  1.
        -11    1    4    4    0    0 -0.10152686928E+00 -0.13674641591E-01  0.18786924778E-01  0.10415330370E+00  0.51100000000E-03 0.  1.
         11    1    4    4    0    0 -0.28769424653E-01 -0.12675020580E-01 -0.18645662226E-01  0.36554859901E-01  0.51100000000E-03 0. -1.
</event>
<event>
 8    1  0.2922807E+004  0.1043930E+01  0.7957747E-01            NaN
         13   -1    0    0    0    0  0.00000000000E+00  0.00000000000E+00  0.74505805969E-08  0.10566000000E+00  0.10566000000E+00 0.  1.
     999900   -1    0    0    0    0 -0.00000000000E+00 -0.00000000000E+00 -0.74505805969E-08  0.93827000000E+00  0.93827000000E+00 0.  1.
     999902    2    1    2    0    0 -0.12782481385E-02  0.11004629384E-01  0.99917110710E-02  0.10290112173E+01  0.10289030641E+01 0.  0.
     999903    2    3    3    0    0 -0.33229827338E-01  0.11128377980E+00 -0.63269693211E-01  0.13971709007E+00  0.45050084442E-01 0.  0.
         14    1    1    2    0    0  0.12782481385E-02 -0.11004629384E-01 -0.99917110710E-02  0.14918782669E-01  0.00000000000E+00 0. -1.
     999901    1    3    3    0    0  0.31951579199E-01 -0.10027915041E+00  0.73261404282E-01  0.88929412726E+00  0.88000000000E+00 0. -1.
        -11    1    4    4    0    0 -0.11967873710E-01  0.71642036199E-01 -0.15835352413E-01  0.74342658406E-01  0.51100000000E-03 0.  1.
         11    1    4    4    0    0 -0.21261953628E-01  0.39641743598E-01 -0.47434340799E-01  0.65374431666E-01  0.51100000000E-03 0. -1.
</event>
<event>
 8    1  0.2922807E+004  0.1043930E+01  0.7957747E-01            NaN
         13   -1    0    0    0    0  0.00000000000E+00  0.00000000000E+00  0.74505805969E-08  0.10566000000E+00  0.10566000000E+00 0. -1.
     999900   -1    0    0    0    0 -0.00000000000E+00 -0.00000000000E+00 -0.74505805969E-08  0.93827000000E+00  0.93827000000E+00 0.  1.
     999902    2    1    2    0    0  0.47617256745E-02  0.88700748779E-02  0.10006371858E-01  0.10297356442E+01  0.10296378087E+01 0.  0.
     999903    2    3    3    0    0  0.13229588869E+00  0.73057298769E-02 -0.36511160104E-02  0.14043595515E+00  0.46404213134E-01 0.  0.
         14    1    1    2    0    0 -0.47617256745E-02 -0.88700748779E-02 -0.10006371858E-01  0.14194355832E-01  0.00000000000E+00 0.  1.
     999901    1    3    3    0    0 -0.12753416302E+00  0.15643450010E-02  0.13657487868E-01  0.88929968902E+00  0.88000000000E+00 0.  1.
        -11    1    4    4    0    0  0.20169150475E-01  0.78311602901E-02  0.15583721687E-01  0.26668993325E-01  0.51100000000E-03 0.  1.
         11    1    4    4    0    0  0.11212673822E+00 -0.52543041322E-03 -0.19234837697E-01  0.11376696182E+00  0.51100000000E-03 0. -1.
</event>
<event>
 8    1  0.2922807E+004  0.1043930E+01  0.7957747E-01            NaN
         13   -1    0    0    0    0  0.00000000000E+00  0.00000000000E+00  0.74505805969E-08  0.10566000000E+00  0.10566000000E+00 0. -1.
     999900   -1    0    0    0    0 -0.00000000000E+00 -0.00000000000E+00 -0.74505805969E-08  0.93827000000E+00  0.93827000000E+00 0.  1.
     999902    2    1    2    0    0  0.38750717789E-04  0.49452752122E-02  0.13049295466E-01  0.10299750238E+01  0.10298804825E+01 0.  0.
     999903    2    3    3    0    0 -0.54045316088E-01  0.11564055139E+00  0.38916530800E-01  0.14101628218E+00  0.45579185512E-01 0.  0.
         14    1    1    2    0    0 -0.38750717789E-04 -0.49452752122E-02 -0.13049295466E-01  0.13954976198E-01  0.00000000000E+00 0.  1.
     999901    1    3    3    0    0  0.54084066806E-01 -0.11069527618E+00 -0.25867235335E-01  0.88895874163E+00  0.88000000000E+00 0. -1.
        -11    1    4    4    0    0 -0.37087390461E-01  0.85958809480E-01  0.48600450640E-01  0.10548296726E+00  0.51100000000E-03 0.  1.
         11    1    4    4    0    0 -0.16957925627E-01  0.29681741911E-01 -0.96839198398E-02  0.35533314915E-01  0.51100000000E-03 0. -1.
</event>
<event>
 8    1  0.2922807E+004  0.1043930E+01  0.7957747E-01            NaN
         13   -1    0    0    0    0  0.00000000000E+00  0.00000000000E+00  0.74505805969E-08  0.10566000000E+00  0.10566000000E+00 0. -1.
     999900   -1    0    0    0    0 -0.00000000000E+00 -0.00000000000E+00 -0.74505805969E-08  0.93827000000E+00  0.93827000000E+00 0. -1.
     999902    2    1    2    0    0  0.65974496037E-02 -0.59180170252E-02  0.10684779403E-01  0.10300478612E+01  0.10299543109E+01 0.  0.
     999903    2    3    3    0    0 -0.14644995547E-01  0.33079795506E-01 -0.12579775426E+00  0.13842038694E+00  0.45015328258E-01 0.  0.
         14    1    1    2    0    0 -0.65974496037E-02  0.59180170252E-02 -0.10684779403E-01  0.13882138801E-01  0.00000000000E+00 0.  1.
     999901    1    3    3    0    0  0.21242445151E-01 -0.38997812531E-01  0.13648253366E+00  0.89162747426E+00  0.88000000000E+00 0.  1.
        -11    1    4    4    0    0 -0.29291220935E-01  0.12573751300E-01 -0.59675437277E-01  0.67657178339E-01  0.51100000000E-03 0.  1.
         11    1    4    4    0    0  0.14646225388E-01  0.20506044206E-01 -0.66122316984E-01  0.70763208601E-01  0.51100000000E-03 0. -1.
</event>
<event>
 8    1  0.2922807E+004  0.1043930E+01  0.7957747E-01            NaN
         13   -1    0    0    0    0  0.00000000000E+00  0.00000000000E+00  0.74505805969E-08  0.10566000000E+00  0.10566000000E+00 0. -1.
     999900   -1    0    0    0    0 -0.00000000000E+00 -0.00000000000E+00 -0.74505805969E-08  0.93827000000E+00  0.93827000000E+00 0. -1.
     999902    2    1    2    0    0 -0.93213968275E-02  0.27357923321E-02  0.10540513114E-01  0.10295955863E+01  0.10294957970E+01 0.  0.
     999903    2    3    3    0    0 -0.69192710657E-01  0.41189295895E-01  0.10707581462E+00  0.14146141258E+00  0.45408279725E-01 0.  0.
         14    1    1    2    0    0  0.93213968275E-02 -0.27357923321E-02 -0.10540513114E-01  0.14334413668E-01  0.00000000000E+00 0. -1.
     999901    1    3    3    0    0  0.59871313830E-01 -0.38453503563E-01 -0.96535301504E-01  0.88813417376E+00  0.88000000000E+00 0. -1.
        -11    1    4    4    0    0 -0.56651960395E-01  0.19850184343E-01  0.46220742607E-01  0.75763398836E-01  0.51100000000E-03 0.  1.
         11    1    4    4    0    0 -0.12540750263E-01  0.21339111552E-01  0.60855072012E-01  0.65698013741E-01  0.51100000000E-03 0. -1.
</event>
<event>
 8    1  0.2922807E+004  0.1043930E+01  0.7957747E-01            NaN
         13   -1    0    0    0    0  0.00000000000E+00  0.00000000000E+00  0.74505805969E-08  0.10566000000E+00  0.10566000000E+00 0. -1.
     999900   -1    0    0    0    0 -0.00000000000E+00 -0.00000000000E+00 -0.74505805969E-08  0.93827000000E+00  0.93827000000E+00 0. -1.
     999902    2    1    2    0    0 -0.14396821749E-01 -0.87231390499E-03  0.19111860322E-02  0.10293807031E+01  0.10292778779E+01 0.  0.
     999903    2    3    3    0    0 -0.67683021479E-02 -0.67792914069E-01 -0.11232396695E+00  0.13944462045E+00  0.46759378825E-01 0.  0.
         14    1    1    2    0    0  0.14396821749E-01  0.87231390499E-03 -0.19111860322E-02  0.14549296893E-01  0.00000000000E+00 0.  1.
     999901    1    3    3    0    0 -0.76285196011E-02  0.66920600164E-01  0.11423515299E+00  0.88993608266E+00  0.88000000000E+00 0.  1.
        -11    1    4    4    0    0 -0.23951687381E-01 -0.57370918436E-01 -0.90202981025E-01  0.10955338661E+00  0.51100000000E-03 0. -1.
         11    1    4    4    0    0  0.17183385234E-01 -0.10421995633E-01 -0.22120985929E-01  0.29891233841E-01  0.51100000000E-03 0.  1.
</event>
<event>
 8    1  0.2922807E+004  0.1043930E+01  0.7957747E-01            NaN
         13   -1    0    0    0    0  0.00000000000E+00  0.00000000000E+00  0.74505805969E-08  0.10566000000E+00  0.10566000000E+00 0.  1.
     999900   -1    0    0    0    0 -0.00000000000E+00 -0.00000000000E+00 -0.74505805969E-08  0.93827000000E+00  0.93827000000E+00 0.  1.
     999902    2    1    2    0    0  0.26665924388E-02  0.80154790469E-02 -0.11000835407E-01  0.10300599964E+01  0.10299666107E+01 0.  0.
     999903    2    3    3    0    0 -0.11773076274E+00 -0.50589962537E-01 -0.32564243508E-01  0.13966957560E+00  0.45025366066E-01 0.  0.
         14    1    1    2    0    0 -0.26665924388E-02 -0.80154790469E-02  0.11000835407E-01  0.13870003577E-01  0.00000000000E+00 0.  1.
     999901    1    3    3    0    0  0.12039735518E+00  0.58605441584E-01  0.21563408102E-01  0.89039042082E+00  0.88000000000E+00 0. -1.
        -11    1    4    4    0    0 -0.67633066566E-01 -0.15929456567E-01 -0.36748880302E-01  0.78604838300E-01  0.51100000000E-03 0.  1.
         11    1    4    4    0    0 -0.50097696173E-01 -0.34660505970E-01  0.41846367936E-02  0.61064737304E-01  0.51100000000E-03 0. -1.
</event>
<event>
 8    1  0.2922807E+004  0.1043930E+01  0.7957747E-01            NaN
         13   -1    0    0    0    0  0.00000000000E+00  0.00000000000E+00  0.74505805969E-08  0.10566000000E+00  0.10566000000E+00 0.  1.
     999900   -1    0    0    0    0 -0.00000000000E+00 -0.00000000000E+00 -0.74505805969E-08  0.93827000000E+00  0.93827000000E+00 0. -1.
     999902    2    1    2    0    0  0.89163049991E-02  0.14815285256E-04  0.37894364008E-02  0.10342418349E+01  0.10341964574E+01 0.  0.
     999903    2    3    3    0    0 -0.10834575529E+00  0.74179287726E-01  0.31129115386E-01  0.14295163650E+00  0.47167564450E-01 0.  0.
         14    1    1    2    0    0 -0.89163049991E-02 -0.14815285256E-04 -0.37894364008E-02  0.96881650773E-02  0.00000000000E+00 0. -1.
     999901    1    3    3    0    0  0.11726206029E+00 -0.74164472440E-01 -0.27339678985E-01  0.89129019842E+00  0.88000000000E+00 0.  1.
        -11    1    4    4    0    0 -0.43068867093E-01  0.57855511822E-01  0.18864443262E-01  0.74554113914E-01  0.51100000000E-03 0. -1.
         11    1    4    4    0    0 -0.65276888199E-01  0.16323775904E-01  0.12264672124E-01  0.68397522587E-01  0.51100000000E-03 0.  1.
</event>
<event>
 8    1  0.2922807E+004  0.1043930E+01  0.7957747E-01            NaN
         13   -1    0    0    0    0  0.00000000000E+00  0.00000000000E+00  0.74505805969E-08  0.10566000000E+00  0.10566000000E+00 0. -1.
     999900   -1    0    0    0    0 -0.00000000000E+00 -0.00000000000E+00 -0.74505805969E-08  0.93827000000E+00  0.93827000000E+00 0. -1.
     999902    2    1    2    0    0 -0.23606523341E-02  0.77832949177E-02 -0.13223830941E-01  0.10284051147E+01  0.10282879256E+01 0.  0.
     999903    2    3    3    0    0 -0.11322371971E+00 -0.61870802915E-01 -0.24127830869E-01  0.13865165992E+00  0.44660089771E-01 0.  0.
         14    1    1    2    0    0  0.23606523341E-02 -0.77832949177E-02  0.13223830941E-01  0.15524885313E-01  0.00000000000E+00 0. -1.
     999901    1    3    3    0    0  0.11086306738E+00  0.69654097832E-01  0.10903999928E-01  0.88975345477E+00  0.88000000000E+00 0.  1.
        -11    1    4    4    0    0 -0.21194623721E-01 -0.33750586499E-01 -0.12212709381E-01  0.41686035493E-01  0.51100000000E-03 0.  1.
         11    1    4    4    0    0 -0.92029095989E-01 -0.28120216416E-01 -0.11915121487E-01  0.96965624429E-01  0.51100000000E-03 0. -1.
</event>
<event>
 8    1  0.2922807E+004  0.1043930E+01  0.7957747E-01            NaN
         13   -1    0    0    0    0  0.00000000000E+00  0.00000000000E+00  0.74505805969E-08  0.10566000000E+00  0.10566000000E+00 0.  1.
     999900   -1    0    0    0    0 -0.00000000000E+00 -0.00000000000E+00 -0.74505805969E-08  0.93827000000E+00  0.93827000000E+00 0. -1.
     999902    2    1    2    0    0  0.19567858155E-02 -0.12518695609E-02 -0.14108123161E-01  0.10296319118E+01  0.10295326310E+01 0.  0.
     999903    2    3    3    0    0 -0.26389084996E-01  0.60067707455E-01 -0.11656869978E+00  0.14111531165E+00  0.44952821123E-01 0.  0.
         14    1    1    2    0    0 -0.19567858155E-02  0.12518695609E-02  0.14108123161E-01  0.14298088238E-01  0.00000000000E+00 0.  1.
     999901    1    3    3    0    0  0.28345870812E-01 -0.61319577016E-01  0.10246057662E+00  0.88851660011E+00  0.88000000000E+00 0.  1.
        -11    1    4    4    0    0 -0.99788604928E-02  0.15808625338E-01 -0.41061859584E-02  0.19147119260E-01  0.51100000000E-03 0.  1.
         11    1    4    4    0    0 -0.16410224504E-01  0.44259082117E-01 -0.11246251382E+00  0.12196819239E+00  0.51100000000E-03 0. -1.
</event>
<event>
 8    1  0.2922807E+004  0.1043930E+01  0.7957747E-01            NaN
         13   -1    0    0    0    0  0.00000000000E+00  0.00000000000E+00  0.74505805969E-08  0.10566000000E+00  0.10566000000E+00 0. -1.
     999900   -1    0    0    0    0 -0.00000000000E+00 -0.00000000000E+00 -0.74505805969E-08  0.93827000000E+00  0.93827000000E+00 0. -1.
     999902    2    1    2    0    0  0.66784614954E-03  0.82776613795E-03  0.13845928120E-01  0.10300432819E+01  0.10299496694E+01 0.  0.
     999903    2    3    3    0    0  0.11150274266E+00 -0.37330682312E-01  0.62755103939E-01  0.14092430841E+00  0.45771346557E-01 0.  0.
         14    1    1    2    0    0 -0.66784614954E-03 -0.82776613795E-03 -0.13845928120E-01  0.13886718142E-01  0.00000000000E+00 0.  1.
     999901    1    3    3    0    0 -0.11083489651E+00  0.38158448450E-01 -0.48909175819E-01  0.88911897345E+00  0.88000000000E+00 0. -1.
        -11    1    4    4    0    0  0.43973941814E-01 -0.13803910190E-02  0.34643285933E-02  0.44134745175E-01  0.51100000000E-03 0. -1.
         11    1    4    4    0    0  0.67528800850E-01 -0.35950291293E-01  0.59290775346E-01  0.96789563231E-01  0.51100000000E-03 0.  1.
</event>
<event>
 8    1  0.2922807E+004  0.1043930E+01  0.7957747E-01            NaN
         13   -1    0    0    0    0  0.00000000000E+00  0.00000000000E+00  0.74505805969E-08  0.10566000000E+00  0.10566000000E+00 0.  1.
     999900   -1    0    0    0    0 -0.00000000000E+00 -0.00000000000E+00 -0.74505805969E-08  0.93827000000E+00  0.93827000000E+00 0. -1.
     999902    2    1    2    0    0 -0.10329554815E-01  0.62335456003E-02  0.69587327110E-02  0.10300023026E+01  0.10299081331E+01 0.  0.
     999903    2    3    3    0    0 -0.21873070326E-01 -0.72882179588E-01  0.11088997346E+00  0.14028647522E+00  0.39918236530E-01 0.  0.
         14    1    1    2    0    0  0.10329554815E-01 -0.62335456003E-02 -0.69587327110E-02  0.13927697382E-01  0.00000000000E+00 0. -1.
     999901    1    3    3    0    0  0.11543515511E-01  0.79115725188E-01 -0.10393124075E+00  0.88971582740E+00  0.88000000000E+00 0. -1.
        -11    1    4    4    0    0  0.79717682947E-03 -0.43998840481E-01  0.35922954111E-01  0.56808918381E-01  0.51100000000E-03 0. -1.
         11    1    4    4    0    0 -0.22670247155E-01 -0.28883339107E-01  0.74967019351E-01  0.83477556837E-01  0.51100000000E-03 0.  1.
</event>
<event>
 8    1  0.2922807E+004  0.1043930E+01  0.7957747E-01            NaN
         13   -1    0    0    0    0  0.00000000000E+00  0.00000000000E+00  0.74505805969E-08  0.10566000000E+00  0.10566000000E+00 0. -1.
     999900   -1    0    0    0    0 -0.00000000000E+00 -0.00000000000E+00 -0.74505805969E-08  0.93827000000E+00  0.93827000000E+00 0.  1.
     999902    2    1    2    0    0  0.26999192042E-02  0.36217988443E-03 -0.14158169651E-01  0.10295121463E+01  0.10294111836E+01 0.  0.
     999903    2    3    3    0    0  0.63113585118E-01  0.98677201813E-01 -0.63653301041E-01  0.14059965194E+00  0.44676667379E-01 0.  0.
         14    1    1    2    0    0 -0.26999192042E-02 -0.36217988443E-03  0.14158169651E-01  0.14417853719E-01  0.00000000000E+00 0. -1.
     999901    1    3    3    0    0 -0.60413665913E-01 -0.98315021928E-01  0.49495131389E-01  0.88891249434E+00  0.88000000000E+00 0. -1.
        -11    1    4    4    0    0  0.64408401466E-01  0.64531253021E-01 -0.45306321630E-01  0.10181182985E+00  0.51100000000E-03 0. -1.
         11    1    4    4    0    0 -0.12948163488E-02  0.34145948792E-01 -0.18346979411E-01  0.38787822093E-01  0.51100000000E-03 0.  1.
</event>
<event>
 8    1  0.2922807E+004  0.1043930E+01  0.7957747E-01            NaN
         13   -1    0    0    0    0  0.00000000000E+00  0.00000000000E+00  0.74505805969E-08  0.10566000000E+00  0.10566000000E+00 0.  1.
     999900   -1    0    0    0    0 -0.00000000000E+00 -0.00000000000E+00 -0.74505805969E-08  0.93827000000E+00  0.93827000000E+00 0. -1.
     999902    2    1    2    0    0 -0.22708631245E-03  0.28115777947E-02  0.12566244247E-01  0.10310510625E+01  0.10309706234E+01 0.  0.
     999903    2    3    3    0    0  0.71235931996E-01 -0.10752627020E+00  0.35185199530E-01  0.14099880510E+00  0.44790713119E-01 0.  0.
         14    1    1    2    0    0  0.22708631245E-03 -0.28115777947E-02 -0.12566244247E-01  0.12878937548E-01  0.00000000000E+00 0. -1.
     999901    1    3    3    0    0 -0.71463018308E-01  0.11033784800E+00 -0.22618955283E-01  0.89005225736E+00  0.88000000000E+00 0. -1.
        -11    1    4    4    0    0  0.38614876750E-01 -0.66566166481E-01 -0.16512349723E-02  0.76975001944E-01  0.51100000000E-03 0. -1.
         11    1    4    4    0    0  0.32621055246E-01 -0.40960103722E-01  0.36836434502E-01  0.64023803152E-01  0.51100000000E-03 0.  1.
</event>
<event>
 8    1  0.2922807E+004  0.1043930E+01  0.7957747E-01            NaN
         13   -1    0    0    0    0  0.00000000000E+00  0.00000000000E+00  0.74505805969E-08  0.10566000000E+00  0.10566000000E+00 0. -1.
     999900   -1    0    0    0    0 -0.00000000000E+00 -0.00000000000E+00 -0.74505805969E-08  0.93827000000E+00  0.93827000000E+00 0.  1.
     999902    2    1    2    0    0  0.13021439056E-01 -0.32780524667E-02  0.11718397051E-02  0.10304512496E+01  0.10303630919E+01 0.  0.
     999903    2    3    3    0    0 -0.47324118580E-01 -0.10016371016E+00  0.73054467965E-01  0.14017290595E+00  0.45156917959E-01 0.  0.
         14    1    1    2    0    0 -0.13021439056E-01  0.32780524667E-02 -0.11718397051E-02  0.13478750364E-01  0.00000000000E+00 0.  1.
     999901    1    3    3    0    0  0.60345557636E-01  0.96885657696E-01 -0.71882628260E-01  0.89027834369E+00  0.88000000000E+00 0.  1.
        -11    1    4    4    0    0 -0.10576562633E-01 -0.45806982321E-01  0.54517343049E-01  0.71989895962E-01  0.51100000000E-03 0.  1.
         11    1    4    4    0    0 -0.36747555947E-01 -0.54356727842E-01  0.18537124916E-01  0.68183009987E-01  0.51100000000E-03 0. -1.
</event>
<event>
 8    1  0.2922807E+004  0.1043930E+01  0.7957747E-01            NaN
         13   -1    0    0    0    0  0.00000000000E+00  0.00000000000E+00  0.74505805969E-08  0.10566000000E+00  0.10566000000E+00 0. -1.
     999900   -1    0    0    0    0 -0.00000000000E+00 -0.00000000000E+00 -0.74505805969E-08  0.93827000000E+00  0.93827000000E+00 0.  1.
     999902    2    1    2    0    0  0.68881438338E-02  0.71291920833E-02  0.92548675578E-02  0.10303681241E+01  0.10302788684E+01 0.  0.
     999903    2    3    3    0    0 -0.11526727272E+00  0.64801224641E-01 -0.86481797957E-02  0.13988032054E+00  0.44788058508E-01 0.  0.
         14    1    1    2    0    0 -0.68881438338E-02 -0.71291920833E-02 -0.92548675578E-02  0.13561875930E-01  0.00000000000E+00 0.  1.
     999901    1    3    3    0    0  0.12215541655E+00 -0.57672032558E-01  0.17903047354E-01  0.89048780353E+00  0.88000000000E+00 0.  1.
        -11    1    4    4    0    0 -0.49839757205E-01  0.49715256725E-01  0.75685769630E-02  0.70803620160E-01  0.51100000000E-03 0.  1.
         11    1    4    4    0    0 -0.65427515516E-01  0.15085967916E-01 -0.16216756759E-01  0.69076700379E-01  0.51100000000E-03 0. -1.
</event>
<event>
 8    1  0.2922807E+004  0.1043930E+01  0.7957747E-01            NaN
         13   -1    0    0    0    0  0.00000000000E+00  0.00000000000E+00  0.74505805969E-08  0.10566000000E+00  0.10566000000E+00 0. -1.
     999900   -1    0    0    0    0 -0.00000000000E+00 -0.00000000000E+00 -0.74505805969E-08  0.93827000000E+00  0.93827000000E+00 0. -1.
     999902    2    1    2    0    0  0.86421481031E-02 -0.28009481466E-02 -0.10223279822E-01  0.10302534696E+01  0.10301626882E+01 0.  0.
     999903    2    3    3    0    0  0.95819770040E-01  0.59981182477E-01 -0.72557236360E-01  0.14153132186E+00  0.44580174255E-01 0.  0.
         14    1    1    2    0    0 -0.86421481031E-02  0.28009481466E-02  0.10223279822E-01  0.13676530433E-01  0.00000000000E+00 0. -1.
     999901    1    3    3    0    0 -0.87177621937E-01 -0.62782130624E-01  0.62333956538E-01  0.88872214771E+00  0.88000000000E+00 0. -1.
        -11    1    4    4    0    0  0.30668640983E-01  0.22821116292E-01 -0.15755779482E-02  0.38263722446E-01  0.51100000000E-03 0. -1.
         11    1    4    4    0    0  0.65151129057E-01  0.37160066185E-01 -0.70981658412E-01  0.10326759941E+00  0.51100000000E-03 0.  1.
</event>
<event>
 8    1  0.2922807E+004  0.1043930E+01  0.7957747E-01            NaN
         13   -1    0    0    0    0  0.00000000000E+00  0.00000000000E+00  0.74505805969E-08  0.10566000000E+00  0.10566000000E+00 0.  1.
     999900   -1    0    0    0    0 -0.00000000000E+00 -0.00000000000E+00 -0.74505805969E-08  0.93827000000E+00  0.93827000000E+00 0. -1.
     999902    2    1    2    0    0 -0.12093227021E-02  0.13495602247E-01 -0.47727340563E-02  0.10295643210E+01  0.10294640928E+01 0.  0.
     999903    2    3    3    0    0  0.78107174438E-02 -0.12287430075E+00  0.42651305198E-01  0.13775315770E+00  0.44695609743E-01 0.  0.
         14    1    1    2    0    0  0.12093227021E-02 -0.13495602247E-01  0.47727340563E-02  0.14365678953E-01  0.00000000000E+00 0.  1.
     999901    1    3    3    0    0 -0.90200401459E-02  0.13636990300E+00 -0.47424039255E-01  0.89181116334E+00  0.88000000000E+00 0.  1.
        -11    1    4    4    0    0 -0.75744037399E-02 -0.20197929968E-01  0.23988734712E-01  0.32265282908E-01  0.51100000000E-03 0.  1.
         11    1    4    4    0    0  0.15385121184E-01 -0.10267637078E+00  0.18662570486E-01  0.10548787479E+00  0.51100000000E-03 0. -1.
</event>
<event>
 8    1  0.2922807E+004  0.1043930E+01  0.7957747E-01            NaN
         13   -1    0    0    0    0  0.00000000000E+00  0.00000000000E+00  0.74505805969E-08  0.10566000000E+00  0.10566000000E+00 0. -1.
     999900   -1    0    0    0    0 -0.00000000000E+00 -0.00000000000E+00 -0.74505805969E-08  0.93827000000E+00  0.93827000000E+00 0.  1.
     999902    2    1    2    0    0  0.80011515023E-02  0.11313258257E-01  0.22421589962E-02  0.10298930660E+01  0.10297974034E+01 0.  0.
     999903    2    3    3    0    0  0.78532100722E-03 -0.11083688248E+00  0.70826191962E-01  0.13878336760E+00  0.44261071006E-01 0.  0.
         14    1    1    2    0    0 -0.80011515023E-02 -0.11313258257E-01 -0.22421589962E-02  0.14036933950E-01  0.00000000000E+00 0.  1.
     999901    1    3    3    0    0  0.72158304951E-02  0.12215014074E+00 -0.68584032966E-01  0.89110969845E+00  0.88000000000E+00 0. -1.
        -11    1    4    4    0    0 -0.17278820244E-01 -0.75111627755E-01  0.58915218045E-01  0.97013289251E-01  0.51100000000E-03 0.  1.
         11    1    4    4    0    0  0.18064141251E-01 -0.35725254730E-01  0.11910973917E-01  0.41770078349E-01  0.51100000000E-03 0. -1.
</event>
<event>
 8    1  0.2922807E+004  0.1043930E+01  0.7957747E-01            NaN
         13   -1    0    0    0    0  0.00000000000E+00  0.00000000000E+00  0.74505805969E-08  0.10566000000E+00  0.10566000000E+00 0.  1.
     999900   -1    0    0    0    0 -0.00000000000E+00 -0.00000000000E+00 -0.74505805969E-08  0.93827000000E+00  0.93827000000E+00 0. -1.
     999902    2    1    2    0    0 -0.91686311518E-02 -0.91559445719E-02  0.26820620746E-02  0.10306978960E+01  0.10306129556E+01 0.  0.
     999903    2    3    3    0    0 -0.51211925213E-02  0.11624758425E+00  0.62739976580E-01  0.13977175999E+00  0.45388465197E-01 0.  0.
         14    1    1    2    0    0  0.91686311518E-02  0.91559445719E-02 -0.26820620746E-02  0.13232103959E-01  0.00000000000E+00 0.  1.
     999901    1    3    3    0    0 -0.40474386305E-02 -0.12540352882E+00 -0.60057914505E-01  0.89092613605E+00  0.88000000000E+00 0. -1.
        -11    1    4    4    0    0 -0.10420285749E-03  0.61375164460E-01  0.58030385244E-01  0.84467203122E-01  0.51100000000E-03 0.  1.
         11    1    4    4    0    0 -0.50169896639E-02  0.54872419792E-01  0.47095913361E-02  0.55304556870E-01  0.51100000000E-03 0. -1.
</event>
<event>
 8    1  0.2922807E+004  0.1043930E+01  0.7957747E-01            NaN
         13   -1    0    0    0    0  0.00000000000E+00  0.00000000000E+00  0.74505805969E-08  0.10566000000E+00  0.10566000000E+00 0.  1.
     999900   -1    0    0    0    0 -0.00000000000E+00 -0.00000000000E+00 -0.74505805969E-08  0.93827000000E+00  0.93827000000E+00 0.  1.
     999902    2    1    2    0    0  0.10933362960E-02 -0.29880665354E-02 -0.14952550953E-01  0.10286426619E+01  0.10285290580E+01 0.  0.
     999903    2    3    3    0    0  0.69903324507E-01 -0.59549596999E-01  0.92214267637E-01  0.13767759626E+00  0.44933507273E-01 0.  0.
         14    1    1    2    0    0 -0.10933362960E-02  0.29880665354E-02  0.14952550953E-01  0.15287338090E-01  0.00000000000E+00 0. -1.
     999901    1    3    3    0    0 -0.68809988211E-01  0.56561530463E-01 -0.10716681859E+00  0.89096506565E+00  0.88000000000E+00 0.  1.
        -11    1    4    4    0    0 -0.11029381068E-02 -0.20525721727E-01  0.12776431576E-01  0.24207850993E-01  0.51100000000E-03 0.  1.
         11    1    4    4    0    0  0.71006262614E-01 -0.39023875272E-01  0.79437836061E-01  0.11346974527E+00  0.51100000000E-03 0. -1.
</event>
<event>
 8    1  0.2922807E+004  0.1043930E+01  0.7957747E-01            NaN
         13   -1    0    0    0    0  0.00000000000E+00  0.00000000000E+00  0.74505805969E-08  0.10566000000E+00  0.10566000000E+00 0.  1.
     999900   -1    0    0    0    0 -0.00000000000E+00 -0.00000000000E+00 -0.74505805969E-08  0.93827000000E+00  0.93827000000E+00 0.  1.
     999902    2    1    2    0    0  0.23623104931E-02  0.17774857643E-02  0.14072656481E-01  0.10295501660E+01  0.10294497387E+01 0.  0.
     999903    2    3    3    0    0  0.42507995210E-01 -0.26543936451E-01 -0.12121972061E+00  0.13785638094E+00  0.42410504377E-01 0.  0.
         14    1    1    2    0    0 -0.23623104931E-02 -0.17774857643E-02 -0.14072656481E-01  0.14379834037E-01  0.00000000000E+00 0. -1.
     999901    1    3    3    0    0 -0.40145684717E-01  0.28321422215E-01  0.13529237709E+00  0.89169378503E+00  0.88000000000E+00 0. -1.
        -11    1    4    4    0    0 -0.28473331154E-03  0.62217449664E-02 -0.39312424892E-01  0.39806017829E-01  0.51100000000E-03 0.  1.
         11    1    4    4    0    0  0.42792728521E-01 -0.32765681417E-01 -0.81907295715E-01  0.98050363107E-01  0.51100000000E-03 0. -1.
</event>
<event>
 8    1  0.2922807E+004  0.1043930E+01  0.7957747E-01            NaN
         13   -1    0    0    0    0  0.00000000000E+00  0.00000000000E+00  0.74505805969E-08  0.10566000000E+00  0.10566000000E+00 0.  1.
     999900   -1    0    0    0    0 -0.00000000000E+00 -0.00000000000E+00 -0.74505805969E-08  0.93827000000E+00  0.93827000000E+00 0.  1.
     999902    2    1    2    0    0 -0.70680062769E-02 -0.69658707703E-02 -0.90702155722E-02  0.10304857120E+01  0.10303980075E+01 0.  0.
     999903    2    3    3    0    0 -0.73562997010E-01 -0.11163415011E+00  0.29765514067E-02  0.14171006144E+00  0.46895454546E-01 0.  0.
         14    1    1    2    0    0  0.70680062769E-02  0.69658707703E-02  0.90702155722E-02  0.13444287964E-01  0.00000000000E+00 0.  1.
     999901    1    3    3    0    0  0.66494990734E-01  0.10466827934E+00 -0.12046766979E-01  0.88877565059E+00  0.88000000000E+00 0. -1.
        -11    1    4    4    0    0 -0.16776302556E-01 -0.36964465671E-01 -0.19808548407E-01  0.45171404238E-01  0.51100000000E-03 0. -1.
         11    1    4    4    0    0 -0.56786694455E-01 -0.74669684435E-01  0.22785099813E-01  0.96538657206E-01  0.51100000000E-03 0.  1.
</event>
<event>
 8    1  0.2922807E+004  0.1043930E+01  0.7957747E-01            NaN
         13   -1    0    0    0    0  0.00000000000E+00  0.00000000000E+00  0.74505805969E-08  0.10566000000E+00  0.10566000000E+00 0.  1.
     999900   -1    0    0    0    0 -0.00000000000E+00 -0.00000000000E+00 -0.74505805969E-08  0.93827000000E+00  0.93827000000E+00 0. -1.
     999902    2    1    2    0    0 -0.63940893030E-02 -0.79740161915E-02 -0.78227172156E-02  0.10310589388E+01  0.10309785987E+01 0.  0.
     999903    2    3    3    0    0 -0.12271899719E+00  0.52078717472E-01  0.19546015023E-02  0.14132110606E+00  0.46858184615E-01 0.  0.
         14    1    1    2    0    0  0.63940893030E-02  0.79740161915E-02  0.78227172156E-02  0.12871061218E-01  0.00000000000E+00 0.  1.
     999901    1    3    3    0    0  0.11632490789E+00 -0.60052733663E-01 -0.97773187179E-02  0.88973783272E+00  0.88000000000E+00 0. -1.
        -11    1    4    4    0    0 -0.82244803038E-02  0.30858019965E-02  0.13645122197E-01  0.16236216646E-01  0.51100000000E-03 0.  1.
         11    1    4    4    0    0 -0.11449451689E+00  0.48992915475E-01 -0.11690520694E-01  0.12508488941E+00  0.51100000000E-03 0. -1.
</event>
<event>
 8    1  0.2922807E+004  0.1043930E+01  0.7957747E-01            NaN
         13   -1    0    0    0    0  0.00000000000E+00  0.00000000000E+00  0.74505805969E-08  0.10566000000E+00  0.10566000000E+00 0.  1.
     999900   -1    0    0    0    0 -0.00000000000E+00 -0.00000000000E+00 -0.74505805969E-08  0.93827000000E+00  0.93827000000E+00 0. -1.
     999902    2    1    2    0    0  0.64613123020E-02 -0.12382869836E-01  0.24641777434E-02  0.10297470457E+01  0.10296493684E+01 0.  0.
     999903    2    3    3    0    0 -0.28611398028E-01  0.11164343697E+00 -0.61256095241E-01  0.13807844523E+00  0.45060833513E-01 0.  0.
         14    1    1    2    0    0 -0.64613123020E-02  0.12382869836E-01 -0.24641777434E-02  0.14182954346E-01  0.00000000000E+00 0.  1.
     999901    1    3    3    0    0  0.35072710330E-01 -0.12402630681E+00  0.63720272984E-01  0.89166860042E+00  0.88000000000E+00 0.  1.
        -11    1    4    4    0    0 -0.26057237030E-01  0.33838935092E-01 -0.37082555095E-01  0.56563505400E-01  0.51100000000E-03 0.  1.
         11    1    4    4    0    0 -0.25541609985E-02  0.77804501882E-01 -0.24173540146E-01  0.81514939831E-01  0.51100000000E-03 0. -1.
</event>
<event>
 8    1  0.2922807E+004  0.1043930E+01  0.7957747E-01            NaN
         13   -1    0    0    0    0  0.00000000000E+00  0.00000000000E+00  0.74505805969E-08  0.10566000000E+00  0.10566000000E+00 0. -1.
     999900   -1    0    0    0    0 -0.00000000000E+00 -0.00000000000E+00 -0.74505805969E-08  0.93827000000E+00  0.93827000000E+00 0.  1.
     999902    2    1    2    0    0 -0.52125472677E-02  0.33456685736E-02 -0.13537618635E-01  0.10290427146E+01  0.10289350209E+01 0.  0.
     999903    2    3    3    0    0 -0.31551670163E-01 -0.10822888109E+00  0.65296075523E-01  0.13811208834E+00  0.45851639839E-01 0.  0.
         14    1    1    2    0    0  0.52125472677E-02 -0.33456685736E-02  0.13537618635E-01  0.14887285365E-01  0.00000000000E+00 0. -1.
     999901    1    3    3    0    0  0.26339122896E-01  0.11157454966E+00 -0.78833694159E-01  0.89093062629E+00  0.88000000000E+00 0.  1.
        -11    1    4    4    0    0 -0.32578465164E-01 -0.34098694958E-01  0.19979881719E-01  0.51220446940E-01  0.51100000000E-03 0. -1.
         11    1    4    4    0    0  0.10267950005E-02 -0.74130186133E-01  0.45316193804E-01  0.86891641404E-01  0.51100000000E-03 0.  1.
</event>
<event>
 8    1  0.2922807E+004  0.1043930E+01  0.7957747E-01            NaN
         13   -1    0    0    0    0  0.00000000000E+00  0.00000000000E+00  0.74505805969E-08  0.10566000000E+00  0.10566000000E+00 0. -1.
     999900   -1    0    0    0    0 -0.00000000000E+00 -0.00000000000E+00 -0.74505805969E-08  0.93827000000E+00  0.93827000000E+00 0. -1.
     999902    2    1    2    0    0 -0.12074272445E-01  0.55675648489E-02 -0.24320310335E-02  0.10304133211E+01  0.10303246632E+01 0.  0.
     999903    2    3    3    0    0  0.11019548736E+00  0.70660444558E-01 -0.35512889116E-02  0.13957762925E+00  0.48304855599E-01 0.  0.
         14    1    1    2    0    0  0.12074272445E-01 -0.55675648489E-02  0.24320310335E-02  0.13516678896E-01  0.00000000000E+00 0. -1.
     999901    1    3    3    0    0 -0.12226975980E+00 -0.65092879709E-01  0.11192578781E-02  0.89083569186E+00  0.88000000000E+00 0. -1.
        -11    1    4    4    0    0  0.12279844276E-01  0.15700161469E-01  0.16045843502E-01  0.25593355784E-01  0.51100000000E-03 0.  1.
         11    1    4    4    0    0  0.97915643079E-01  0.54960283089E-01 -0.19597132414E-01  0.11398427346E+00  0.51100000000E-03 0. -1.
</event>
<event>
 8    1  0.2922807E+004  0.1043930E+01  0.7957747E-01            NaN
         13   -1    0    0    0    0  0.00000000000E+00  0.00000000000E+00  0.74505805969E-08  0.10566000000E+00  0.10566000000E+00 0. -1.
     999900   -1    0    0    0    0 -0.00000000000E+00 -0.00000000000E+00 -0.74505805969E-08  0.93827000000E+00  0.93827000000E+00 0. -1.
     999902    2    1    2    0    0  0.43191377123E-02  0.61316473493E-02 -0.99231177316E-02  0.10314913379E+01  0.10314163368E+01 0.  0.
     999903    2    3    3    0    0  0.40202091137E-01 -0.64966547505E-01 -0.11175073494E+00  0.14204690269E+00  0.43037604244E-01 0.  0.
         14    1    1    2    0    0 -0.43191377123E-02 -0.61316473493E-02  0.99231177316E-02  0.12438662119E-01  0.00000000000E+00 0. -1.
     999901    1    3    3    0    0 -0.35882953425E-01  0.71098194855E-01  0.10182761721E+00  0.88944443519E+00  0.88000000000E+00 0.  1.
        -11    1    4    4    0    0  0.42451701652E-01 -0.31225799908E-01 -0.56472423054E-01  0.77243726215E-01  0.51100000000E-03 0. -1.
         11    1    4    4    0    0 -0.22496105147E-02 -0.33740747598E-01 -0.55278311886E-01  0.64803176480E-01  0.51100000000E-03 0.  1.
</event>
<event>
 8    1  0.2922807E+004  0.1043930E+01  0.7957747E-01            NaN
         13   -1    0    0    0    0  0.00000000000E+00  0.00000000000E+00  0.74505805969E-08  0.10566000000E+00  0.10566000000E+00 0.  1.
     999900   -1    0    0    0    0 -0.00000000000E+00 -0.00000000000E+00 -0.74505805969E-08  0.93827000000E+00  0.93827000000E+00 0. -1.
     999902    2    1    2    0    0 -0.12114456111E-01  0.47262561981E-02  0.38398133915E-02  0.10303711759E+01  0.10302819606E+01 0.  0.
     999903    2    3    3    0    0  0.42883522729E-01  0.51806983113E-01 -0.11328196216E+00  0.13966421912E+00  0.46371663004E-01 0.  0.
         14    1    1    2    0    0  0.12114456111E-01 -0.47262561981E-02 -0.38398133915E-02  0.13558824115E-01  0.00000000000E+00 0.  1.
     999901    1    3    3    0    0 -0.54997978840E-01 -0.47080726915E-01  0.11712177555E+00  0.89070695677E+00  0.88000000000E+00 0.  1.
        -11    1    4    4    0    0  0.10055481728E-01  0.37090902015E-01 -0.29390723048E-01  0.48383090511E-01  0.51100000000E-03 0.  1.
         11    1    4    4    0    0  0.32828041001E-01  0.14716081098E-01 -0.83891239113E-01  0.91281128607E-01  0.51100000000E-03 0. -1.
</event>
<event>
 8    1  0.2922807E+004  0.1043930E+01  0.7957747E-01            NaN
         13   -1    0    0    0    0  0.00000000000E+00  0.00000000000E+00  0.74505805969E-08  0.10566000000E+00  0.10566000000E+00 0. -1.
     999900   -1    0    0    0    0 -0.00000000000E+00 -0.00000000000E+00 -0.74505805969E-08  0.93827000000E+00  0.93827000000E+00 0.  1.
     999902    2    1    2    0    0 -0.44606129488E-02  0.11768876433E-01  0.47840407634E-03  0.10313350649E+01  0.10312581557E+01 0.  0.
     999903    2    3    3    0    0  0.77953216921E-01  0.61351874538E-01 -0.90258224136E-01  0.14145661882E+00  0.44974119731E-01 0.  0.
         14    1    1    2    0    0  0.44606129488E-02 -0.11768876433E-01 -0.47840407634E-03  0.12594935126E-01  0.00000000000E+00 0.  1.
     999901    1    3    3    0    0 -0.82413829870E-01 -0.49582998105E-01  0.90736628213E-01  0.88987844606E+00  0.88000000000E+00 0. -1.
        -11    1    4    4    0    0  0.15629298188E-02  0.22438969392E-01 -0.12630808498E-01  0.25802103428E-01  0.51100000000E-03 0.  1.
         11    1    4    4    0    0  0.76390287102E-01  0.38912905146E-01 -0.77627415638E-01  0.11565451539E+00  0.51100000000E-03 0. -1.
</event>
<event>
 8    1  0.2922807E+004  0.1043930E+01  0.7957747E-01            NaN
         13   -1    0    0    0    0  0.00000000000E+00  0.00000000000E+00  0.74505805969E-08  0.10566000000E+00  0.10566000000E+00 0.  1.
     999900   -1    0    0    0    0 -0.00000000000E+00 -0.00000000000E+00 -0.74505805969E-08  0.93827000000E+00  0.93827000000E+00 0.  1.
     999902    2    1    2    0    0 -0.14407391217E-01 -0.77410546763E-02 -0.47814887521E-03  0.10275676812E+01  0.10274374015E+01 0.  0.
     999903    2    3    3    0    0  0.12450245237E+00 -0.22621558763E-01  0.21753692455E-01  0.13626995947E+00  0.45647378375E-01 0.  0.
         14    1    1    2    0    0  0.14407391217E-01  0.77410546763E-02  0.47814887521E-03  0.16362318770E-01  0.00000000000E+00 0.  1.
     999901    1    3    3    0    0 -0.13890984358E+00  0.14880504087E-01 -0.22231841330E-01  0.89129772176E+00  0.88000000000E+00 0.  1.
        -11    1    4    4    0    0  0.28074711364E-01  0.13405075417E-01  0.28777656333E-03  0.31116384774E-01  0.51100000000E-03 0.  1.
         11    1    4    4    0    0  0.96427741002E-01 -0.36026634180E-01  0.21465915891E-01  0.10515357470E+00  0.51100000000E-03 0. -1.
</event>
<event>
 8    1  0.2922807E+004  0.1043930E+01  0.7957747E-01            NaN
         13   -1    0    0    0    0  0.00000000000E+00  0.00000000000E+00  0.74505805969E-08  0.10566000000E+00  0.10566000000E+00 0.  1.
     999900   -1    0    0    0    0 -0.00000000000E+00 -0.00000000000E+00 -0.74505805969E-08  0.93827000000E+00  0.93827000000E+00 0.  1.
     999902    2    1    2    0    0 -0.70002377340E-02 -0.38543714045E-03 -0.11050702680E-01  0.10308429866E+01  0.10307599105E+01 0.  0.
     999903    2    3    3    0    0  0.11929130998E-01  0.30923756111E-01 -0.13081307057E+00  0.14197763608E+00  0.44124900632E-01 0.  0.
         14    1    1    2    0    0  0.70002377340E-02  0.38543714045E-03  0.11050702680E-01  0.13087013404E-01  0.00000000000E+00 0.  1.
     999901    1    3    3    0    0 -0.18929368732E-01 -0.31309193252E-01  0.11976236789E+00  0.88886535051E+00  0.88000000000E+00 0. -1.
        -11    1    4    4    0    0 -0.11092677824E-01  0.26826910080E-02 -0.71192283884E-01  0.72103028632E-01  0.51100000000E-03 0.  1.
         11    1    4    4    0    0  0.23021808822E-01  0.28241065103E-01 -0.59620786690E-01  0.69874607449E-01  0.51100000000E-03 0. -1.
</event>
<event>
 8    1  0.2922807E+004  0.1043930E+01  0.7957747E-01            NaN
         13   -1    0    0    0    0  0.00000000000E+00  0.00000000000E+00  0.74505805969E-08  0.10566000000E+00  0.10566000000E+00 0. -1.
     999900   -1    0    0    0    0 -0.00000000000E+00 -0.00000000000E+00 -0.74505805969E-08  0.93827000000E+00  0.93827000000E+00 0.  1.
     999902    2    1    2    0    0  0.57498059739E-02 -0.11501429553E-01 -0.48737938687E-02  0.10301787449E+01  0.10300869621E+01 0.  0.
     999903    2    3    3    0    0 -0.32470977152E-01 -0.88862535636E-02  0.12744503680E+00  0.13946221290E+00  0.45542744344E-01 0.  0.
         14    1    1    2    0    0 -0.57498059739E-02  0.11501429553E-01  0.48737938687E-02  0.13751255113E-01  0.00000000000E+00 0.  1.
     999901    1    3    3    0    0  0.38220783125E-01 -0.26151759894E-02 -0.13231883067E+00  0.89071653199E+00  0.88000000000E+00 0.  1.
        -11    1    4    4    0    0  0.24471609467E-02  0.10029935884E-01  0.62401402138E-01  0.63251753496E-01  0.51100000000E-03 0.  1.
         11    1    4    4    0    0 -0.34918138098E-01 -0.18916189448E-01  0.65043634661E-01  0.76210459403E-01  0.51100000000E-03 0. -1.
</event>
<event>
 8    1  0.2922807E+004  0.1043930E+01  0.7957747E-01            NaN
         13   -1    0    0    0    0  0.00000000000E+00  0.00000000000E+00  0.74505805969E-08  0.10566000000E+00  0.10566000000E+00 0.  1.
     999900   -1    0    0    0    0 -0.00000000000E+00 -0.00000000000E+00 -0.74505805969E-08  0.93827000000E+00  0.93827000000E+00 0.  1.
     999902    2    1    2    0    0  0.42598848688E-02 -0.93005150889E-02 -0.92439105585E-02  0.10301424664E+01  0.10300501954E+01 0.  0.
     999903    2    3    3    0    0 -0.17832674293E-01  0.90857490371E-01 -0.95165435596E-01  0.14002886934E+00  0.44480740636E-01 0.  0.
         14    1    1    2    0    0 -0.42598848688E-02  0.93005150889E-02  0.92439105585E-02  0.13787533588E-01  0.00000000000E+00 0.  1.
     999901    1    3    3    0    0  0.22092559162E-01 -0.10015800546E+00  0.85921525037E-01  0.89011359707E+00  0.88000000000E+00 0. -1.
        -11    1    4    4    0    0  0.57601627758E-02  0.72433389143E-01 -0.64294192753E-01  0.97024634401E-01  0.51100000000E-03 0.  1.
         11    1    4    4    0    0 -0.23592837069E-01  0.18424101228E-01 -0.30871242843E-01  0.43004234939E-01  0.51100000000E-03 0. -1.
</event>
<event>
 8    1  0.2922807E+004  0.1043930E+01  0.7957747E-01            NaN
         13   -1    0    0    0    0  0.00000000000E+00  0.00000000000E+00  0.74505805969E-08  0.10566000000E+00  0.10566000000E+00 0. -1.
     999900   -1    0    0    0    0 -0.00000000000E+00 -0.00000000000E+00 -0.74505805969E-08  0.93827000000E+00  0.93827000000E+00 0. -1.
     999902    2    1    2    0    0  0.16804186365E-02  0.62714639753E-02 -0.12024875862E-01  0.10302642506E+01  0.10301736132E+01 0.  0.
     999903    2    3    3    0    0 -0.55271063762E-01 -0.12716385598E-01 -0.12143286503E+00  0.14145936882E+00  0.45257213407E-01 0.  0.
         14    1    1    2    0    0 -0.16804186365E-02 -0.62714639753E-02  0.12024875862E-01  0.13665749401E-01  0.00000000000E+00 0. -1.
     999901    1    3    3    0    0  0.56951482399E-01  0.18987849573E-01  0.10940798917E+00  0.88880488178E+00  0.88000000000E+00 0.  1.
        -11    1    4    4    0    0 -0.50964445889E-01 -0.19357056324E-01 -0.66661445597E-01  0.86116664034E-01  0.51100000000E-03 0.  1.
         11    1    4    4    0    0 -0.43066178728E-02  0.66406707269E-02 -0.54771419434E-01  0.55342704786E-01  0.51100000000E-03 0. -1.
</event>
<event>
 8    1  0.2922807E+004  0.1043930E+01  0.7957747E-01            NaN
         13   -1    0    0    0    0  0.00000000000E+00  0.00000000000E+00  0.74505805969E-08  0.10566000000E+00  0.10566000000E+00 0.  1.
     999900   -1    0    0    0    0 -0.00000000000E+00 -0.00000000000E+00 -0.74505805969E-08  0.93827000000E+00  0.93827000000E+00 0.  1.
     999902    2    1    2    0    0 -0.50878385283E-02 -0.15832578566E-01 -0.95459582904E-02  0.10247549651E+01  0.10245755494E+01 0.  0.
     999903    2    3    3    0    0  0.10657439000E+00  0.41558494957E-01 -0.55690306712E-01  0.13464739320E+00  0.44082889282E-01 0.  0.
         14    1    1    2    0    0  0.50878385283E-02  0.15832578566E-01  0.95459582904E-02  0.19175034931E-01  0.00000000000E+00 0.  1.
     999901    1    3    3    0    0 -0.11166222853E+00 -0.57391073523E-01  0.46144348422E-01  0.89010757187E+00  0.88000000000E+00 0. -1.
        -11    1    4    4    0    0  0.71856651035E-01  0.45011565781E-01 -0.52220688066E-01  0.99582532279E-01  0.51100000000E-03 0.  1.
         11    1    4    4    0    0  0.34717738968E-01 -0.34530708239E-02 -0.34696186464E-02  0.35064860925E-01  0.51100000000E-03 0. -1.
</event>
<event>
 8    1  0.2922807E+004  0.1043930E+01  0.7957747E-01            NaN
         13   -1    0    0    0    0  0.00000000000E+00  0.00000000000E+00  0.74505805969E-08  0.10566000000E+00  0.10566000000E+00 0. -1.
     999900   -1    0    0    0    0 -0.00000000000E+00 -0.00000000000E+00 -0.74505805969E-08  0.93827000000E+00  0.93827000000E+00 0.  1.
     999902    2    1    2    0    0  0.43293221519E-02 -0.14943902033E-01  0.18036051239E-01  0.10201106301E+01  0.10198325035E+01 0.  0.
     999903    2    3    3    0    0  0.11636704409E-01 -0.97197690583E-01  0.79692241361E-01  0.13409676489E+00  0.45257983556E-01 0.  0.
         14    1    1    2    0    0 -0.43293221519E-02  0.14943902033E-01 -0.18036051239E-01  0.23819369903E-01  0.00000000000E+00 0.  1.
     999901    1    3    3    0    0 -0.73073822574E-02  0.82253788550E-01 -0.61656190122E-01  0.88601386521E+00  0.88000000000E+00 0.  1.
        -11    1    4    4    0    0 -0.28909439263E-02 -0.29058558563E-01  0.50952079468E-01  0.58729318961E-01  0.51100000000E-03 0.  1.
         11    1    4    4    0    0  0.14527648336E-01 -0.68139132020E-01  0.28740161893E-01  0.75367445924E-01  0.51100000000E-03 0. -1.
</event>
<event>
 8    1  0.2922807E+004  0.1043930E+01  0.7957747E-01            NaN
         13   -1    0    0    0    0  0.00000000000E+00  0.00000000000E+00  0.74505805969E-08  0.10566000000E+00  0.10566000000E+00 0. -1.
     999900   -1    0    0    0    0 -0.00000000000E+00 -0.00000000000E+00 -0.74505805969E-08  0.93827000000E+00  0.93827000000E+00 0.  1.
     999902    2    1    2    0    0 -0.26082248054E-02  0.83057412502E-02  0.88436151483E-02  0.10315204189E+01  0.10314457702E+01 0.  0.
     999903    2    3    3    0    0  0.11765392347E+00  0.38330946856E-01 -0.49745501644E-01  0.14090423788E+00  0.45471772812E-01 0.  0.
         14    1    1    2    0    0  0.26082248054E-02 -0.83057412502E-02 -0.88436151483E-02  0.12409581107E-01  0.00000000000E+00 0.  1.
     999901    1    3    3    0    0 -0.12026214828E+00 -0.30025205605E-01  0.58589116792E-01  0.89061618102E+00  0.88000000000E+00 0.  1.
        -11    1    4    4    0    0  0.10689482844E+00  0.34424186350E-01 -0.27100999819E-01  0.11552598956E+00  0.51100000000E-03 0. -1.
         11    1    4    4    0    0  0.10759095037E-01  0.39067605056E-02 -0.22644501825E-01  0.25378248316E-01  0.51100000000E-03 0.  1.
</event>
<event>
 8    1  0.2922807E+004  0.1043930E+01  0.7957747E-01            NaN
         13   -1    0    0    0    0  0.00000000000E+00  0.00000000000E+00  0.74505805969E-08  0.10566000000E+00  0.10566000000E+00 0. -1.
     999900   -1    0    0    0    0 -0.00000000000E+00 -0.00000000000E+00 -0.74505805969E-08  0.93827000000E+00  0.93827000000E+00 0.  1.
     999902    2    1    2    0    0  0.14634195237E-01  0.25823615184E-02  0.14311780074E-03  0.10290690194E+01  0.10289617087E+01 0.  0.
     999903    2    3    3    0    0  0.80760909766E-01 -0.27699506949E-01 -0.10184452660E+00  0.14019826754E+00  0.44650413099E-01 0.  0.
         14    1    1    2    0    0 -0.14634195237E-01 -0.25823615184E-02 -0.14311780074E-03  0.14860980585E-01  0.00000000000E+00 0.  1.
     999901    1    3    3    0    0 -0.66126714530E-01  0.30281868467E-01  0.10198764440E+00  0.88887075188E+00  0.88000000000E+00 0. -1.
        -11    1    4    4    0    0  0.13634896126E-01 -0.22722976448E-01 -0.15457951756E-01  0.30683113344E-01  0.51100000000E-03 0.  1.
         11    1    4    4    0    0  0.67126013641E-01 -0.49765305009E-02 -0.86386574848E-01  0.10951515419E+00  0.51100000000E-03 0. -1.
</event>
<event>
 8    1  0.2922807E+004  0.1043930E+01  0.7957747E-01            NaN
         13   -1    0    0    0    0  0.00000000000E+00  0.00000000000E+00  0.74505805969E-08  0.10566000000E+00  0.10566000000E+00 0.  1.
     999900   -1    0    0    0    0 -0.00000000000E+00 -0.00000000000E+00 -0.74505805969E-08  0.93827000000E+00  0.93827000000E+00 0.  1.
     999902    2    1    2    0    0 -0.21514223151E-03 -0.47377533360E-02 -0.15384743357E-01  0.10278308410E+01  0.10277047508E+01 0.  0.
     999903    2    3    3    0    0  0.89970449611E-01 -0.15342384957E-01 -0.95350093760E-01  0.13955140497E+00  0.45308759292E-01 0.  0.
         14    1    1    2    0    0  0.21514223151E-03  0.47377533360E-02  0.15384743357E-01  0.16099159016E-01  0.00000000000E+00 0.  1.
     999901    1    3    3    0    0 -0.90185591842E-01  0.10604631621E-01  0.79965350403E-01  0.88827943602E+00  0.88000000000E+00 0. -1.
        -11    1    4    4    0    0  0.25397806990E-01 -0.13061000864E-01 -0.58663384519E-01  0.65247928302E-01  0.51100000000E-03 0.  1.
         11    1    4    4    0    0  0.64572642621E-01 -0.22813840930E-02 -0.36686709241E-01  0.74303476664E-01  0.51100000000E-03 0. -1.
</event>
<event>
 8    1  0.2922807E+004  0.1043930E+01  0.7957747E-01            NaN
         13   -1    0    0    0    0  0.00000000000E+00  0.00000000000E+00  0.74505805969E-08  0.10566000000E+00  0.10566000000E+00 0.  1.
     999900   -1    0    0    0    0 -0.00000000000E+00 -0.00000000000E+00 -0.74505805969E-08  0.93827000000E+00  0.93827000000E+00 0.  1.
     999902    2    1    2    0    0 -0.30726970997E-02  0.11084546933E-01 -0.78654122704E-02  0.10299953899E+01  0.10299011263E+01 0.  0.
     999903    2    3    3    0    0 -0.56691603780E-01  0.11279314325E+00  0.44264528162E-01  0.14098630311E+00  0.44514695434E-01 0.  0.
         14    1    1    2    0    0  0.30726970997E-02 -0.11084546933E-01  0.78654122704E-02  0.13934610090E-01  0.00000000000E+00 0.  1.
     999901    1    3    3    0    0  0.53618906680E-01 -0.10170859631E+00 -0.52129940432E-01  0.88900908680E+00  0.88000000000E+00 0. -1.
        -11    1    4    4    0    0 -0.39637297609E-01  0.82710697428E-01  0.99336689865E-02  0.92255697555E-01  0.51100000000E-03 0.  1.
         11    1    4    4    0    0 -0.17054306171E-01  0.30082445818E-01  0.34330859175E-01  0.48730605559E-01  0.51100000000E-03 0. -1.
</event>
<event>
 8    1  0.2922807E+004  0.1043930E+01  0.7957747E-01            NaN
         13   -1    0    0    0    0  0.00000000000E+00  0.00000000000E+00  0.74505805969E-08  0.10566000000E+00  0.10566000000E+00 0.  1.
     999900   -1    0    0    0    0 -0.00000000000E+00 -0.00000000000E+00 -0.74505805969E-08  0.93827000000E+00  0.93827000000E+00 0.  1.
     999902    2    1    2    0    0  0.11620409290E-01 -0.55946116990E-02 -0.30201941428E-02  0.10306840510E+01  0.10305989316E+01 0.  0.
     999903    2    3    3    0    0  0.75343706284E-01  0.86020894798E-01  0.68174736647E-01  0.14078361962E+00  0.45781703960E-01 0.  0.
         14    1    1    2    0    0 -0.11620409290E-01  0.55946116990E-02  0.30201941428E-02  0.13245948996E-01  0.00000000000E+00 0.  1.
     999901    1    3    3    0    0 -0.63723296994E-01 -0.91615506497E-01 -0.71194930789E-01  0.88990043139E+00  0.88000000000E+00 0.  1.
        -11    1    4    4    0    0  0.42520265540E-02  0.25870684263E-01  0.30767345228E-01  0.40426014984E-01  0.51100000000E-03 0.  1.
         11    1    4    4    0    0  0.71091679730E-01  0.60150210535E-01  0.37407391418E-01  0.10035760463E+00  0.51100000000E-03 0. -1.
</event>
<event>
 8    1  0.2922807E+004  0.1043930E+01  0.7957747E-01            NaN
         13   -1    0    0    0    0  0.00000000000E+00  0.00000000000E+00  0.74505805969E-08  0.10566000000E+00  0.10566000000E+00 0. -1.
     999900   -1    0    0    0    0 -0.00000000000E+00 -0.00000000000E+00 -0.74505805969E-08  0.93827000000E+00  0.93827000000E+00 0. -1.
     999902    2    1    2    0    0 -0.14953673307E-01 -0.46927838478E-02  0.14589908316E-02  0.10281895038E+01  0.10280690116E+01 0.  0.
     999903    2    3    3    0    0 -0.49706027285E-01  0.10846441019E+00 -0.54465226256E-01  0.13850428155E+00  0.44516937346E-01 0.  0.
         14    1    1    2    0    0  0.14953673307E-01  0.46927838478E-02 -0.14589908316E-02  0.15740496176E-01  0.00000000000E+00 0.  1.
     999901    1    3    3    0    0  0.34752353978E-01 -0.11315719404E+00  0.55924217087E-01  0.88968522227E+00  0.88000000000E+00 0.  1.
        -11    1    4    4    0    0 -0.11135488917E-01  0.54864432412E-01 -0.44924582744E-01  0.71781503976E-01  0.51100000000E-03 0. -1.
         11    1    4    4    0    0 -0.38570538368E-01  0.53599977780E-01 -0.95406435117E-02  0.66722777577E-01  0.51100000000E-03 0.  1.
</event>
<event>
 8    1  0.2922807E+004  0.1043930E+01  0.7957747E-01            NaN
         13   -1    0    0    0    0  0.00000000000E+00  0.00000000000E+00  0.74505805969E-08  0.10566000000E+00  0.10566000000E+00 0.  1.
     999900   -1    0    0    0    0 -0.00000000000E+00 -0.00000000000E+00 -0.74505805969E-08  0.93827000000E+00  0.93827000000E+00 0.  1.
     999902    2    1    2    0    0  0.19098667724E-02  0.15723575138E-01 -0.30899104299E-02  0.10277922817E+01  0.10276655819E+01 0.  0.
     999903    2    3    3    0    0 -0.10858375274E+00 -0.83130309143E-03 -0.74368658415E-01  0.13786893449E+00  0.41061214317E-01 0.  0.
         14    1    1    2    0    0 -0.19098667724E-02 -0.15723575138E-01  0.30899104299E-02  0.16137718323E-01  0.00000000000E+00 0. -1.
     999901    1    3    3    0    0  0.11049361951E+00  0.16554878230E-01  0.71278747985E-01  0.88992334718E+00  0.88000000000E+00 0. -1.
        -11    1    4    4    0    0 -0.51590788102E-01  0.28371509482E-02 -0.59594048762E-01  0.78875665521E-01  0.51100000000E-03 0. -1.
         11    1    4    4    0    0 -0.56992964634E-01 -0.36684540396E-02 -0.14774609653E-01  0.58993268974E-01  0.51100000000E-03 0.  1.
</event>
<event>
 8    1  0.2922807E+004  0.1043930E+01  0.7957747E-01            NaN
         13   -1    0    0    0    0  0.00000000000E+00  0.00000000000E+00  0.74505805969E-08  0.10566000000E+00  0.10566000000E+00 0. -1.
     999900   -1    0    0    0    0 -0.00000000000E+00 -0.00000000000E+00 -0.74505805969E-08  0.93827000000E+00  0.93827000000E+00 0.  1.
     999902    2    1    2    0    0 -0.10047114219E-01  0.87066152681E-02 -0.56274596760E-02  0.10294933122E+01  0.10293920836E+01 0.  0.
     999903    2    3    3    0    0 -0.23078000635E-01 -0.24178896384E-01  0.12738776260E+00  0.13879453578E+00  0.43807167894E-01 0.  0.
         14    1    1    2    0    0  0.10047114219E-01 -0.87066152681E-02  0.56274596760E-02  0.14436687846E-01  0.00000000000E+00 0. -1.
     999901    1    3    3    0    0  0.13030886416E-01  0.32885511652E-01 -0.13301522227E+00  0.89069877637E+00  0.88000000000E+00 0.  1.
        -11    1    4    4    0    0 -0.12651526319E-01 -0.34470346491E-01  0.64502448276E-01  0.74223263604E-01  0.51100000000E-03 0. -1.
         11    1    4    4    0    0 -0.10426474316E-01  0.10291450108E-01  0.62885314323E-01  0.64571272176E-01  0.51100000000E-03 0.  1.
</event>
<event>
 8    1  0.2922807E+004  0.1043930E+01  0.7957747E-01            NaN
         13   -1    0    0    0    0  0.00000000000E+00  0.00000000000E+00  0.74505805969E-08  0.10566000000E+00  0.10566000000E+00 0. -1.
     999900   -1    0    0    0    0 -0.00000000000E+00 -0.00000000000E+00 -0.74505805969E-08  0.93827000000E+00  0.93827000000E+00 0.  1.
     999902    2    1    2    0    0  0.81501765572E-02 -0.63462537646E-02 -0.15797555066E-01  0.10250550679E+01  0.10248812757E+01 0.  0.
     999903    2    3    3    0    0 -0.14770352194E-01  0.11506417217E+00  0.50394501032E-01  0.13396178972E+00  0.44138739801E-01 0.  0.
         14    1    1    2    0    0 -0.81501765572E-02  0.63462537646E-02  0.15797555066E-01  0.18874932075E-01  0.00000000000E+00 0. -1.
     999901    1    3    3    0    0  0.22920528751E-01 -0.12141042593E+00 -0.66192056098E-01  0.89109327820E+00  0.88000000000E+00 0. -1.
        -11    1    4    4    0    0 -0.56817852683E-02  0.67549671667E-02  0.18794495671E-01  0.20770326280E-01  0.51100000000E-03 0. -1.
         11    1    4    4    0    0 -0.90885669256E-02  0.10830920500E+00  0.31600005361E-01  0.11319146344E+00  0.51100000000E-03 0.  1.
</event>
<event>
 8    1  0.2922807E+004  0.1043930E+01  0.7957747E-01            NaN
         13   -1    0    0    0    0  0.00000000000E+00  0.00000000000E+00  0.74505805969E-08  0.10566000000E+00  0.10566000000E+00 0. -1.
     999900   -1    0    0    0    0 -0.00000000000E+00 -0.00000000000E+00 -0.74505805969E-08  0.93827000000E+00  0.93827000000E+00 0. -1.
     999902    2    1    2    0    0 -0.71371199225E-02 -0.12081389488E-01  0.16426702032E-02  0.10298021262E+01  0.10297052114E+01 0.  0.
     999903    2    3    3    0    0  0.12306686316E+00  0.44496950802E-01 -0.48120965194E-02  0.13840106617E+00  0.44791376473E-01 0.  0.
         14    1    1    2    0    0  0.71371199225E-02  0.12081389488E-01 -0.16426702032E-02  0.14127873801E-01  0.00000000000E+00 0. -1.
     999901    1    3    3    0    0 -0.13020398308E+00 -0.56578340289E-01  0.64547667226E-02  0.89140106003E+00  0.88000000000E+00 0.  1.
        -11    1    4    4    0    0  0.10685169638E+00  0.24794402062E-01  0.77294672709E-02  0.10996387215E+00  0.51100000000E-03 0. -1.
         11    1    4    4    0    0  0.16215166775E-01  0.19702548739E-01 -0.12541563790E-01  0.28437194019E-01  0.51100000000E-03 0.  1.
</event>
<event>
 8    1  0.2922807E+004  0.1043930E+01  0.7957747E-01            NaN
         13   -1    0    0    0    0  0.00000000000E+00  0.00000000000E+00  0.74505805969E-08  0.10566000000E+00  0.10566000000E+00 0.  1.
     999900   -1    0    0    0    0 -0.00000000000E+00 -0.00000000000E+00 -0.74505805969E-08  0.93827000000E+00  0.93827000000E+00 0.  1.
     999902    2    1    2    0    0 -0.48203274149E-02 -0.12936079444E-01 -0.21882884006E-02  0.10299526500E+01  0.10298578032E+01 0.  0.
     999903    2    3    3    0    0  0.81000546481E-02  0.60117209437E-01  0.11629366807E+00  0.13891859153E+00  0.45765359004E-01 0.  0.
         14    1    1    2    0    0  0.48203274149E-02  0.12936079444E-01  0.21882884006E-02  0.13977350031E-01  0.00000000000E+00 0. -1.
     999901    1    3    3    0    0 -0.12920382063E-01 -0.73053288880E-01 -0.11848195647E+00  0.89103405844E+00  0.88000000000E+00 0.  1.
        -11    1    4    4    0    0 -0.10807452353E-01  0.25709115193E-01  0.82589965315E-01  0.87172949486E-01  0.51100000000E-03 0.  1.
         11    1    4    4    0    0  0.18907507002E-01  0.34408094243E-01  0.33703702752E-01  0.51745642045E-01  0.51100000000E-03 0. -1.
</event>
<event>
 8    1  0.2922807E+004  0.1043930E+01  0.7957747E-01            NaN
         13   -1    0    0    0    0  0.00000000000E+00  0.00000000000E+00  0.74505805969E-08  0.10566000000E+00  0.10566000000E+00 0. -1.
     999900   -1    0    0    0    0 -0.00000000000E+00 -0.00000000000E+00 -0.74505805969E-08  0.93827000000E+00  0.93827000000E+00 0.  1.
     999902    2    1    2    0    0  0.13314563956E-01  0.23423247946E-03  0.37215767278E-02  0.10301031200E+01  0.10300103180E+01 0.  0.
     999903    2    3    3    0    0  0.38974831212E-01  0.88527402820E-02  0.12809830152E+00  0.14094492388E+00  0.43114826193E-01 0.  0.
         14    1    1    2    0    0 -0.13314563956E-01 -0.23423247946E-03 -0.37215767278E-02  0.13826880037E-01  0.00000000000E+00 0.  1.
     999901    1    3    3    0    0 -0.25660267255E-01 -0.86185078025E-02 -0.12437672479E+00  0.88915819608E+00  0.88000000000E+00 0.  1.
        -11    1    4    4    0    0  0.27366014270E-01  0.24535028486E-01  0.62534384550E-01  0.72537416082E-01  0.51100000000E-03 0.  1.
         11    1    4    4    0    0  0.11608816942E-01 -0.15682288204E-01  0.65563916967E-01  0.68407507798E-01  0.51100000000E-03 0. -1.
</event>
<event>
 8    1  0.2922807E+004  0.1043930E+01  0.7957747E-01            NaN
         13   -1    0    0    0    0  0.00000000000E+00  0.00000000000E+00  0.74505805969E-08  0.10566000000E+00  0.10566000000E+00 0. -1.
     999900   -1    0    0    0    0 -0.00000000000E+00 -0.00000000000E+00 -0.74505805969E-08  0.93827000000E+00  0.93827000000E+00 0. -1.
     999902    2    1    2    0    0  0.13002797592E-01 -0.55679930466E-02 -0.67771562691E-03  0.10297689764E+01  0.10296716030E+01 0.  0.
     999903    2    3    3    0    0 -0.64420998582E-01  0.30769984827E-01 -0.10998515000E+00  0.13889131470E+00  0.45795273278E-01 0.  0.
         14    1    1    2    0    0 -0.13002797592E-01  0.55679930466E-02  0.67771562691E-03  0.14161023630E-01  0.00000000000E+00 0. -1.
     999901    1    3    3    0    0  0.77423796174E-01 -0.36337977873E-01  0.10930743437E+00  0.89087766167E+00  0.88000000000E+00 0.  1.
        -11    1    4    4    0    0 -0.57675642934E-01  0.51296077753E-02 -0.81464064759E-01  0.99947224233E-01  0.51100000000E-03 0. -1.
         11    1    4    4    0    0 -0.67453556478E-02  0.25640377051E-01 -0.28521085240E-01  0.38944090469E-01  0.51100000000E-03 0.  1.
</event>
<event>
 8    1  0.2922807E+004  0.1043930E+01  0.7957747E-01            NaN
         13   -1    0    0    0    0  0.00000000000E+00  0.00000000000E+00  0.74505805969E-08  0.10566000000E+00  0.10566000000E+00 0.  1.
     999900   -1    0    0    0    0 -0.00000000000E+00 -0.00000000000E+00 -0.74505805969E-08  0.93827000000E+00  0.93827000000E+00 0.  1.
     999902    2    1    2    0    0 -0.67892492128E-02 -0.62418147685E-02 -0.11092025629E-01  0.10295047725E+01  0.10294037057E+01 0.  0.
     999903    2    3    3    0    0  0.47816439742E-01 -0.66176051764E-01 -0.10548860563E+00  0.14075024599E+00  0.44912182013E-01 0.  0.
         14    1    1    2    0    0  0.67892492128E-02  0.62418147685E-02  0.11092025629E-01  0.14425227521E-01  0.00000000000E+00 0.  1.
     999901    1    3    3    0    0 -0.54605688955E-01  0.59934236995E-01  0.94396580001E-01  0.88875452648E+00  0.88000000000E+00 0. -1.
        -11    1    4    4    0    0  0.18132707631E-02 -0.38840188774E-01 -0.35552935875E-01  0.52688903814E-01  0.51100000000E-03 0. -1.
         11    1    4    4    0    0  0.46003168979E-01 -0.27335862990E-01 -0.69935669755E-01  0.88061342180E-01  0.51100000000E-03 0.  1.
</event>
<event>
 8    1  0.2922807E+004  0.1043930E+01  0.7957747E-01            NaN
         13   -1    0    0    0    0  0.00000000000E+00  0.00000000000E+00  0.74505805969E-08  0.10566000000E+00  0.10566000000E+00 0.  1.
     999900   -1    0    0    0    0 -0.00000000000E+00 -0.00000000000E+00 -0.74505805969E-08  0.93827000000E+00  0.93827000000E+00 0. -1.
     999902    2    1    2    0    0  0.55041724887E-02 -0.11734757630E-01 -0.28618192858E-02  0.10306563245E+01  0.10305708461E+01 0.  0.
     999903    2    3    3    0    0  0.95196943230E-01  0.52761970822E-01 -0.76605980699E-01  0.14068844731E+00  0.45590342862E-01 0.  0.
         14    1    1    2    0    0 -0.55041724887E-02  0.11734757630E-01  0.28618192858E-02  0.13273675491E-01  0.00000000000E+00 0.  1.
     999901    1    3    3    0    0 -0.89692770741E-01 -0.64496728451E-01  0.73744161413E-01  0.88996787720E+00  0.88000000000E+00 0.  1.
        -11    1    4    4    0    0  0.29409158147E-01  0.37809391207E-01 -0.46665371008E-01  0.66875755088E-01  0.51100000000E-03 0.  1.
         11    1    4    4    0    0  0.65787785083E-01  0.14952579615E-01 -0.29940609691E-01  0.73812692221E-01  0.51100000000E-03 0. -1.
</event>
<event>
 7    1  0.2922807E+004  0.1043930E+01  0.7957747E-01            NaN
         13   -1    0    0    0    0  0.00000000000E+00  0.00000000000E+00  0.74505805969E-08  0.10566000000E+00  0.10566000000E+00 0. -1.
     999900   -1    0    0    0    0 -0.00000000000E+00 -0.00000000000E+00 -0.74505805969E-08  0.93827000000E+00  0.93827000000E+00 0. -1.
     999903    2    1    2    0    0  0.69430618737E-01 -0.29614392855E-02  0.24677974747E-01  0.93846230963E-01  0.58040776076E-01 0.  0.
         14    1    1    2    0    0  0.12367945900E-01  0.84162298468E-02 -0.63679643628E-01  0.65413271003E-01  0.00000000000E+00 0.  1.
     999901    1    1    2    0    0 -0.81798564637E-01 -0.54547905613E-02  0.39001668881E-01  0.88467049803E+00  0.88000000000E+00 0.  1.
        -11    1    3    3    0    0  0.56206471254E-01 -0.11306309831E-01 -0.77358047044E-02  0.57854160164E-01  0.51100000000E-03 0.  1.
         11    1    3    3    0    0  0.13224147483E-01  0.83448705456E-02  0.32413779452E-01  0.35992070799E-01  0.51100000000E-03 0. -1.
</event>
<event>
 8    1  0.2922807E+004  0.1043930E+01  0.7957747E-01            NaN
         13   -1    0    0    0    0  0.00000000000E+00  0.00000000000E+00  0.74505805969E-08  0.10566000000E+00  0.10566000000E+00 0. -1.
     999900   -1    0    0    0    0 -0.00000000000E+00 -0.00000000000E+00 -0.74505805969E-08  0.93827000000E+00  0.93827000000E+00 0.  1.
     999902    2    1    2    0    0 -0.71902001648E-02  0.12040638211E-01  0.47522636963E-02  0.10291225709E+01  0.10290160377E+01 0.  0.
     999903    2    3    3    0    0  0.31924200399E-01  0.11909184322E+00  0.50300085315E-01  0.14060442200E+00  0.45138489247E-01 0.  0.
         14    1    1    2    0    0  0.71902001648E-02 -0.12040638211E-01 -0.47522636963E-02  0.14807429121E-01  0.00000000000E+00 0.  1.
     999901    1    3    3    0    0 -0.39114400564E-01 -0.10705120501E+00 -0.45547821618E-01  0.88851814887E+00  0.88000000000E+00 0.  1.
        -11    1    4    4    0    0  0.34812831901E-01  0.98650739047E-01  0.56691065826E-01  0.11898756088E+00  0.51100000000E-03 0. -1.
         11    1    4    4    0    0 -0.28886315022E-02  0.20441104174E-01 -0.63909805113E-02  0.21616861120E-01  0.51100000000E-03 0.  1.
</event>
<event>
 8    1  0.2922807E+004  0.1043930E+01  0.7957747E-01            NaN
         13   -1    0    0    0    0  0.00000000000E+00  0.00000000000E+00  0.74505805969E-08  0.10566000000E+00  0.10566000000E+00 0.  1.
     999900   -1    0    0    0    0 -0.00000000000E+00 -0.00000000000E+00 -0.74505805969E-08  0.93827000000E+00  0.93827000000E+00 0.  1.
     999902    2    1    2    0    0 -0.19719339908E-02  0.60637400664E-02  0.11800334139E-01  0.10305171199E+01  0.10304298273E+01 0.  0.
     999903    2    3    3    0    0 -0.27672452119E-01  0.13010839364E+00  0.16595322299E-01  0.14143299303E+00  0.45099091921E-01 0.  0.
         14    1    1    2    0    0  0.19719339908E-02 -0.60637400664E-02 -0.11800334139E-01  0.13412880117E-01  0.00000000000E+00 0. -1.
     999901    1    3    3    0    0  0.25700518128E-01 -0.12404465358E+00 -0.47949881603E-02  0.88908412685E+00  0.88000000000E+00 0.  1.
        -11    1    4    4    0    0  0.26650870311E-02  0.86189116165E-01  0.17749133606E-01  0.88039532592E-01  0.51100000000E-03 0.  1.
         11    1    4    4    0    0 -0.30337539150E-01  0.43919277478E-01 -0.11538113072E-02  0.53393460436E-01  0.51100000000E-03 0. -1.
</event>
<event>
 8    1  0.2922807E+004  0.1043930E+01  0.7957747E-01            NaN
         13   -1    0    0    0    0  0.00000000000E+00  0.00000000000E+00  0.74505805969E-08  0.10566000000E+00  0.10566000000E+00 0.  1.
     999900   -1    0    0    0    0 -0.00000000000E+00 -0.00000000000E+00 -0.74505805969E-08  0.93827000000E+00  0.93827000000E+00 0. -1.
     999902    2    1    2    0    0 -0.32941090323E-02 -0.87089379636E-02 -0.69896799243E-02  0.10322873036E+01  0.10322216452E+01 0.  0.
     999903    2    3    3    0    0 -0.66664324112E-01 -0.70176097329E-01 -0.96235258900E-01  0.14337855167E+00  0.43901791270E-01 0.  0.
         14    1    1    2    0    0  0.32941090323E-02  0.87089379636E-02  0.69896799243E-02  0.11642696432E-01  0.00000000000E+00 0.  1.
     999901    1    3    3    0    0  0.63370215080E-01  0.61467159365E-01  0.89245578976E-01  0.88890875190E+00  0.88000000000E+00 0.  1.
        -11    1    4    4    0    0  0.51789136055E-02 -0.14270290236E-01 -0.15487705681E-01  0.21693143567E-01  0.51100000000E-03 0. -1.
         11    1    4    4    0    0 -0.71843237718E-01 -0.55905807093E-01 -0.80747553219E-01  0.12168540810E+00  0.51100000000E-03 0.  1.
</event>
<event>
 8    1  0.2922807E+004  0.1043930E+01  0.7957747E-01            NaN
         13   -1    0    0    0    0  0.00000000000E+00  0.00000000000E+00  0.74505805969E-08  0.10566000000E+00  0.10566000000E+00 0. -1.
     999900   -1    0    0    0    0 -0.00000000000E+00 -0.00000000000E+00 -0.74505805969E-08  0.93827000000E+00  0.93827000000E+00 0. -1.
     999902    2    1    2    0    0  0.64382978869E-02  0.12407500476E-01  0.13355518344E-02  0.10298878689E+01  0.10297921349E+01 0.  0.
     999903    2    3    3    0    0 -0.82994190319E-01 -0.10072149835E+00  0.73761488858E-02  0.13812958933E+00  0.44637652492E-01 0.  0.
         14    1    1    2    0    0 -0.64382978869E-02 -0.12407500476E-01 -0.13355518344E-02  0.14042131122E-01  0.00000000000E+00 0. -1.
     999901    1    3    3    0    0  0.89432488206E-01  0.11312899883E+00 -0.60405970513E-02  0.89175827954E+00  0.88000000000E+00 0. -1.
        -11    1    4    4    0    0 -0.26292018720E-01 -0.99885801138E-02  0.12996739497E-01  0.30987390010E-01  0.51100000000E-03 0. -1.
         11    1    4    4    0    0 -0.56702171599E-01 -0.90732918239E-01 -0.56205906110E-02  0.10714219932E+00  0.51100000000E-03 0.  1.
</event>
<event>
 8    1  0.2922807E+004  0.1043930E+01  0.7957747E-01            NaN
         13   -1    0    0    0    0  0.00000000000E+00  0.00000000000E+00  0.74505805969E-08  0.10566000000E+00  0.10566000000E+00 0. -1.
     999900   -1    0    0    0    0 -0.00000000000E+00 -0.00000000000E+00 -0.74505805969E-08  0.93827000000E+00  0.93827000000E+00 0.  1.
     999902    2    1    2    0    0  0.13461081990E-02 -0.13833651666E-01  0.42352941493E-03  0.10300245585E+01  0.10299306918E+01 0.  0.
     999903    2    3    3    0    0 -0.96908691099E-01  0.85199326052E-01 -0.22775647993E-01  0.13873350723E+00  0.45585483631E-01 0.  0.
         14    1    1    2    0    0 -0.13461081990E-02  0.13833651666E-01 -0.42352941493E-03  0.13905441484E-01  0.00000000000E+00 0. -1.
     999901    1    3    3    0    0  0.98254799298E-01 -0.99032977719E-01  0.23199177408E-01  0.89129105128E+00  0.88000000000E+00 0. -1.
        -11    1    4    4    0    0 -0.68755157051E-01  0.43907742855E-01  0.46707438025E-02  0.81714371272E-01  0.51100000000E-03 0.  1.
         11    1    4    4    0    0 -0.28153534048E-01  0.41291583197E-01 -0.27446391796E-01  0.57019135963E-01  0.51100000000E-03 0. -1.
</event>
<event>
 8    1  0.2922807E+004  0.1043930E+01  0.7957747E-01            NaN
         13   -1    0    0    0    0  0.00000000000E+00  0.00000000000E+00  0.74505805969E-08  0.10566000000E+00  0.10566000000E+00 0. -1.
     999900   -1    0    0    0    0 -0.00000000000E+00 -0.00000000000E+00 -0.74505805969E-08  0.93827000000E+00  0.93827000000E+00 0.  1.
     999902    2    1    2    0    0  0.44760876444E-02  0.12510339912E-01 -0.27223162169E-02  0.10303669999E+01  0.10302777293E+01 0.  0.
     999903    2    3    3    0    0 -0.30833755869E-01  0.51727684895E-01  0.11850802358E+00  0.14048971598E+00  0.45461354577E-01 0.  0.
         14    1    1    2    0    0 -0.44760876444E-02 -0.12510339912E-01  0.27223162169E-02  0.13563000070E-01  0.00000000000E+00 0.  1.
     999901    1    3    3    0    0  0.35309843514E-01 -0.39217344983E-01 -0.12123033979E+00  0.88987728395E+00  0.88000000000E+00 0.  1.
        -11    1    4    4    0    0 -0.35489814575E-01  0.15371419851E-01  0.64757736073E-01  0.75429655899E-01  0.51100000000E-03 0. -1.
         11    1    4    4    0    0  0.46560587058E-02  0.36356265044E-01  0.53750287503E-01  0.65060060085E-01  0.51100000000E-03 0.  1.
</event>
<event>
 8    1  0.2922807E+004  0.1043930E+01  0.7957747E-01            NaN
         13   -1    0    0    0    0  0.00000000000E+00  0.00000000000E+00  0.74505805969E-08  0.10566000000E+00  0.10566000000E+00 0.  1.
     999900   -1    0    0    0    0 -0.00000000000E+00 -0.00000000000E+00 -0.74505805969E-08  0.93827000000E+00  0.93827000000E+00 0. -1.
     999902    2    1    2    0    0  0.31714129177E-02 -0.12557769576E-01  0.40060576352E-02  0.10303725690E+01  0.10302833722E+01 0.  0.
     999903    2    3    3    0    0  0.11662384748E-01  0.15797517222E-01 -0.13060067097E+00  0.13964528738E+00  0.45372880251E-01 0.  0.
         14    1    1    2    0    0 -0.31714129177E-02  0.12557769576E-01 -0.40060576352E-02  0.13557430966E-01  0.00000000000E+00 0. -1.
     999901    1    3    3    0    0 -0.84909718301E-02 -0.28355286799E-01  0.13460672860E+00  0.89072728165E+00  0.88000000000E+00 0.  1.
        -11    1    4    4    0    0 -0.82147677598E-02  0.24553378443E-01 -0.51916168958E-01  0.58016381503E-01  0.51100000000E-03 0. -1.
         11    1    4    4    0    0  0.19877152508E-01 -0.87558612210E-02 -0.78684502011E-01  0.81628905880E-01  0.51100000000E-03 0.  1.
</event>
<event>
 8    1  0.2922807E+004  0.1043930E+01  0.7957747E-01            NaN
         13   -1    0    0    0    0  0.00000000000E+00  0.00000000000E+00  0.74505805969E-08  0.10566000000E+00  0.10566000000E+00 0. -1.
     999900   -1    0    0    0    0 -0.00000000000E+00 -0.00000000000E+00 -0.74505805969E-08  0.93827000000E+00  0.93827000000E+00 0. -1.
     999902    2    1    2    0    0 -0.11150636442E-01  0.24909229712E-02 -0.68535137009E-02  0.10306066355E+01  0.10305205118E+01 0.  0.
     999903    2    3    3    0    0  0.87384590326E-01 -0.10169308011E+00  0.83768098166E-02  0.13886930866E+00  0.35170510036E-01 0.  0.
         14    1    1    2    0    0  0.11150636442E-01 -0.24909229712E-02  0.68535137009E-02  0.13323364454E-01  0.00000000000E+00 0.  1.
     999901    1    3    3    0    0 -0.98535226768E-01  0.10418400308E+00 -0.15230323517E-01  0.89173732689E+00  0.88000000000E+00 0.  1.
        -11    1    4    4    0    0  0.41755173382E-01 -0.69459426417E-01 -0.57279682234E-02  0.81247628663E-01  0.51100000000E-03 0. -1.
         11    1    4    4    0    0  0.45629416944E-01 -0.32233653691E-01  0.14104778040E-01  0.57621679995E-01  0.51100000000E-03 0.  1.
</event>
<event>
 8    1  0.2922807E+004  0.1043930E+01  0.7957747E-01            NaN
         13   -1    0    0    0    0  0.00000000000E+00  0.00000000000E+00  0.74505805969E-08  0.10566000000E+00  0.10566000000E+00 0.  1.
     999900   -1    0    0    0    0 -0.00000000000E+00 -0.00000000000E+00 -0.74505805969E-08  0.93827000000E+00  0.93827000000E+00 0. -1.
     999902    2    1    2    0    0  0.13766648969E-01 -0.35678084541E-02  0.34726562095E-02  0.10292906960E+01  0.10291865854E+01 0.  0.
     999903    2    3    3    0    0  0.11858928659E+00  0.17330562085E-01  0.57220528793E-01  0.14119534015E+00  0.47939210327E-01 0.  0.
         14    1    1    2    0    0 -0.13766648969E-01  0.35678084541E-02 -0.34726562095E-02  0.14639304019E-01  0.00000000000E+00 0. -1.
     999901    1    3    3    0    0 -0.10482263762E+00 -0.20898370539E-01 -0.53747872583E-01  0.88809535584E+00  0.88000000000E+00 0. -1.
        -11    1    4    4    0    0  0.13786564870E-01 -0.35175110219E-02  0.26379362489E-01  0.29976226264E-01  0.51100000000E-03 0. -1.
         11    1    4    4    0    0  0.10480272172E+00  0.20848073107E-01  0.30841166304E-01  0.11121911388E+00  0.51100000000E-03 0.  1.
</event>
<event>
 8    1  0.2922807E+004  0.1043930E+01  0.7957747E-01            NaN
         13   -1    0    0    0    0  0.00000000000E+00  0.00000000000E+00  0.74505805969E-08  0.10566000000E+00  0.10566000000E+00 0. -1.
     999900   -1    0    0    0    0 -0.00000000000E+00 -0.00000000000E+00 -0.74505805969E-08  0.93827000000E+00  0.93827000000E+00 0. -1.
     999902    2    1    2    0    0  0.18198555735E-02 -0.11335183537E-01  0.72481638487E-02  0.10303530291E+01  0.10302635733E+01 0.  0.
     999903    2    3    3    0    0  0.41523761260E-01  0.95331730447E-01 -0.79787270565E-01  0.13876489687E+00  0.45577697162E-01 0.  0.
         14    1    1    2    0    0 -0.18198555735E-02  0.11335183537E-01 -0.72481638487E-02  0.13576970918E-01  0.00000000000E+00 0. -1.
     999901    1    3    3    0    0 -0.39703905686E-01 -0.10666691398E+00  0.87035434414E-01  0.89158813222E+00  0.88000000000E+00 0.  1.
        -11    1    4    4    0    0  0.18298076682E-01  0.33136220451E-02 -0.14159542606E-01  0.23378483037E-01  0.51100000000E-03 0. -1.
         11    1    4    4    0    0  0.23225684578E-01  0.92018108402E-01 -0.65627727959E-01  0.11538641383E+00  0.51100000000E-03 0.  1.
</event>
<event>
 8    1  0.2922807E+004  0.1043930E+01  0.7957747E-01            NaN
         13   -1    0    0    0    0  0.00000000000E+00  0.00000000000E+00  0.74505805969E-08  0.10566000000E+00  0.10566000000E+00 0. -1.
     999900   -1    0    0    0    0 -0.00000000000E+00 -0.00000000000E+00 -0.74505805969E-08  0.93827000000E+00  0.93827000000E+00 0. -1.
     999902    2    1    2    0    0 -0.13207354487E-01  0.36831819230E-02 -0.84252247328E-02  0.10278370061E+01  0.10277110132E+01 0.  0.
     999903    2    3    3    0    0  0.33654683495E-01  0.68605659679E-01  0.10384609675E+00  0.13709808341E+00  0.46610067623E-01 0.  0.
         14    1    1    2    0    0  0.13207354487E-01 -0.36831819230E-02  0.84252247328E-02  0.16092993924E-01  0.00000000000E+00 0. -1.
     999901    1    3    3    0    0 -0.46862037982E-01 -0.64922477756E-01 -0.11227132148E+00  0.89073892266E+00  0.88000000000E+00 0. -1.
        -11    1    4    4    0    0  0.18028912664E-01  0.69844675279E-01  0.73763641098E-01  0.10317294328E+00  0.51100000000E-03 0.  1.
         11    1    4    4    0    0  0.15625770831E-01 -0.12390155993E-02  0.30082455652E-01  0.33925140129E-01  0.51100000000E-03 0. -1.
</event>
<event>
 8    1  0.2922807E+004  0.1043930E+01  0.7957747E-01            NaN
         13   -1    0    0    0    0  0.00000000000E+00  0.00000000000E+00  0.74505805969E-08  0.10566000000E+00  0.10566000000E+00 0. -1.
     999900   -1    0    0    0    0 -0.00000000000E+00 -0.00000000000E+00 -0.74505805969E-08  0.93827000000E+00  0.93827000000E+00 0. -1.
     999902    2    1    2    0    0 -0.23889402148E-02 -0.11360179662E-01  0.54793527421E-02  0.10310931770E+01  0.10310132665E+01 0.  0.
     999903    2    3    3    0    0 -0.11565275480E+00  0.69654798494E-02 -0.56942345731E-01  0.14145224389E+00  0.57812013990E-01 0.  0.
         14    1    1    2    0    0  0.23889402148E-02  0.11360179662E-01 -0.54793527421E-02  0.12836822963E-01  0.00000000000E+00 0.  1.
     999901    1    3    3    0    0  0.11326381459E+00 -0.18325659511E-01  0.62421698473E-01  0.88964093315E+00  0.88000000000E+00 0.  1.
        -11    1    4    4    0    0 -0.30001431037E-01 -0.10000398194E-01 -0.42455454776E-01  0.52941671579E-01  0.51100000000E-03 0. -1.
         11    1    4    4    0    0 -0.85651323764E-01  0.16965878043E-01 -0.14486890955E-01  0.88510572311E-01  0.51100000000E-03 0.  1.
</event>
<event>
 8    1  0.2922807E+004  0.1043930E+01  0.7957747E-01            NaN
         13   -1    0    0    0    0  0.00000000000E+00  0.00000000000E+00  0.74505805969E-08  0.10566000000E+00  0.10566000000E+00 0. -1.
     999900   -1    0    0    0    0 -0.00000000000E+00 -0.00000000000E+00 -0.74505805969E-08  0.93827000000E+00  0.93827000000E+00 0. -1.
     999902    2    1    2    0    0 -0.14702834829E-02  0.88132009232E-02  0.13558417526E-01  0.10276922375E+01  0.10275639494E+01 0.  0.
     999903    2    3    3    0    0 -0.43079637046E-01  0.10383633977E+00 -0.65810422739E-01  0.13805177756E+00  0.45710403212E-01 0.  0.
         14    1    1    2    0    0  0.14702834829E-02 -0.88132009232E-02 -0.13558417526E-01  0.16237762465E-01  0.00000000000E+00 0.  1.
     999901    1    3    3    0    0  0.41609353563E-01 -0.95023138846E-01  0.79368840265E-01  0.88964045998E+00  0.88000000000E+00 0.  1.
        -11    1    4    4    0    0 -0.35201764210E-01  0.38054372704E-01 -0.44882371806E-01  0.68571042761E-01  0.51100000000E-03 0.  1.
         11    1    4    4    0    0 -0.78778728362E-02  0.65781967066E-01 -0.20928050933E-01  0.69480734799E-01  0.51100000000E-03 0. -1.
</event>
<event>
 8    1  0.2922807E+004  0.1043930E+01  0.7957747E-01            NaN
         13   -1    0    0    0    0  0.00000000000E+00  0.00000000000E+00  0.74505805969E-08  0.10566000000E+00  0.10566000000E+00 0.  1.
     999900   -1    0    0    0    0 -0.00000000000E+00 -0.00000000000E+00 -0.74505805969E-08  0.93827000000E+00  0.93827000000E+00 0.  1.
     999902    2    1    2    0    0 -0.44195386246E-02  0.13788396778E-01  0.15222548593E-02  0.10293708288E+01  0.10292678629E+01 0.  0.
     999903    2    3    3    0    0  0.63953082775E-01  0.97943630177E-01  0.65473149321E-01  0.14041265451E+00  0.41785509154E-01 0.  0.
         14    1    1    2    0    0  0.44195386246E-02 -0.13788396778E-01 -0.15222548593E-02  0.14559171241E-01  0.00000000000E+00 0.  1.
     999901    1    3    3    0    0 -0.68372621400E-01 -0.84155233399E-01 -0.63950894462E-01  0.88895817425E+00  0.88000000000E+00 0.  1.
        -11    1    4    4    0    0  0.44895695997E-01  0.37598568990E-01  0.17886946711E-01  0.61232996765E-01  0.51100000000E-03 0. -1.
         11    1    4    4    0    0  0.19057386778E-01  0.60345061187E-01  0.47586202610E-01  0.79179657743E-01  0.51100000000E-03 0.  1.
</event>
<event>
 8    1  0.2922807E+004  0.1043930E+01  0.7957747E-01            NaN
         13   -1    0    0    0    0  0.00000000000E+00  0.00000000000E+00  0.74505805969E-08  0.10566000000E+00  0.10566000000E+00 0.  1.
     999900   -1    0    0    0    0 -0.00000000000E+00 -0.00000000000E+00 -0.74505805969E-08  0.93827000000E+00  0.93827000000E+00 0. -1.
     999902    2    1    2    0    0 -0.85168788214E-02  0.52523482942E-02  0.93270632231E-02  0.10302508737E+01  0.10301600576E+01 0.  0.
     999903    2    3    3    0    0 -0.45325764556E-01 -0.12330536906E+00  0.16219943210E-01  0.14012195465E+00  0.45961251577E-01 0.  0.
         14    1    1    2    0    0  0.85168788214E-02 -0.52523482942E-02 -0.93270632231E-02  0.13679126282E-01  0.00000000000E+00 0. -1.
     999901    1    3    3    0    0  0.36808885735E-01  0.12855771735E+00 -0.68928799869E-02  0.89012891906E+00  0.88000000000E+00 0.  1.
        -11    1    4    4    0    0 -0.34141809433E-01 -0.35307512408E-01 -0.35245683189E-02  0.49243956854E-01  0.51100000000E-03 0.  1.
         11    1    4    4    0    0 -0.11183955124E-01 -0.87997856652E-01  0.19744511529E-01  0.90877997800E-01  0.51100000000E-03 0. -1.
</event>
<event>
 8    1  0.2922807E+004  0.1043930E+01  0.7957747E-01            NaN
         13   -1    0    0    0    0  0.00000000000E+00  0.00000000000E+00  0.74505805969E-08  0.10566000000E+00  0.10566000000E+00 0. -1.
     999900   -1    0    0    0    0 -0.00000000000E+00 -0.00000000000E+00 -0.74505805969E-08  0.93827000000E+00  0.93827000000E+00 0. -1.
     999902    2    1    2    0    0 -0.49891456313E-02 -0.11456060517E-01 -0.63000451057E-02  0.10299363062E+01  0.10298412360E+01 0.  0.
     999903    2    3    3    0    0  0.12885333347E+00  0.26573854868E-01  0.29718877055E-02  0.13895591790E+00  0.44615733682E-01 0.  0.
         14    1    1    2    0    0  0.49891456313E-02  0.11456060517E-01  0.63000451057E-02  0.13993693759E-01  0.00000000000E+00 0. -1.
     999901    1    3    3    0    0 -0.13384247910E+00 -0.38029915385E-01 -0.92719328112E-02  0.89098038834E+00  0.88000000000E+00 0.  1.
        -11    1    4    4    0    0  0.55819281816E-01  0.17009317476E-01 -0.20175914439E-01  0.61744941072E-01  0.51100000000E-03 0. -1.
         11    1    4    4    0    0  0.73034051657E-01  0.95645373918E-02  0.23147802145E-01  0.77210976824E-01  0.51100000000E-03 0.  1.
</event>
<event>
 8    1  0.2922807E+004  0.1043930E+01  0.7957747E-01            NaN
         13   -1    0    0    0    0  0.00000000000E+00  0.00000000000E+00  0.74505805969E-08  0.10566000000E+00  0.10566000000E+00 0. -1.
     999900   -1    0    0    0    0 -0.00000000000E+00 -0.00000000000E+00 -0.74505805969E-08  0.93827000000E+00  0.93827000000E+00 0. -1.
     999902    2    1    2    0    0 -0.83876803895E-02  0.74435638643E-02  0.83373586674E-02  0.10299560466E+01  0.10298612462E+01 0.  0.
     999903    2    3    3    0    0  0.24469186184E-01 -0.12885578479E+00  0.24367949122E-02  0.13883770269E+00  0.45468839568E-01 0.  0.
         14    1    1    2    0    0  0.83876803895E-02 -0.74435638643E-02 -0.83373586674E-02  0.13973953444E-01  0.00000000000E+00 0.  1.
     999901    1    3    3    0    0 -0.32856866574E-01  0.13629934865E+00  0.59005637552E-02  0.89111834387E+00  0.88000000000E+00 0. -1.
        -11    1    4    4    0    0  0.99989713607E-02 -0.59435460581E-01 -0.21499754968E-01  0.63992608850E-01  0.51100000000E-03 0.  1.
         11    1    4    4    0    0  0.14470214824E-01 -0.69420324210E-01  0.23936549881E-01  0.74845093838E-01  0.51100000000E-03 0. -1.
</event>
<event>
 8    1  0.2922807E+004  0.1043930E+01  0.7957747E-01            NaN
         13   -1    0    0    0    0  0.00000000000E+00  0.00000000000E+00  0.74505805969E-08  0.10566000000E+00  0.10566000000E+00 0. -1.
     999900   -1    0    0    0    0 -0.00000000000E+00 -0.00000000000E+00 -0.74505805969E-08  0.93827000000E+00  0.93827000000E+00 0. -1.
     999902    2    1    2    0    0  0.10164841025E-03  0.12402085151E-01  0.53915662888E-02  0.10304062788E+01  0.10303175279E+01 0.  0.
     999903    2    3    3    0    0  0.12024104674E-01 -0.11141337306E+00  0.70158604708E-01  0.13930180572E+00  0.43877607870E-01 0.  0.
         14    1    1    2    0    0 -0.10164841025E-03 -0.12402085151E-01 -0.53915662888E-02  0.13523721217E-01  0.00000000000E+00 0.  1.
     999901    1    3    3    0    0 -0.11922456264E-01  0.12381545821E+00 -0.64767038420E-01  0.89110447307E+00  0.88000000000E+00 0. -1.
        -11    1    4    4    0    0 -0.52299682252E-02 -0.13434528532E-01  0.27500141889E-01  0.31054114855E-01  0.51100000000E-03 0.  1.
         11    1    4    4    0    0  0.17254072900E-01 -0.97978844523E-01  0.42658462820E-01  0.10824769086E+00  0.51100000000E-03 0. -1.
</event>
<event>
 8    1  0.2922807E+004  0.1043930E+01  0.7957747E-01            NaN
         13   -1    0    0    0    0  0.00000000000E+00  0.00000000000E+00  0.74505805969E-08  0.10566000000E+00  0.10566000000E+00 0. -1.
     999900   -1    0    0    0    0 -0.00000000000E+00 -0.00000000000E+00 -0.74505805969E-08  0.93827000000E+00  0.93827000000E+00 0. -1.
     999902    2    1    2    0    0  0.93883014853E-02  0.14176756572E-01 -0.28404999084E-02  0.10266908274E+01  0.10265460857E+01 0.  0.
     999903    2    3    3    0    0 -0.12721714936E+00  0.16712042988E-01 -0.18537754989E-03  0.13614350888E+00  0.45514010724E-01 0.  0.
         14    1    1    2    0    0 -0.93883014853E-02 -0.14176756572E-01  0.28404999084E-02  0.17239172585E-01  0.00000000000E+00 0.  1.
     999901    1    3    3    0    0  0.13660545085E+00 -0.25352864158E-02 -0.26551223586E-02  0.89054731854E+00  0.88000000000E+00 0.  1.
        -11    1    4    4    0    0 -0.36063640439E-01  0.23291019243E-01 -0.10419775176E-01  0.44180205690E-01  0.51100000000E-03 0.  1.
         11    1    4    4    0    0 -0.91153508922E-01 -0.65789762549E-02  0.10234397626E-01  0.91963303188E-01  0.51100000000E-03 0. -1.
</event>
<event>
 8    1  0.2922807E+004  0.1043930E+01  0.7957747E-01            NaN
         13   -1    0    0    0    0  0.00000000000E+00  0.00000000000E+00  0.74505805969E-08  0.10566000000E+00  0.10566000000E+00 0.  1.
     999900   -1    0    0    0    0 -0.00000000000E+00 -0.00000000000E+00 -0.74505805969E-08  0.93827000000E+00  0.93827000000E+00 0.  1.
     999902    2    1    2    0    0 -0.10876621435E-01 -0.52090606285E-03 -0.89008777853E-02  0.10298659372E+01  0.10297699018E+01 0.  0.
     999903    2    3    3    0    0  0.56389388666E-01 -0.11745962706E+00  0.21581215300E-01  0.13906374896E+00  0.43548252289E-01 0.  0.
         14    1    1    2    0    0  0.10876621435E-01  0.52090606285E-03  0.89008777853E-02  0.14064062795E-01  0.00000000000E+00 0. -1.
     999901    1    3    3    0    0 -0.67266010101E-01  0.11693872100E+00 -0.30482093086E-01  0.89080218825E+00  0.88000000000E+00 0.  1.
        -11    1    4    4    0    0  0.61881564499E-01 -0.90808187028E-01  0.13771322694E-01  0.11074910973E+00  0.51100000000E-03 0.  1.
         11    1    4    4    0    0 -0.54921758326E-02 -0.26651440033E-01  0.78098926062E-02  0.28314639230E-01  0.51100000000E-03 0. -1.
</event>
<event>
 8    1  0.2922807E+004  0.1043930E+01  0.7957747E-01            NaN
         13   -1    0    0    0    0  0.00000000000E+00  0.00000000000E+00  0.74505805969E-08  0.10566000000E+00  0.10566000000E+00 0.  1.
     999900   -1    0    0    0    0 -0.00000000000E+00 -0.00000000000E+00 -0.74505805969E-08  0.93827000000E+00  0.93827000000E+00 0.  1.
     999902    2    1    2    0    0  0.66664637297E-02 -0.11658416842E-01  0.37333147556E-02  0.10299909161E+01  0.10298965915E+01 0.  0.
     999903    2    3    3    0    0 -0.89280633360E-01 -0.60494523748E-01  0.79309652083E-01  0.14021420613E+00  0.41705920328E-01 0.  0.
         14    1    1    2    0    0 -0.66664637297E-02  0.11658416842E-01 -0.37333147556E-02  0.13939083936E-01  0.00000000000E+00 0.  1.
     999901    1    3    3    0    0  0.95947097089E-01  0.48836106906E-01 -0.75576337328E-01  0.88977670993E+00  0.88000000000E+00 0.  1.
        -11    1    4    4    0    0 -0.29583129704E-01 -0.65302078477E-02  0.50605091216E-02  0.30719294445E-01  0.51100000000E-03 0.  1.
         11    1    4    4    0    0 -0.59697503656E-01 -0.53964315900E-01  0.74249142962E-01  0.10949491168E+00  0.51100000000E-03 0. -1.
</event>
<event>
 8    1  0.2922807E+004  0.1043930E+01  0.7957747E-01            NaN
         13   -1    0    0    0    0  0.00000000000E+00  0.00000000000E+00  0.74505805969E-08  0.10566000000E+00  0.10566000000E+00 0. -1.
     999900   -1    0    0    0    0 -0.00000000000E+00 -0.00000000000E+00 -0.74505805969E-08  0.93827000000E+00  0.93827000000E+00 0.  1.
     999902    2    1    2    0    0 -0.12729618203E-01  0.26724644267E-02 -0.14458767094E-02  0.10308427617E+01  0.10307596828E+01 0.  0.
     999903    2    3    3    0    0  0.12201183570E+00  0.19008184831E-02  0.48270468683E-01  0.13919957648E+00  0.46432561661E-01 0.  0.
         14    1    1    2    0    0  0.12729618203E-01 -0.26724644267E-02  0.14458767094E-02  0.13087238256E-01  0.00000000000E+00 0.  1.
     999901    1    3    3    0    0 -0.13474145390E+00  0.77164594357E-03 -0.49716345393E-01  0.89164318527E+00  0.88000000000E+00 0.  1.
        -11    1    4    4    0    0  0.94569106705E-02 -0.13823725984E-01  0.39639865597E-02  0.17219258694E-01  0.51100000000E-03 0.  1.
         11    1    4    4    0    0  0.11255492503E+00  0.15724544467E-01  0.44306482123E-01  0.12198031778E+00  0.51100000000E-03 0. -1.
</event>
<event>
 8    1  0.2922807E+004  0.1043930E+01  0.7957747E-01            NaN
         13   -1    0    0    0    0  0.00000000000E+00  0.00000000000E+00  0.74505805969E-08  0.10566000000E+00  0.10566000000E+00 0. -1.
     999900   -1    0    0    0    0 -0.00000000000E+00 -0.00000000000E+00 -0.74505805969E-08  0.93827000000E+00  0.93827000000E+00 0.  1.
     999902    2    1    2    0    0  0.75921990162E-02 -0.11363275499E-01 -0.20259490099E-02  0.10301144296E+01  0.10300217804E+01 0.  0.
     999903    2    3    3    0    0  0.47806697076E-01 -0.11169818361E+00 -0.56323414601E-01  0.14183940777E+00  0.46734634454E-01 0.  0.
         14    1    1    2    0    0 -0.75921990162E-02  0.11363275499E-01  0.20259490099E-02  0.13815570396E-01  0.00000000000E+00 0. -1.
     999901    1    3    3    0    0 -0.40214498060E-01  0.10033490811E+00  0.54297465591E-01  0.88827502183E+00  0.88000000000E+00 0. -1.
        -11    1    4    4    0    0  0.21120135029E-01 -0.92830740240E-01 -0.29841856762E-01  0.99771759397E-01  0.51100000000E-03 0.  1.
         11    1    4    4    0    0  0.26686562047E-01 -0.18867443371E-01 -0.26481557839E-01  0.42067648375E-01  0.51100000000E-03 0. -1.
</event>
<event>
 8    1  0.2922807E+004  0.1043930E+01  0.7957747E-01            NaN
         13   -1    0    0    0    0  0.00000000000E+00  0.00000000000E+00  0.74505805969E-08  0.10566000000E+00  0.10566000000E+00 0.  1.
     999900   -1    0    0    0    0 -0.00000000000E+00 -0.00000000000E+00 -0.74505805969E-08  0.93827000000E+00  0.93827000000E+00 0. -1.
     999902    2    1    2    0    0 -0.64445814535E-02  0.66830046970E-02  0.95630122870E-02  0.10306015948E+01  0.10305154054E+01 0.  0.
     999903    2    3    3    0    0 -0.10128164863E+00  0.60520454863E-01 -0.62816771065E-01  0.14092110528E+00  0.44633097360E-01 0.  0.
         14    1    1    2    0    0  0.64445814535E-02 -0.66830046970E-02 -0.95630122870E-02  0.13328405227E-01  0.00000000000E+00 0. -1.
     999901    1    3    3    0    0  0.94837067175E-01 -0.53837450166E-01  0.72379783352E-01  0.88968048950E+00  0.88000000000E+00 0.  1.
        -11    1    4    4    0    0 -0.63878013912E-01  0.28409606532E-01 -0.13528782981E-01  0.71209518286E-01  0.51100000000E-03 0.  1.
         11    1    4    4    0    0 -0.37403634717E-01  0.32110848331E-01 -0.49287988084E-01  0.69711586992E-01  0.51100000000E-03 0. -1.
</event>
<event>
 8    1  0.2922807E+004  0.1043930E+01  0.7957747E-01            NaN
         13   -1    0    0    0    0  0.00000000000E+00  0.00000000000E+00  0.74505805969E-08  0.10566000000E+00  0.10566000000E+00 0.  1.
     999900   -1    0    0    0    0 -0.00000000000E+00 -0.00000000000E+00 -0.74505805969E-08  0.93827000000E+00  0.93827000000E+00 0. -1.
     999902    2    1    2    0    0 -0.11400883211E-01 -0.12320724891E-02  0.54883427656E-02  0.10312170127E+01  0.10311386459E+01 0.  0.
     999903    2    3    3    0    0 -0.41680395182E-01 -0.30949619973E-01 -0.12291261870E+00  0.14088741730E+00  0.45239564528E-01 0.  0.
         14    1    1    2    0    0  0.11400883211E-01  0.12320724891E-02 -0.54883427656E-02  0.12712987333E-01  0.00000000000E+00 0. -1.
     999901    1    3    3    0    0  0.30279511972E-01  0.29717547484E-01  0.12840096147E+00  0.89032959536E+00  0.88000000000E+00 0. -1.
        -11    1    4    4    0    0 -0.29152021526E-01 -0.42375323554E-01 -0.84983755453E-01  0.99337848866E-01  0.51100000000E-03 0.  1.
         11    1    4    4    0    0 -0.12528373656E-01  0.11425703582E-01 -0.37928863252E-01  0.41549568438E-01  0.51100000000E-03 0. -1.
</event>
<event>
 7    1  0.2922807E+004  0.1043930E+01  0.7957747E-01            NaN
         13   -1    0    0    0    0  0.00000000000E+00  0.00000000000E+00  0.74505805969E-08  0.10566000000E+00  0.10566000000E+00 0. -1.
     999900   -1    0    0    0    0 -0.00000000000E+00 -0.00000000000E+00 -0.74505805969E-08  0.93827000000E+00  0.93827000000E+00 0. -1.
     999902    2    1    2    0    0  0.12234390129E-01  0.11832309982E-02  0.52989955821E-02  0.10305449452E+01  0.10304580168E+01 0.  0.
         14    1    1    2    0    0 -0.12234390129E-01 -0.11832309982E-02 -0.52989955821E-02  0.13385054785E-01  0.00000000000E+00 0. -1.
     999901    1    3    3    0    0 -0.34603135142E-01  0.93950506820E-01  0.94259212854E-01  0.89067888372E+00  0.88000000000E+00 0.  1.
        -11    1    3    3    0    0  0.35608508648E-01 -0.48910915816E-01 -0.36872494586E-01  0.70852562072E-01  0.51100000000E-03 0.  1.
         11    1    3    3    0    0  0.11229016623E-01 -0.43856360006E-01 -0.52087722686E-01  0.69013499425E-01  0.51100000000E-03 0. -1.
</event>
<event>
 8    1  0.2922807E+004  0.1043930E+01  0.7957747E-01            NaN
         13   -1    0    0    0    0  0.00000000000E+00  0.00000000000E+00  0.74505805969E-08  0.10566000000E+00  0.10566000000E+00 0. -1.
     999900   -1    0    0    0    0 -0.00000000000E+00 -0.00000000000E+00 -0.74505805969E-08  0.93827000000E+00  0.93827000000E+00 0. -1.
     999902    2    1    2    0    0 -0.12360376810E-01 -0.58511232471E-02 -0.70390353309E-03  0.10302365695E+01  0.10301455621E+01 0.  0.
     999903    2    3    3    0    0  0.21433464450E-01  0.31638051959E-01 -0.12678983452E+00  0.13981805895E+00  0.44867223462E-01 0.  0.
         14    1    1    2    0    0  0.12360376810E-01  0.58511232471E-02  0.70390353309E-03  0.13693430481E-01  0.00000000000E+00 0.  1.
     999901    1    3    3    0    0 -0.33793841261E-01 -0.37489175206E-01  0.12608593099E+00  0.89041851057E+00  0.88000000000E+00 0.  1.
        -11    1    4    4    0    0  0.26468660170E-01  0.24229776157E-01 -0.45096678773E-01  0.57633701783E-01  0.51100000000E-03 0.  1.
         11    1    4    4    0    0 -0.50351957200E-02  0.74082758025E-02 -0.81693155749E-01  0.82184357171E-01  0.51100000000E-03 0. -1.
</event>
<event>
 8    1  0.2922807E+004  0.1043930E+01  0.7957747E-01            NaN
         13   -1    0    0    0    0  0.00000000000E+00  0.00000000000E+00  0.74505805969E-08  0.10566000000E+00  0.10566000000E+00 0.  1.
     999900   -1    0    0    0    0 -0.00000000000E+00 -0.00000000000E+00 -0.74505805969E-08  0.93827000000E+00  0.93827000000E+00 0. -1.
     999902    2    1    2    0    0  0.52160205259E-02  0.12469774888E-01 -0.15808557970E-02  0.10303211330E+01  0.10302312536E+01 0.  0.
     999903    2    3    3    0    0  0.55861613677E-01 -0.29059571333E-01 -0.11720887905E+00  0.14034388472E+00  0.44648696300E-01 0.  0.
         14    1    1    2    0    0 -0.52160205259E-02 -0.12469774888E-01  0.15808557970E-02  0.13608866997E-01  0.00000000000E+00 0.  1.
     999901    1    3    3    0    0 -0.50645593151E-01  0.41529346221E-01  0.11562802325E+00  0.88997724828E+00  0.88000000000E+00 0.  1.
        -11    1    4    4    0    0 -0.12643680975E-02 -0.89195495583E-02 -0.45906475579E-01  0.46784854516E-01  0.51100000000E-03 0. -1.
         11    1    4    4    0    0  0.57125981775E-01 -0.20140021774E-01 -0.71302403470E-01  0.93559030203E-01  0.51100000000E-03 0.  1.
</event>
<event>
 8    1  0.2922807E+004  0.1043930E+01  0.7957747E-01            NaN
         13   -1    0    0    0    0  0.00000000000E+00  0.00000000000E+00  0.74505805969E-08  0.10566000000E+00  0.10566000000E+00 0.  1.
     999900   -1    0    0    0    0 -0.00000000000E+00 -0.00000000000E+00 -0.74505805969E-08  0.93827000000E+00  0.93827000000E+00 0. -1.
     999902    2    1    2    0    0  0.15987717467E-02 -0.12231611365E-02 -0.13533594314E-01  0.10302475160E+01  0.10301566550E+01 0.  0.
     999903    2    3    3    0    0 -0.32362912399E-01 -0.54402148407E-01  0.11498697416E+00  0.13867646597E+00  0.44746018122E-01 0.  0.
         14    1    1    2    0    0 -0.15987717467E-02  0.12231611365E-02  0.13533594314E-01  0.13682484033E-01  0.00000000000E+00 0. -1.
     999901    1    3    3    0    0  0.33961684146E-01  0.53178987270E-01 -0.12852056847E+00  0.89157105000E+00  0.88000000000E+00 0. -1.
        -11    1    4    4    0    0 -0.80800900996E-02 -0.50780039986E-01  0.64119849671E-01  0.82191949483E-01  0.51100000000E-03 0. -1.
         11    1    4    4    0    0 -0.24282822299E-01 -0.36221084207E-02  0.50867124485E-01  0.56484516485E-01  0.51100000000E-03 0.  1.
</event>
<event>
 8    1  0.2922807E+004  0.1043930E+01  0.7957747E-01            NaN
         13   -1    0    0    0    0  0.00000000000E+00  0.00000000000E+00  0.74505805969E-08  0.10566000000E+00  0.10566000000E+00 0.  1.
     999900   -1    0    0    0    0 -0.00000000000E+00 -0.00000000000E+00 -0.74505805969E-08  0.93827000000E+00  0.93827000000E+00 0.  1.
     999902    2    1    2    0    0  0.43918433061E-02  0.44692232963E-02 -0.12545643324E-01  0.10299066120E+01  0.10298111351E+01 0.  0.
     999903    2    3    3    0    0 -0.94198306477E-01  0.15922824516E-01  0.88626700358E-01  0.13856658388E+00  0.47107842947E-01 0.  0.
         14    1    1    2    0    0 -0.43918433061E-02 -0.44692232963E-02  0.12545643324E-01  0.14023387997E-01  0.00000000000E+00 0.  1.
     999901    1    3    3    0    0  0.98590149783E-01 -0.11453601220E-01 -0.10117234368E+00  0.89134002813E+00  0.88000000000E+00 0. -1.
        -11    1    4    4    0    0 -0.55044895863E-01 -0.39546304331E-02  0.23422163885E-01  0.59953636624E-01  0.51100000000E-03 0.  1.
         11    1    4    4    0    0 -0.39153410614E-01  0.19877454949E-01  0.65204536473E-01  0.78612947252E-01  0.51100000000E-03 0. -1.
</event>
<event>
 8    1  0.2922807E+004  0.1043930E+01  0.7957747E-01            NaN
         13   -1    0    0    0    0  0.00000000000E+00  0.00000000000E+00  0.74505805969E-08  0.10566000000E+00  0.10566000000E+00 0. -1.
     999900   -1    0    0    0    0 -0.00000000000E+00 -0.00000000000E+00 -0.74505805969E-08  0.93827000000E+00  0.93827000000E+00 0. -1.
     999902    2    1    2    0    0  0.11972724813E-01 -0.14911507335E-02  0.56199692542E-02  0.10306200892E+01  0.10305341404E+01 0.  0.
     999903    2    3    3    0    0  0.89426019283E-01 -0.60846470434E-01  0.80358232595E-01  0.14207753269E+00  0.45047462303E-01 0.  0.
         14    1    1    2    0    0 -0.11972724813E-01  0.14911507335E-02 -0.56199692542E-02  0.13309910758E-01  0.00000000000E+00 0.  1.
     999901    1    3    3    0    0 -0.77453294470E-01  0.59355319700E-01 -0.74738263341E-01  0.88854255655E+00  0.88000000000E+00 0. -1.
        -11    1    4    4    0    0  0.37588189782E-01 -0.25712173371E-01  0.61784530414E-01  0.76756610074E-01  0.51100000000E-03 0.  1.
         11    1    4    4    0    0  0.51837829501E-01 -0.35134297063E-01  0.18573702180E-01  0.65320922614E-01  0.51100000000E-03 0. -1.
</event>
<event>
 8    1  0.2922807E+004  0.1043930E+01  0.7957747E-01            NaN
         13   -1    0    0    0    0  0.00000000000E+00  0.00000000000E+00  0.74505805969E-08  0.10566000000E+00  0.10566000000E+00 0.  1.
     999900   -1    0    0    0    0 -0.00000000000E+00 -0.00000000000E+00 -0.74505805969E-08  0.93827000000E+00  0.93827000000E+00 0. -1.
     999902    2    1    2    0    0 -0.11661966926E-01  0.57829048472E-02  0.37544063945E-02  0.10303823423E+01  0.10302932749E+01 0.  0.
     999903    2    3    3    0    0  0.50962858112E-01 -0.13023171489E-02  0.12245374392E+00  0.14017921842E+00  0.45347380745E-01 0.  0.
         14    1    1    2    0    0  0.11661966926E-01 -0.57829048472E-02 -0.37544063945E-02  0.13547657673E-01  0.00000000000E+00 0. -1.
     999901    1    3    3    0    0 -0.62624825037E-01  0.70852219961E-02 -0.11869933753E+00  0.89020312391E+00  0.88000000000E+00 0.  1.
        -11    1    4    4    0    0  0.14448403811E-01 -0.21590540711E-01  0.39161263297E-01  0.46997590203E-01  0.51100000000E-03 0. -1.
         11    1    4    4    0    0  0.36514454301E-01  0.20288223562E-01  0.83292480624E-01  0.93181628219E-01  0.51100000000E-03 0.  1.
</event>
<event>
 8    1  0.2922807E+004  0.1043930E+01  0.7957747E-01            NaN
         13   -1    0    0    0    0  0.00000000000E+00  0.00000000000E+00  0.74505805969E-08  0.10566000000E+00  0.10566000000E+00 0. -1.
     999900   -1    0    0    0    0 -0.00000000000E+00 -0.00000000000E+00 -0.74505805969E-08  0.93827000000E+00  0.93827000000E+00 0.  1.
     999902    2    1    2    0    0 -0.95983976000E-02 -0.11568028406E-01  0.35710593021E-02  0.10284800491E+01  0.10283639971E+01 0.  0.
     999903    2    3    3    0    0  0.29702263033E-01 -0.60991388953E-01 -0.11222782167E+00  0.13865051975E+00  0.45018981730E-01 0.  0.
         14    1    1    2    0    0  0.95983976000E-02  0.11568028406E-01 -0.35710593021E-02  0.15449950881E-01  0.00000000000E+00 0.  1.
     999901    1    3    3    0    0 -0.39300660633E-01  0.49423360547E-01  0.11579888097E+00  0.88982952936E+00  0.88000000000E+00 0. -1.
        -11    1    4    4    0    0  0.38246177523E-01 -0.61709424025E-01 -0.10330242869E+00  0.12626351810E+00  0.51100000000E-03 0. -1.
         11    1    4    4    0    0 -0.85439144897E-02  0.71803507217E-03 -0.89253929767E-02  0.12387001653E-01  0.51100000000E-03 0.  1.
</event>
<event>
 8    1  0.2922807E+004  0.1043930E+01  0.7957747E-01            NaN
         13   -1    0    0    0    0  0.00000000000E+00  0.00000000000E+00  0.74505805969E-08  0.10566000000E+00  0.10566000000E+00 0.  1.
     999900   -1    0    0    0    0 -0.00000000000E+00 -0.00000000000E+00 -0.74505805969E-08  0.93827000000E+00  0.93827000000E+00 0.  1.
     999902    2    1    2    0    0 -0.22099616589E-02 -0.12263413692E-01 -0.62640039956E-02  0.10299832085E+01  0.10298887789E+01 0.  0.
     999903    2    3    3    0    0  0.12016672835E+00  0.47833331145E-01 -0.27378547326E-01  0.13923436799E+00  0.43687002705E-01 0.  0.
         14    1    1    2    0    0  0.22099616589E-02  0.12263413692E-01  0.62640039956E-02  0.13946791458E-01  0.00000000000E+00 0. -1.
     999901    1    3    3    0    0 -0.12237669001E+00 -0.60096744837E-01  0.21114543331E-01  0.89074884055E+00  0.88000000000E+00 0. -1.
        -11    1    4    4    0    0  0.28472437595E-01  0.58188079083E-02 -0.25008695084E-01  0.38343632833E-01  0.51100000000E-03 0.  1.
         11    1    4    4    0    0  0.91694290759E-01  0.42014523236E-01 -0.23698522424E-02  0.10089073516E+00  0.51100000000E-03 0. -1.
</event>
<event>
 8    1  0.2922807E+004  0.1043930E+01  0.7957747E-01            NaN
         13   -1    0    0    0    0  0.00000000000E+00  0.00000000000E+00  0.74505805969E-08  0.10566000000E+00  0.10566000000E+00 0.  1.
     999900   -1    0    0    0    0 -0.00000000000E+00 -0.00000000000E+00 -0.74505805969E-08  0.93827000000E+00  0.93827000000E+00 0. -1.
     999902    2    1    2    0    0 -0.11443962130E-02 -0.12564157645E-01  0.57664871818E-02  0.10300584437E+01  0.10299650370E+01 0.  0.
     999903    2    3    3    0    0  0.47960205688E-01 -0.10176919798E+00  0.74384723844E-01  0.14153311285E+00  0.42911349355E-01 0.  0.
         14    1    1    2    0    0  0.11443962130E-02  0.12564157645E-01 -0.57664871818E-02  0.13871556309E-01  0.00000000000E+00 0. -1.
     999901    1    3    3    0    0 -0.49104601901E-01  0.89205040336E-01 -0.68618236662E-01  0.88852533084E+00  0.88000000000E+00 0. -1.
        -11    1    4    4    0    0  0.23106732708E-01 -0.13086328498E-01  0.71611336209E-02  0.27508472254E-01  0.51100000000E-03 0.  1.
         11    1    4    4    0    0  0.24853472980E-01 -0.88682869483E-01  0.67223590223E-01  0.11402464059E+00  0.51100000000E-03 0. -1.
</event>
<event>
 8    1  0.2922807E+004  0.1043930E+01  0.7957747E-01            NaN
         13   -1    0    0    0    0  0.00000000000E+00  0.00000000000E+00  0.74505805969E-08  0.10566000000E+00  0.10566000000E+00 0.  1.
     999900   -1    0    0    0    0 -0.00000000000E+00 -0.00000000000E+00 -0.74505805969E-08  0.93827000000E+00  0.93827000000E+00 0.  1.
     999902    2    1    2    0    0 -0.45854087307E-02 -0.26403485825E-02  0.11145908852E-01  0.10315919006E+01  0.10315181145E+01 0.  0.
     999903    2    3    3    0    0 -0.99066508351E-01 -0.84225126060E-01  0.39221222200E-01  0.14233885596E+00  0.42591087183E-01 0.  0.
         14    1    1    2    0    0  0.45854087307E-02  0.26403485825E-02 -0.11145908852E-01  0.12338099449E-01  0.00000000000E+00 0. -1.
     999901    1    3    3    0    0  0.94481099621E-01  0.81584777477E-01 -0.28075313348E-01  0.88925304459E+00  0.88000000000E+00 0.  1.
        -11    1    4    4    0    0 -0.13384438776E-01 -0.36086747917E-01  0.92122135144E-02  0.39579320047E-01  0.51100000000E-03 0.  1.
         11    1    4    4    0    0 -0.85682069576E-01 -0.48138378142E-01  0.30009008685E-01  0.10275953591E+00  0.51100000000E-03 0. -1.
</event>
<event>
 8    1  0.2922807E+004  0.1043930E+01  0.7957747E-01            NaN
         13   -1    0    0    0    0  0.00000000000E+00  0.00000000000E+00  0.74505805969E-08  0.10566000000E+00  0.10566000000E+00 0.  1.
     999900   -1    0    0    0    0 -0.00000000000E+00 -0.00000000000E+00 -0.74505805969E-08  0.93827000000E+00  0.93827000000E+00 0. -1.
     999902    2    1    2    0    0 -0.86057984767E-02  0.56371908281E-03 -0.95930691067E-02  0.10310302123E+01  0.10309495110E+01 0.  0.
     999903    2    3    3    0    0  0.97108925289E-01  0.87500771681E-01  0.27260005372E-01  0.13968751561E+00  0.41023965040E-01 0.  0.
         14    1    1    2    0    0  0.86057984767E-02 -0.56371908281E-03  0.95930691067E-02  0.12899787654E-01  0.00000000000E+00 0.  1.
     999901    1    3    3    0    0 -0.10571472377E+00 -0.86937052598E-01 -0.36853074478E-01  0.89134269674E+00  0.88000000000E+00 0. -1.
        -11    1    4    4    0    0  0.61998311389E-01  0.62156292834E-01 -0.13187491434E-02  0.87802024887E-01  0.51100000000E-03 0.  1.
         11    1    4    4    0    0  0.35110613899E-01  0.25344478847E-01  0.28578754515E-01  0.51885490718E-01  0.51100000000E-03 0. -1.
</event>
<event>
 8    1  0.2922807E+004  0.1043930E+01  0.7957747E-01            NaN
         13   -1    0    0    0    0  0.00000000000E+00  0.00000000000E+00  0.74505805969E-08  0.10566000000E+00  0.10566000000E+00 0.  1.
     999900   -1    0    0    0    0 -0.00000000000E+00 -0.00000000000E+00 -0.74505805969E-08  0.93827000000E+00  0.93827000000E+00 0. -1.
     999902    2    1    2    0    0 -0.26968202826E-02  0.35089643261E-02  0.11760424940E-01  0.10313644413E+01  0.10312878927E+01 0.  0.
     999903    2    3    3    0    0  0.70248849795E-01 -0.11151141658E+00 -0.21523893020E-01  0.14026478099E+00  0.42909601370E-01 0.  0.
         14    1    1    2    0    0  0.26968202826E-02 -0.35089643261E-02 -0.11760424940E-01  0.12565558684E-01  0.00000000000E+00 0. -1.
     999901    1    3    3    0    0 -0.72945670078E-01  0.11502038091E+00  0.33284317960E-01  0.89109966032E+00  0.88000000000E+00 0. -1.
        -11    1    4    4    0    0  0.47493793196E-01 -0.79298462826E-01 -0.34619358382E-01  0.98704952735E-01  0.51100000000E-03 0.  1.
         11    1    4    4    0    0  0.22755056599E-01 -0.32212953758E-01  0.13095465362E-01  0.41559828257E-01  0.51100000000E-03 0. -1.
</event>
<event>
 8    1  0.2922807E+004  0.1043930E+01  0.7957747E-01            NaN
         13   -1    0    0    0    0  0.00000000000E+00  0.00000000000E+00  0.74505805969E-08  0.10566000000E+00  0.10566000000E+00 0.  1.
     999900   -1    0    0    0    0 -0.00000000000E+00 -0.00000000000E+00 -0.74505805969E-08  0.93827000000E+00  0.93827000000E+00 0.  1.
     999902    2    1    2    0    0 -0.79992055786E-02 -0.66934171737E-02 -0.98233421462E-02  0.10296021539E+01  0.10295024566E+01 0.  0.
     999903    2    3    3    0    0  0.11144745798E+00  0.64240615887E-01 -0.25427440782E-01  0.13856756961E+00  0.44799821240E-01 0.  0.
         14    1    1    2    0    0  0.79992055786E-02  0.66934171737E-02  0.98233421462E-02  0.14327846114E-01  0.00000000000E+00 0.  1.
     999901    1    3    3    0    0 -0.11944666356E+00 -0.70934033060E-01  0.15604098636E-01  0.89103458428E+00  0.88000000000E+00 0.  1.
        -11    1    4    4    0    0  0.66141751152E-01  0.26014602906E-01  0.62586862437E-02  0.71350704862E-01  0.51100000000E-03 0. -1.
         11    1    4    4    0    0  0.45305706827E-01  0.38226012981E-01 -0.31686127026E-01  0.67216864747E-01  0.51100000000E-03 0.  1.
</event>
<event>
 8    1  0.2922807E+004  0.1043930E+01  0.7957747E-01            NaN
         13   -1    0    0    0    0  0.00000000000E+00  0.00000000000E+00  0.74505805969E-08  0.10566000000E+00  0.10566000000E+00 0. -1.
     999900   -1    0    0    0    0 -0.00000000000E+00 -0.00000000000E+00 -0.74505805969E-08  0.93827000000E+00  0.93827000000E+00 0. -1.
     999902    2    1    2    0    0  0.57368833278E-03  0.34754776115E-02  0.13435602835E-01  0.10300403101E+01  0.10299466573E+01 0.  0.
     999903    2    3    3    0    0 -0.12981823096E+00  0.20394949616E-01  0.19380694533E-01  0.14025175919E+00  0.45013526591E-01 0.  0.
         14    1    1    2    0    0 -0.57368833278E-03 -0.34754776115E-02 -0.13435602835E-01  0.13889689935E-01  0.00000000000E+00 0.  1.
     999901    1    3    3    0    0  0.13039191929E+00 -0.16919472005E-01 -0.59450916978E-02  0.88978855087E+00  0.88000000000E+00 0. -1.
        -11    1    4    4    0    0 -0.17357501151E-01  0.18892740595E-01 -0.21011021696E-02  0.25746732700E-01  0.51100000000E-03 0. -1.
         11    1    4    4    0    0 -0.11246072981E+00  0.15022090212E-02  0.21481796703E-01  0.11450502649E+00  0.51100000000E-03 0.  1.
</event>
<event>
 8    1  0.2922807E+004  0.1043930E+01  0.7957747E-01            NaN
         13   -1    0    0    0    0  0.00000000000E+00  0.00000000000E+00  0.74505805969E-08  0.10566000000E+00  0.10566000000E+00 0. -1.
     999900   -1    0    0    0    0 -0.00000000000E+00 -0.00000000000E+00 -0.74505805969E-08  0.93827000000E+00  0.93827000000E+00 0.  1.
     999902    2    1    2    0    0 -0.94341460779E-02 -0.58498742014E-02  0.79607927137E-02  0.10302698989E+01  0.10301793370E+01 0.  0.
     999903    2    3    3    0    0  0.85005030550E-01  0.85385303690E-02  0.10168220391E+00  0.14015221729E+00  0.44772890217E-01 0.  0.
         14    1    1    2    0    0  0.94341460779E-02  0.58498742014E-02 -0.79607927137E-02  0.13660101062E-01  0.00000000000E+00 0.  1.
     999901    1    3    3    0    0 -0.94439176628E-01 -0.14388404570E-01 -0.93721411200E-01  0.89011768165E+00  0.88000000000E+00 0. -1.
        -11    1    4    4    0    0  0.64583364805E-01  0.41423332350E-02  0.42591168906E-01  0.77475407220E-01  0.51100000000E-03 0.  1.
         11    1    4    4    0    0  0.20421665745E-01  0.43961971340E-02  0.59091035008E-01  0.62676810068E-01  0.51100000000E-03 0. -1.
</event>
<event>
 8    1  0.2922807E+004  0.1043930E+01  0.7957747E-01            NaN
         13   -1    0    0    0    0  0.00000000000E+00  0.00000000000E+00  0.74505805969E-08  0.10566000000E+00  0.10566000000E+00 0.  1.
     999900   -1    0    0    0    0 -0.00000000000E+00 -0.00000000000E+00 -0.74505805969E-08  0.93827000000E+00  0.93827000000E+00 0.  1.
     999902    2    1    2    0    0 -0.77534850806E-02  0.81898710342E-02 -0.12411528780E-01  0.10271598907E+01  0.10270229815E+01 0.  0.
     999903    2    3    3    0    0  0.19499411707E-01 -0.10511210014E+00 -0.73104219009E-01  0.13740505949E+00  0.45903626045E-01 0.  0.
         14    1    1    2    0    0  0.77534850806E-02 -0.81898710342E-02  0.12411528780E-01  0.16770109276E-01  0.00000000000E+00 0.  1.
     999901    1    3    3    0    0 -0.27252896787E-01  0.11330197117E+00  0.60692690228E-01  0.88975483123E+00  0.88000000000E+00 0.  1.
        -11    1    4    4    0    0  0.30533499795E-01 -0.42039461958E-01 -0.27465984962E-01  0.58772888498E-01  0.51100000000E-03 0. -1.
         11    1    4    4    0    0 -0.11034088088E-01 -0.63072638182E-01 -0.45638234047E-01  0.78632170993E-01  0.51100000000E-03 0.  1.
</event>
<event>
 8    1  0.2922807E+004  0.1043930E+01  0.7957747E-01            NaN
         13   -1    0    0    0    0  0.00000000000E+00  0.00000000000E+00  0.74505805969E-08  0.10566000000E+00  0.10566000000E+00 0. -1.
     999900   -1    0    0    0    0 -0.00000000000E+00 -0.00000000000E+00 -0.74505805969E-08  0.93827000000E+00  0.93827000000E+00 0.  1.
     999902    2    1    2    0    0 -0.10015207943E-01  0.10654559987E-02  0.90217860253E-02  0.10304084539E+01  0.10303197317E+01 0.  0.
     999903    2    3    3    0    0  0.40390155587E-01  0.62330381507E-01 -0.10835271039E+00  0.13907750289E+00  0.45670568562E-01 0.  0.
         14    1    1    2    0    0  0.10015207943E-01 -0.10654559987E-02 -0.90217860253E-02  0.13521546129E-01  0.00000000000E+00 0.  1.
     999901    1    3    3    0    0 -0.50405363530E-01 -0.61264925508E-01  0.11737449642E+00  0.89133095098E+00  0.88000000000E+00 0. -1.
        -11    1    4    4    0    0  0.19976749663E-02  0.42100906173E-01 -0.39991465190E-01  0.58103833048E-01  0.51100000000E-03 0.  1.
         11    1    4    4    0    0  0.38392480621E-01  0.20229475333E-01 -0.68361245204E-01  0.80973669840E-01  0.51100000000E-03 0. -1.
</event>
<event>
 8    1  0.2922807E+004  0.1043930E+01  0.7957747E-01            NaN
         13   -1    0    0    0    0  0.00000000000E+00  0.00000000000E+00  0.74505805969E-08  0.10566000000E+00  0.10566000000E+00 0. -1.
     999900   -1    0    0    0    0 -0.00000000000E+00 -0.00000000000E+00 -0.74505805969E-08  0.93827000000E+00  0.93827000000E+00 0. -1.
     999902    2    1    2    0    0 -0.33872751925E-02 -0.59746131737E-02  0.11800842978E-01  0.10302760800E+01  0.10301856005E+01 0.  0.
     999903    2    3    3    0    0 -0.51017216221E-01 -0.12283200345E+00 -0.10716260092E-01  0.14098912921E+00  0.45526244116E-01 0.  0.
         14    1    1    2    0    0  0.33872751925E-02  0.59746131737E-02 -0.11800842978E-01  0.13653919979E-01  0.00000000000E+00 0.  1.
     999901    1    3    3    0    0  0.47629941029E-01  0.11685739028E+00  0.22517103069E-01  0.88928695081E+00  0.88000000000E+00 0.  1.
        -11    1    4    4    0    0  0.36487650153E-02 -0.42799670996E-01  0.31839645316E-02  0.43075794533E-01  0.51100000000E-03 0. -1.
         11    1    4    4    0    0 -0.54665981236E-01 -0.80032332456E-01 -0.13900224623E-01  0.97913334682E-01  0.51100000000E-03 0.  1.
</event>
<event>
 8    1  0.2922807E+004  0.1043930E+01  0.7957747E-01            NaN
         13   -1    0    0    0    0  0.00000000000E+00  0.00000000000E+00  0.74505805969E-08  0.10566000000E+00  0.10566000000E+00 0.  1.
     999900   -1    0    0    0    0 -0.00000000000E+00 -0.00000000000E+00 -0.74505805969E-08  0.93827000000E+00  0.93827000000E+00 0. -1.
     999902    2    1    2    0    0 -0.30173209214E-02  0.96556291581E-02  0.77737199999E-02  0.10311720173E+01  0.10310930914E+01 0.  0.
     999903    2    3    3    0    0 -0.11890177885E+00 -0.19137438311E-01 -0.57358672383E-01  0.14072242475E+00  0.44820854212E-01 0.  0.
         14    1    1    2    0    0  0.30173209214E-02 -0.96556291581E-02 -0.77737199999E-02  0.12757982702E-01  0.00000000000E+00 0. -1.
     999901    1    3    3    0    0  0.11588445793E+00  0.28793067470E-01  0.65132392383E-01  0.89044959254E+00  0.88000000000E+00 0.  1.
        -11    1    4    4    0    0 -0.74034120117E-01 -0.31612023087E-01 -0.46254690944E-01  0.92844647129E-01  0.51100000000E-03 0. -1.
         11    1    4    4    0    0 -0.44867658733E-01  0.12474584776E-01 -0.11103981438E-01  0.47877777625E-01  0.51100000000E-03 0.  1.
</event>
<event>
 8    1  0.2922807E+004  0.1043930E+01  0.7957747E-01            NaN
         13   -1    0    0    0    0  0.00000000000E+00  0.00000000000E+00  0.74505805969E-08  0.10566000000E+00  0.10566000000E+00 0. -1.
     999900   -1    0    0    0    0 -0.00000000000E+00 -0.00000000000E+00 -0.74505805969E-08  0.93827000000E+00  0.93827000000E+00 0. -1.
     999902    2    1    2    0    0 -0.14327638454E-01  0.16515150612E-02  0.70691297080E-02  0.10278682031E+01  0.10277427020E+01 0.  0.
     999903    2    3    3    0    0  0.30251734279E-01  0.65541695238E-01 -0.10749336773E+00  0.13702936164E+00  0.44847972110E-01 0.  0.
         14    1    1    2    0    0  0.14327638454E-01 -0.16515150612E-02 -0.70691297080E-02  0.16061796926E-01  0.00000000000E+00 0.  1.
     999901    1    3    3    0    0 -0.44579372732E-01 -0.63890180177E-01  0.11456249744E+00  0.89083884144E+00  0.88000000000E+00 0. -1.
        -11    1    4    4    0    0  0.31660507095E-01  0.40862123886E-01 -0.40660574434E-01  0.65769630623E-01  0.51100000000E-03 0. -1.
         11    1    4    4    0    0 -0.14087728164E-02  0.24679571352E-01 -0.66832793298E-01  0.71259731012E-01  0.51100000000E-03 0.  1.
</event>
<event>
 8    1  0.2922807E+004  0.1043930E+01  0.7957747E-01            NaN
         13   -1    0    0    0    0  0.00000000000E+00  0.00000000000E+00  0.74505805969E-08  0.10566000000E+00  0.10566000000E+00 0. -1.
     999900   -1    0    0    0    0 -0.00000000000E+00 -0.00000000000E+00 -0.74505805969E-08  0.93827000000E+00  0.93827000000E+00 0.  1.
     999902    2    1    2    0    0  0.49124133964E-02  0.93012111320E-02  0.94664823357E-02  0.10297787237E+01  0.10296814853E+01 0.  0.
     999903    2    3    3    0    0 -0.35100007410E-01 -0.10485281786E+00 -0.69261513919E-01  0.13802189945E+00  0.45019590001E-01 0.  0.
         14    1    1    2    0    0 -0.49124133964E-02 -0.93012111320E-02 -0.94664823357E-02  0.14151276328E-01  0.00000000000E+00 0.  1.
     999901    1    3    3    0    0  0.40012420806E-01  0.11415402899E+00  0.78727996255E-01  0.89175682422E+00  0.88000000000E+00 0. -1.
        -11    1    4    4    0    0 -0.44913544996E-02 -0.70635395156E-01 -0.27426474329E-01  0.75907864739E-01  0.51100000000E-03 0. -1.
         11    1    4    4    0    0 -0.30608652910E-01 -0.34217422704E-01 -0.41835039591E-01  0.62114034711E-01  0.51100000000E-03 0.  1.
</event>
<event>
 8    1  0.2922807E+004  0.1043930E+01  0.7957747E-01            NaN
         13   -1    0    0    0    0  0.00000000000E+00  0.00000000000E+00  0.74505805969E-08  0.10566000000E+00  0.10566000000E+00 0. -1.
     999900   -1    0    0    0    0 -0.00000000000E+00 -0.00000000000E+00 -0.74505805969E-08  0.93827000000E+00  0.93827000000E+00 0. -1.
     999902    2    1    2    0    0  0.13065026319E-01  0.61708422380E-02 -0.27100731599E-02  0.10292290237E+01  0.10291240278E+01 0.  0.
     999903    2    3    3    0    0  0.11192315770E+00 -0.14711756217E-02  0.71953150825E-01  0.14051876297E+00  0.45158711721E-01 0.  0.
         14    1    1    2    0    0 -0.13065026319E-01 -0.61708422380E-02  0.27100731599E-02  0.14700976266E-01  0.00000000000E+00 0. -1.
     999901    1    3    3    0    0 -0.98858131384E-01  0.76420178598E-02 -0.74663223985E-01  0.88871026077E+00  0.88000000000E+00 0.  1.
        -11    1    4    4    0    0  0.67859653573E-02  0.12766085520E-01  0.10852289432E-01  0.18084677831E-01  0.51100000000E-03 0. -1.
         11    1    4    4    0    0  0.10513719234E+00 -0.14237261142E-01  0.61100861393E-01  0.12243408514E+00  0.51100000000E-03 0.  1.
</event>
<event>
 8    1  0.2922807E+004  0.1043930E+01  0.7957747E-01            NaN
         13   -1    0    0    0    0  0.00000000000E+00  0.00000000000E+00  0.74505805969E-08  0.10566000000E+00  0.10566000000E+00 0. -1.
     999900   -1    0    0    0    0 -0.00000000000E+00 -0.00000000000E+00 -0.74505805969E-08  0.93827000000E+00  0.93827000000E+00 0. -1.
     999902    2    1    2    0    0  0.45662338230E-02 -0.11697933420E-01  0.46486260522E-02  0.10305396355E+01  0.10304526377E+01 0.  0.
     999903    2    3    3    0    0 -0.55741600036E-01 -0.98313387387E-01  0.72547880860E-01  0.14163605214E+00  0.44999201473E-01 0.  0.
         14    1    1    2    0    0 -0.45662338230E-02  0.11697933420E-01 -0.46486260522E-02  0.13390364513E-01  0.00000000000E+00 0. -1.
     999901    1    3    3    0    0  0.60307833859E-01  0.86615453967E-01 -0.67899254808E-01  0.88890358335E+00  0.88000000000E+00 0. -1.
        -11    1    4    4    0    0 -0.32480425787E-01 -0.41496549812E-01  0.93438996952E-02  0.53521129361E-01  0.51100000000E-03 0.  1.
         11    1    4    4    0    0 -0.23261174249E-01 -0.56816837575E-01  0.63203981165E-01  0.88114922775E-01  0.51100000000E-03 0. -1.
</event>
<event>
 8    1  0.2922807E+004  0.1043930E+01  0.7957747E-01            NaN
         13   -1    0    0    0    0  0.00000000000E+00  0.00000000000E+00  0.74505805969E-08  0.10566000000E+00  0.10566000000E+00 0.  1.
     999900   -1    0    0    0    0 -0.00000000000E+00 -0.00000000000E+00 -0.74505805969E-08  0.93827000000E+00  0.93827000000E+00 0.  1.
     999902    2    1    2    0    0 -0.20478485831E-02 -0.29005325394E-02 -0.12105659508E-01  0.10313143841E+01  0.10312372206E+01 0.  0.
     999903    2    3    3    0    0  0.31599940450E-01 -0.12035867186E+00 -0.51888649186E-01  0.14198245816E+00  0.44517641255E-01 0.  0.
         14    1    1    2    0    0  0.20478485831E-02  0.29005325394E-02  0.12105659508E-01  0.12615615916E-01  0.00000000000E+00 0.  1.
     999901    1    3    3    0    0 -0.33647789033E-01  0.11745813932E+00  0.39782989679E-01  0.88933192592E+00  0.88000000000E+00 0.  1.
        -11    1    4    4    0    0  0.33172931833E-01 -0.68822429306E-01 -0.48097111556E-01  0.90280470995E-01  0.51100000000E-03 0.  1.
         11    1    4    4    0    0 -0.15729913830E-02 -0.51536242552E-01 -0.37915376309E-02  0.51701987165E-01  0.51100000000E-03 0. -1.
</event>
<event>
 8    1  0.2922807E+004  0.1043930E+01  0.7957747E-01            NaN
         13   -1    0    0    0    0  0.00000000000E+00  0.00000000000E+00  0.74505805969E-08  0.10566000000E+00  0.10566000000E+00 0.  1.
     999900   -1    0    0    0    0 -0.00000000000E+00 -0.00000000000E+00 -0.74505805969E-08  0.93827000000E+00  0.93827000000E+00 0.  1.
     999902    2    1    2    0    0 -0.63037760818E-02 -0.10879121642E-01  0.46335104174E-02  0.10305299142E+01  0.10304427892E+01 0.  0.
     999903    2    3    3    0    0 -0.10482607126E+00 -0.79233215094E-01 -0.28726129639E-01  0.14177134725E+00  0.44805320983E-01 0.  0.
         14    1    1    2    0    0  0.63037760818E-02  0.10879121642E-01 -0.46335104174E-02  0.13400085798E-01  0.00000000000E+00 0. -1.
     999901    1    3    3    0    0  0.98522295178E-01  0.68354093452E-01  0.33359640056E-01  0.88875856695E+00  0.88000000000E+00 0. -1.
        -11    1    4    4    0    0 -0.10435917658E+00 -0.66940180005E-01 -0.17695974303E-01  0.12524070449E+00  0.51100000000E-03 0. -1.
         11    1    4    4    0    0 -0.46689468441E-03 -0.12293035089E-01 -0.11030155335E-01  0.16530642761E-01  0.51100000000E-03 0.  1.
</event>
<event>
 8    1  0.2922807E+004  0.1043930E+01  0.7957747E-01            NaN
         13   -1    0    0    0    0  0.00000000000E+00  0.00000000000E+00  0.74505805969E-08  0.10566000000E+00  0.10566000000E+00 0. -1.
     999900   -1    0    0    0    0 -0.00000000000E+00 -0.00000000000E+00 -0.74505805969E-08  0.93827000000E+00  0.93827000000E+00 0.  1.
     999902    2    1    2    0    0 -0.10187153576E-01  0.61355481260E-02 -0.95531743777E-02  0.10286759451E+01  0.10285628391E+01 0.  0.
     999903    2    3    3    0    0 -0.10001434156E+00  0.27740051562E-01 -0.83451687106E-01  0.14075890597E+00  0.45568701444E-01 0.  0.
         14    1    1    2    0    0  0.10187153576E-01 -0.61355481260E-02  0.95531743777E-02  0.15254054853E-01  0.00000000000E+00 0. -1.
     999901    1    3    3    0    0  0.89827187986E-01 -0.21604503436E-01  0.73898512728E-01  0.88791703917E+00  0.88000000000E+00 0. -1.
        -11    1    4    4    0    0 -0.27677307330E-01  0.26862423100E-01 -0.15709300194E-01  0.41649325918E-01  0.51100000000E-03 0.  1.
         11    1    4    4    0    0 -0.72337034232E-01  0.87762846200E-03 -0.67742386912E-01  0.99109580056E-01  0.51100000000E-03 0. -1.
</event>
<event>
 8    1  0.2922807E+004  0.1043930E+01  0.7957747E-01            NaN
         13   -1    0    0    0    0  0.00000000000E+00  0.00000000000E+00  0.74505805969E-08  0.10566000000E+00  0.10566000000E+00 0.  1.
     999900   -1    0    0    0    0 -0.00000000000E+00 -0.00000000000E+00 -0.74505805969E-08  0.93827000000E+00  0.93827000000E+00 0. -1.
     999902    2    1    2    0    0  0.55702475568E-02 -0.10018290508E-01 -0.46501570905E-02  0.10315599651E+01  0.10314857943E+01 0.  0.
     999903    2    3    3    0    0  0.13089641277E+00 -0.25300809452E-01  0.20578030843E-01  0.14219127634E+00  0.44954442265E-01 0.  0.
         14    1    1    2    0    0 -0.55702475568E-02  0.10018290508E-01  0.46501570905E-02  0.12370034904E-01  0.00000000000E+00 0.  1.
     999901    1    3    3    0    0 -0.12532616521E+00  0.15282518943E-01 -0.25228187934E-01  0.88936868876E+00  0.88000000000E+00 0.  1.
        -11    1    4    4    0    0  0.11139212751E+00 -0.37566352666E-02  0.19153878895E-01  0.11309045308E+00  0.51100000000E-03 0. -1.
         11    1    4    4    0    0  0.19504285259E-01 -0.21544174185E-01  0.14241519483E-02  0.29100823262E-01  0.51100000000E-03 0.  1.
</event>
<event>
 8    1  0.2922807E+004  0.1043930E+01  0.7957747E-01            NaN
         13   -1    0    0    0    0  0.00000000000E+00  0.00000000000E+00  0.74505805969E-08  0.10566000000E+00  0.10566000000E+00 0. -1.
     999900   -1    0    0    0    0 -0.00000000000E+00 -0.00000000000E+00 -0.74505805969E-08  0.93827000000E+00  0.93827000000E+00 0. -1.
     999902    2    1    2    0    0  0.55622051949E-03  0.10654076989E-01  0.69292288049E-02  0.10312086420E+01  0.10311301714E+01 0.  0.
     999903    2    3    3    0    0 -0.10859501928E-01 -0.10366895185E+00 -0.80670529938E-01  0.13942739562E+00  0.45465194278E-01 0.  0.
         14    1    1    2    0    0 -0.55622051949E-03 -0.10654076989E-01 -0.69292288049E-02  0.12721358009E-01  0.00000000000E+00 0.  1.
     999901    1    3    3    0    0  0.11415722448E-01  0.11432302884E+00  0.87599758743E-01  0.89178124637E+00  0.88000000000E+00 0.  1.
        -11    1    4    4    0    0  0.22604950522E-02 -0.97747982526E-01 -0.61725985387E-01  0.11562930562E+00  0.51100000000E-03 0.  1.
         11    1    4    4    0    0 -0.13119996981E-01 -0.59209693216E-02 -0.18944544550E-01  0.23798090001E-01  0.51100000000E-03 0. -1.
</event>
<event>
 8    1  0.2922807E+004  0.1043930E+01  0.7957747E-01            NaN
         13   -1    0    0    0    0  0.00000000000E+00  0.00000000000E+00  0.74505805969E-08  0.10566000000E+00  0.10566000000E+00 0. -1.
     999900   -1    0    0    0    0 -0.00000000000E+00 -0.00000000000E+00 -0.74505805969E-08  0.93827000000E+00  0.93827000000E+00 0. -1.
     999902    2    1    2    0    0 -0.11998436347E-01 -0.51548674357E-02 -0.55274286436E-02  0.10297494640E+01  0.10296518203E+01 0.  0.
     999903    2    3    3    0    0 -0.13168816498E+00  0.14489739162E-01  0.17151915835E-01  0.14114049807E+00  0.45549167323E-01 0.  0.
         14    1    1    2    0    0  0.11998436347E-01  0.51548674357E-02  0.55274286436E-02  0.14180535972E-01  0.00000000000E+00 0. -1.
     999901    1    3    3    0    0  0.11968972863E+00 -0.19644606598E-01 -0.22679344478E-01  0.88860896595E+00  0.88000000000E+00 0.  1.
        -11    1    4    4    0    0 -0.38988443763E-01  0.21110025114E-01  0.18868863253E-01  0.48187415668E-01  0.51100000000E-03 0. -1.
         11    1    4    4    0    0 -0.92699721214E-01 -0.66202859519E-02 -0.17169474185E-02  0.92953082405E-01  0.51100000000E-03 0.  1.
</event>
<event>
 8    1  0.2922807E+004  0.1043930E+01  0.7957747E-01            NaN
         13   -1    0    0    0    0  0.00000000000E+00  0.00000000000E+00  0.74505805969E-08  0.10566000000E+00  0.10566000000E+00 0. -1.
     999900   -1    0    0    0    0 -0.00000000000E+00 -0.00000000000E+00 -0.74505805969E-08  0.93827000000E+00  0.93827000000E+00 0.  1.
     999902    2    1    2    0    0  0.56131432101E-02  0.26699478016E-02  0.13057500178E-01  0.10294685233E+01  0.10293669443E+01 0.  0.
     999903    2    3    3    0    0 -0.18593526960E-02  0.19194628099E-01 -0.12721654638E+00  0.13817412108E+00  0.50360173981E-01 0.  0.
         14    1    1    2    0    0 -0.56131432101E-02 -0.26699478016E-02 -0.13057500178E-01  0.14461476718E-01  0.00000000000E+00 0.  1.
     999901    1    3    3    0    0  0.74724959060E-02 -0.16524680297E-01  0.14027404656E+00  0.89129440220E+00  0.88000000000E+00 0. -1.
        -11    1    4    4    0    0 -0.23472548844E-01  0.32662498373E-02 -0.84119874674E-01  0.87395900209E-01  0.51100000000E-03 0.  1.
         11    1    4    4    0    0  0.21613196148E-01  0.15928378262E-01 -0.43096671708E-01  0.50778220873E-01  0.51100000000E-03 0. -1.
</event>
<event>
 8    1  0.2922807E+004  0.1043930E+01  0.7957747E-01            NaN
         13   -1    0    0    0    0  0.00000000000E+00  0.00000000000E+00  0.74505805969E-08  0.10566000000E+00  0.10566000000E+00 0.  1.
     999900   -1    0    0    0    0 -0.00000000000E+00 -0.00000000000E+00 -0.74505805969E-08  0.93827000000E+00  0.93827000000E+00 0. -1.
     999902    2    1    2    0    0  0.44082562246E-03  0.14576794137E-01  0.16672594787E-02  0.10292515461E+01  0.10291468739E+01 0.  0.
     999903    2    3    3    0    0  0.27896462247E-01 -0.69045774454E-01  0.10663019911E+00  0.13865412602E+00  0.48056588784E-01 0.  0.
         14    1    1    2    0    0 -0.44082562246E-03 -0.14576794137E-01 -0.16672594787E-02  0.14678453893E-01  0.00000000000E+00 0. -1.
     999901    1    3    3    0    0 -0.27455636624E-01  0.83622568591E-01 -0.10496293963E+00  0.89059742008E+00  0.88000000000E+00 0. -1.
        -11    1    4    4    0    0 -0.12482398402E-01 -0.25897250778E-01  0.26611060988E-01  0.39177641017E-01  0.51100000000E-03 0.  1.
         11    1    4    4    0    0  0.40378860649E-01 -0.43148523676E-01  0.80019138123E-01  0.99476485008E-01  0.51100000000E-03 0. -1.
</event>
<event>
 8    1  0.2922807E+004  0.1043930E+01  0.7957747E-01            NaN
         13   -1    0    0    0    0  0.00000000000E+00  0.00000000000E+00  0.74505805969E-08  0.10566000000E+00  0.10566000000E+00 0. -1.
     999900   -1    0    0    0    0 -0.00000000000E+00 -0.00000000000E+00 -0.74505805969E-08  0.93827000000E+00  0.93827000000E+00 0.  1.
     999902    2    1    2    0    0  0.60617893480E-02  0.57068744279E-02 -0.10773147986E-01  0.10303147724E+01  0.10302248084E+01 0.  0.
     999903    2    3    3    0    0  0.65354677262E-01 -0.84209151523E-01  0.77781630991E-01  0.13933638478E+00  0.44746295523E-01 0.  0.
         14    1    1    2    0    0 -0.60617893480E-02 -0.57068744279E-02  0.10773147986E-01  0.13615227628E-01  0.00000000000E+00 0. -1.
     999901    1    3    3    0    0 -0.59292887914E-01  0.89916025950E-01 -0.88554778977E-01  0.89097838759E+00  0.88000000000E+00 0. -1.
        -11    1    4    4    0    0  0.61700581079E-01 -0.47409246818E-01  0.44836422800E-01  0.89806259914E-01  0.51100000000E-03 0.  1.
         11    1    4    4    0    0  0.36540961833E-02 -0.36799904705E-01  0.32945208192E-01  0.49530124863E-01  0.51100000000E-03 0. -1.
</event>
<event>
 8    1  0.2922807E+004  0.1043930E+01  0.7957747E-01            NaN
         13   -1    0    0    0    0  0.00000000000E+00  0.00000000000E+00  0.74505805969E-08  0.10566000000E+00  0.10566000000E+00 0.  1.
     999900   -1    0    0    0    0 -0.00000000000E+00 -0.00000000000E+00 -0.74505805969E-08  0.93827000000E+00  0.93827000000E+00 0.  1.
     999902    2    1    2    0    0  0.59304387822E-02  0.98561137429E-02 -0.63033186551E-02  0.10308134109E+01  0.10307299565E+01 0.  0.
     999903    2    3    3    0    0 -0.16947783626E-01  0.12285342848E+00 -0.40879270252E-01  0.14262013095E+00  0.57351501792E-01 0.  0.
         14    1    1    2    0    0 -0.59304387822E-02 -0.98561137429E-02  0.63033186551E-02  0.13116589051E-01  0.00000000000E+00 0. -1.
     999901    1    3    3    0    0  0.22878222408E-01 -0.11299731474E+00  0.34575951597E-01  0.88819327999E+00  0.88000000000E+00 0. -1.
        -11    1    4    4    0    0 -0.24455035172E-01  0.53255626842E-01 -0.42834071950E-01  0.72589457750E-01  0.51100000000E-03 0. -1.
         11    1    4    4    0    0  0.75072515462E-02  0.69597801640E-01  0.19548016981E-02  0.70030673205E-01  0.51100000000E-03 0.  1.
</event>
<event>
 8    1  0.2922807E+004  0.1043930E+01  0.7957747E-01            NaN
         13   -1    0    0    0    0  0.00000000000E+00  0.00000000000E+00  0.74505805969E-08  0.10566000000E+00  0.10566000000E+00 0. -1.
     999900   -1    0    0    0    0 -0.00000000000E+00 -0.00000000000E+00 -0.74505805969E-08  0.93827000000E+00  0.93827000000E+00 0. -1.
     999902    2    1    2    0    0  0.10016547631E-02 -0.40483370125E-02  0.15520744227E-01  0.10278587261E+01  0.10277330757E+01 0.  0.
     999903    2    3    3    0    0  0.50609495590E-01  0.11623129156E+00  0.31175248146E-01  0.13815473572E+00  0.45208414318E-01 0.  0.
         14    1    1    2    0    0 -0.10016547631E-02  0.40483370125E-02 -0.15520744227E-01  0.16071273945E-01  0.00000000000E+00 0.  1.
     999901    1    3    3    0    0 -0.49607840827E-01 -0.12027962857E+00 -0.15654503919E-01  0.88970399033E+00  0.88000000000E+00 0. -1.
        -11    1    4    4    0    0 -0.43628487694E-02  0.38414617160E-01  0.15213022161E-01  0.41550143504E-01  0.51100000000E-03 0. -1.
         11    1    4    4    0    0  0.54972344360E-01  0.77816674396E-01  0.15962225985E-01  0.96604592220E-01  0.51100000000E-03 0.  1.
</event>
<event>
 8    1  0.2922807E+004  0.1043930E+01  0.7957747E-01            NaN
         13   -1    0    0    0    0  0.00000000000E+00  0.00000000000E+00  0.74505805969E-08  0.10566000000E+00  0.10566000000E+00 0.  1.
     999900   -1    0    0    0    0 -0.00000000000E+00 -0.00000000000E+00 -0.74505805969E-08  0.93827000000E+00  0.93827000000E+00 0.  1.
     999902    2    1    2    0    0 -0.13118064941E-01  0.34852306753E-03  0.69767160809E-03  0.10307887732E+01  0.10307050030E+01 0.  0.
     999903    2    3    3    0    0  0.11184486310E+00 -0.49886403214E-01 -0.50345835863E-01  0.13907989646E+00  0.42551002139E-01 0.  0.
         14    1    1    2    0    0  0.13118064941E-01 -0.34852306753E-03 -0.69767160809E-03  0.13141226799E-01  0.00000000000E+00 0.  1.
     999901    1    3    3    0    0 -0.12496292804E+00  0.50234926282E-01  0.51043507471E-01  0.89170887674E+00  0.88000000000E+00 0. -1.
        -11    1    4    4    0    0  0.62179355513E-01 -0.53446681073E-02 -0.18110388118E-01  0.64985267623E-01  0.51100000000E-03 0.  1.
         11    1    4    4    0    0  0.49665507587E-01 -0.44541735107E-01 -0.32235447745E-01  0.74094628837E-01  0.51100000000E-03 0. -1.
</event>
<event>
 8    1  0.2922807E+004  0.1043930E+01  0.7957747E-01            NaN
         13   -1    0    0    0    0  0.00000000000E+00  0.00000000000E+00  0.74505805969E-08  0.10566000000E+00  0.10566000000E+00 0.  1.
     999900   -1    0    0    0    0 -0.00000000000E+00 -0.00000000000E+00 -0.74505805969E-08  0.93827000000E+00  0.93827000000E+00 0.  1.
     999902    2    1    2    0    0  0.98974480819E-02 -0.79736116415E-02  0.49690403933E-02  0.10302834135E+01  0.10301930318E+01 0.  0.
     999903    2    3    3    0    0  0.11178131402E+00 -0.57744484517E-01  0.46432148617E-01  0.14203983694E+00  0.46796187832E-01 0.  0.
         14    1    1    2    0    0 -0.98974480819E-02  0.79736116415E-02 -0.49690403933E-02  0.13646586517E-01  0.00000000000E+00 0. -1.
     999901    1    3    3    0    0 -0.10188386594E+00  0.49770872876E-01 -0.41463108224E-01  0.88824357654E+00  0.88000000000E+00 0.  1.
        -11    1    4    4    0    0  0.97387501406E-01 -0.28687649022E-01  0.39068273611E-01  0.10878372011E+00  0.51100000000E-03 0.  1.
         11    1    4    4    0    0  0.14393812618E-01 -0.29056835495E-01  0.73638750069E-02  0.33256116833E-01  0.51100000000E-03 0. -1.
</event>
<event>
 8    1  0.2922807E+004  0.1043930E+01  0.7957747E-01            NaN
         13   -1    0    0    0    0  0.00000000000E+00  0.00000000000E+00  0.74505805969E-08  0.10566000000E+00  0.10566000000E+00 0. -1.
     999900   -1    0    0    0    0 -0.00000000000E+00 -0.00000000000E+00 -0.74505805969E-08  0.93827000000E+00  0.93827000000E+00 0.  1.
     999902    2    1    2    0    0 -0.46922123637E-02 -0.30046043428E-02  0.12922746391E-01  0.10298572647E+01  0.10297611101E+01 0.  0.
     999903    2    3    3    0    0  0.11683433197E+00 -0.29546183429E-02 -0.54375106490E-01  0.13896013009E+00  0.51906402821E-01 0.  0.
         14    1    1    2    0    0  0.46922123637E-02  0.30046043428E-02 -0.12922746391E-01  0.14072735285E-01  0.00000000000E+00 0.  1.
     999901    1    3    3    0    0 -0.12152654433E+00 -0.49985999809E-04  0.67297852880E-01  0.89089713462E+00  0.88000000000E+00 0.  1.
        -11    1    4    4    0    0  0.57569537359E-02  0.31176595135E-02  0.88375886062E-02  0.11010286578E-01  0.51100000000E-03 0. -1.
         11    1    4    4    0    0  0.11107737823E+00 -0.60722778565E-02 -0.63212695096E-01  0.12794984351E+00  0.51100000000E-03 0.  1.
</event>
<event>
 8    1  0.2922807E+004  0.1043930E+01  0.7957747E-01            NaN
         13   -1    0    0    0    0  0.00000000000E+00  0.00000000000E+00  0.74505805969E-08  0.10566000000E+00  0.10566000000E+00 0. -1.
     999900   -1    0    0    0    0 -0.00000000000E+00 -0.00000000000E+00 -0.74505805969E-08  0.93827000000E+00  0.93827000000E+00 0.  1.
     999902    2    1    2    0    0  0.18588022796E-03 -0.27282833553E-02  0.13043780907E-01  0.10306026484E+01  0.10305164727E+01 0.  0.
     999903    2    3    3    0    0 -0.11227343348E+00  0.22919720058E-01 -0.65711952328E-01  0.13958784330E+00  0.45122808920E-01 0.  0.
         14    1    1    2    0    0 -0.18588022796E-03  0.27282833553E-02 -0.13043780907E-01  0.13327351645E-01  0.00000000000E+00 0.  1.
     999901    1    3    3    0    0  0.11245931371E+00 -0.25648003413E-01  0.78755733234E-01  0.89101480506E+00  0.88000000000E+00 0. -1.
        -11    1    4    4    0    0 -0.63793045649E-01 -0.52352545289E-02 -0.50397608545E-01  0.81468648149E-01  0.51100000000E-03 0. -1.
         11    1    4    4    0    0 -0.48480387828E-01  0.28154974587E-01 -0.15314343782E-01  0.58119195146E-01  0.51100000000E-03 0.  1.
</event>
<event>
 8    1  0.2922807E+004  0.1043930E+01  0.7957747E-01            NaN
         13   -1    0    0    0    0  0.00000000000E+00  0.00000000000E+00  0.74505805969E-08  0.10566000000E+00  0.10566000000E+00 0. -1.
     999900   -1    0    0    0    0 -0.00000000000E+00 -0.00000000000E+00 -0.74505805969E-08  0.93827000000E+00  0.93827000000E+00 0.  1.
     999902    2    1    2    0    0 -0.79958878252E-03 -0.48922251253E-02  0.93268467745E-02  0.10333676480E+01  0.10333136662E+01 0.  0.
     999903    2    3    3    0    0  0.29234430707E-01 -0.10678077226E+00  0.80724434466E-01  0.14410900515E+00  0.44656307321E-01 0.  0.
         14    1    1    2    0    0  0.79958878252E-03  0.48922251253E-02 -0.93268467745E-02  0.10562351994E-01  0.00000000000E+00 0.  1.
     999901    1    3    3    0    0 -0.30034019490E-01  0.10188854713E+00 -0.71397587692E-01  0.88925864285E+00  0.88000000000E+00 0.  1.
        -11    1    4    4    0    0  0.14256331594E-01 -0.24272342991E-01  0.65225863737E-03  0.28161608390E-01  0.51100000000E-03 0.  1.
         11    1    4    4    0    0  0.14978099113E-01 -0.82508429264E-01  0.80072175829E-01  0.11594739676E+00  0.51100000000E-03 0. -1.
</event>
<event>
 8    1  0.2922807E+004  0.1043930E+01  0.7957747E-01            NaN
         13   -1    0    0    0    0  0.00000000000E+00  0.00000000000E+00  0.74505805969E-08  0.10566000000E+00  0.10566000000E+00 0. -1.
     999900   -1    0    0    0    0 -0.00000000000E+00 -0.00000000000E+00 -0.74505805969E-08  0.93827000000E+00  0.93827000000E+00 0.  1.
     999902    2    1    2    0    0 -0.15274474224E-01  0.23932380818E-02  0.51708666027E-03  0.10284605291E+01  0.10283441814E+01 0.  0.
     999903    2    3    3    0    0 -0.94255303388E-01 -0.39832119782E-01 -0.84483867566E-01  0.13984018585E+00  0.44125884872E-01 0.  0.
         14    1    1    2    0    0  0.15274474224E-01 -0.23932380818E-02 -0.51708666027E-03  0.15469470901E-01  0.00000000000E+00 0. -1.
     999901    1    3    3    0    0  0.78980829164E-01  0.42225357864E-01  0.85000954226E-01  0.88862034325E+00  0.88000000000E+00 0. -1.
        -11    1    4    4    0    0 -0.13307443080E-01 -0.25486511375E-01 -0.27681344634E-01  0.39914511961E-01  0.51100000000E-03 0. -1.
         11    1    4    4    0    0 -0.80947860308E-01 -0.14345608407E-01 -0.56802522932E-01  0.99925673886E-01  0.51100000000E-03 0.  1.
</event>
<event>
 8    1  0.2922807E+004  0.1043930E+01  0.7957747E-01            NaN
         13   -1    0    0    0    0  0.00000000000E+00  0.00000000000E+00  0.74505805969E-08  0.10566000000E+00  0.10566000000E+00 0. -1.
     999900   -1    0    0    0    0 -0.00000000000E+00 -0.00000000000E+00 -0.74505805969E-08  0.93827000000E+00  0.93827000000E+00 0. -1.
     999902    2    1    2    0    0 -0.14365207375E-01 -0.22994250353E-02  0.72988591503E-04  0.10293817401E+01  0.10292789296E+01 0.  0.
     999903    2    3    3    0    0  0.84969768511E-01  0.14697337919E-01  0.97960001769E-01  0.13823742254E+00  0.45580146362E-01 0.  0.
         14    1    1    2    0    0  0.14365207375E-01  0.22994250353E-02 -0.72988591503E-04  0.14548259887E-01  0.00000000000E+00 0.  1.
     999901    1    3    3    0    0 -0.99334975886E-01 -0.16996762955E-01 -0.97887013177E-01  0.89114431757E+00  0.88000000000E+00 0. -1.
        -11    1    4    4    0    0  0.59479098287E-01 -0.70683432602E-02  0.42544420397E-01  0.73471174194E-01  0.51100000000E-03 0. -1.
         11    1    4    4    0    0  0.25490670225E-01  0.21765681180E-01  0.55415581372E-01  0.64766248351E-01  0.51100000000E-03 0.  1.
</event>
<event>
 8    1  0.2922807E+004  0.1043930E+01  0.7957747E-01            NaN
         13   -1    0    0    0    0  0.00000000000E+00  0.00000000000E+00  0.74505805969E-08  0.10566000000E+00  0.10566000000E+00 0. -1.
     999900   -1    0    0    0    0 -0.00000000000E+00 -0.00000000000E+00 -0.74505805969E-08  0.93827000000E+00  0.93827000000E+00 0. -1.
     999902    2    1    2    0    0 -0.92696747352E-03 -0.46517189264E-02 -0.71881684141E-02  0.10353179432E+01  0.10352821238E+01 0.  0.
     999903    2    3    3    0    0  0.49102146612E-01  0.11716123894E+00 -0.54573378915E-01  0.14425864821E+00  0.41164635128E-01 0.  0.
         14    1    1    2    0    0  0.92696747352E-03  0.46517189264E-02  0.71881684141E-02  0.86120568284E-02  0.00000000000E+00 0. -1.
     999901    1    3    3    0    0 -0.50029114085E-01 -0.12181295787E+00  0.47385210501E-01  0.89105929496E+00  0.88000000000E+00 0. -1.
        -11    1    4    4    0    0  0.47136024918E-01  0.60117111318E-01 -0.33419594590E-01  0.83384664908E-01  0.51100000000E-03 0. -1.
         11    1    4    4    0    0  0.19661216941E-02  0.57044127625E-01 -0.21153784325E-01  0.60873983304E-01  0.51100000000E-03 0.  1.
</event>
<event>
 7    1  0.2922807E+004  0.1043930E+01  0.7957747E-01            NaN
         13   -1    0    0    0    0  0.00000000000E+00  0.00000000000E+00  0.74505805969E-08  0.10566000000E+00  0.10566000000E+00 0.  1.
     999900   -1    0    0    0    0 -0.00000000000E+00 -0.00000000000E+00 -0.74505805969E-08  0.93827000000E+00  0.93827000000E+00 0.  1.
     999902    2    1    2    0    0  0.54828132918E-02 -0.12363863985E-01 -0.49077222995E-02  0.10295420845E+01  0.10294415436E+01 0.  0.
         14    1    1    2    0    0 -0.54828132918E-02  0.12363863985E-01  0.49077222995E-02  0.14387915499E-01  0.00000000000E+00 0.  1.
     999901    1    3    3    0    0 -0.26088469758E-01  0.99820891987E-01  0.73127321527E-01  0.88904017001E+00  0.88000000000E+00 0. -1.
        -11    1    3    3    0    0  0.28549249079E-01 -0.10695735123E+00 -0.75066729757E-01  0.13375428831E+00  0.51100000000E-03 0. -1.
         11    1    3    3    0    0  0.30220339706E-02 -0.52274047453E-02 -0.29683140701E-02  0.67476261833E-02  0.51100000000E-03 0.  1.
</event>
<event>
 8    1  0.2922807E+004  0.1043930E+01  0.7957747E-01            NaN
         13   -1    0    0    0    0  0.00000000000E+00  0.00000000000E+00  0.74505805969E-08  0.10566000000E+00  0.10566000000E+00 0. -1.
     999900   -1    0    0    0    0 -0.00000000000E+00 -0.00000000000E+00 -0.74505805969E-08  0.93827000000E+00  0.93827000000E+00 0.  1.
     999902    2    1    2    0    0  0.83043044643E-02 -0.11018288333E-01  0.43790562848E-02  0.10294544936E+01  0.10293527161E+01 0.  0.
     999903    2    3    3    0    0  0.21608723514E-01 -0.12004686740E+00 -0.53703567422E-01  0.14072628446E+00  0.45184363214E-01 0.  0.
         14    1    1    2    0    0 -0.83043044643E-02  0.11018288333E-01 -0.43790562848E-02  0.14475506360E-01  0.00000000000E+00 0.  1.
     999901    1    3    3    0    0 -0.13304419050E-01  0.10902857907E+00  0.58082623707E-01  0.88872820918E+00  0.88000000000E+00 0. -1.
        -11    1    4    4    0    0  0.14196072127E-01 -0.74103316589E-01 -0.86428123812E-02  0.75945963159E-01  0.51100000000E-03 0. -1.
         11    1    4    4    0    0  0.74126513872E-02 -0.45943550811E-01 -0.45060755041E-01  0.64780321299E-01  0.51100000000E-03 0.  1.
</event>
<event>
 8    1  0.2922807E+004  0.1043930E+01  0.7957747E-01            NaN
         13   -1    0    0    0    0  0.00000000000E+00  0.00000000000E+00  0.74505805969E-08  0.10566000000E+00  0.10566000000E+00 0. -1.
     999900   -1    0    0    0    0 -0.00000000000E+00 -0.00000000000E+00 -0.74505805969E-08  0.93827000000E+00  0.93827000000E+00 0.  1.
     999902    2    1    2    0    0  0.74249337923E-02  0.10960504603E-01  0.41324385113E-02  0.10300613537E+01  0.10299679864E+01 0.  0.
     999903    2    3    3    0    0  0.92610099647E-01 -0.65525001363E-01 -0.67452552793E-01  0.13976311371E+00  0.45975261979E-01 0.  0.
         14    1    1    2    0    0 -0.74249337923E-02 -0.10960504603E-01 -0.41324385113E-02  0.13868646330E-01  0.00000000000E+00 0. -1.
     999901    1    3    3    0    0 -0.85185165855E-01  0.76485505966E-01  0.71584991305E-01  0.89029823996E+00  0.88000000000E+00 0. -1.
        -11    1    4    4    0    0  0.54757143499E-01 -0.28068672084E-01 -0.11650907003E-01  0.62627468987E-01  0.51100000000E-03 0. -1.
         11    1    4    4    0    0  0.37852956149E-01 -0.37456329279E-01 -0.55801645790E-01  0.77135644718E-01  0.51100000000E-03 0.  1.
</event>
<event>
 8    1  0.2922807E+004  0.1043930E+01  0.7957747E-01            NaN
         13   -1    0    0    0    0  0.00000000000E+00  0.00000000000E+00  0.74505805969E-08  0.10566000000E+00  0.10566000000E+00 0. -1.
     999900   -1    0    0    0    0 -0.00000000000E+00 -0.00000000000E+00 -0.74505805969E-08  0.93827000000E+00  0.93827000000E+00 0. -1.
     999902    2    1    2    0    0 -0.52935340801E-02  0.74408429948E-04 -0.12870218460E-01  0.10300134788E+01  0.10299194614E+01 0.  0.
     999903    2    3    3    0    0 -0.11175645953E+00 -0.71167700130E-01  0.90610472088E-02  0.14046821690E+00  0.45769745394E-01 0.  0.
         14    1    1    2    0    0  0.52935340801E-02 -0.74408429948E-04  0.12870218460E-01  0.13916521221E-01  0.00000000000E+00 0. -1.
     999901    1    3    3    0    0  0.10646292545E+00  0.71242108560E-01 -0.21931265669E-01  0.88954526188E+00  0.88000000000E+00 0. -1.
        -11    1    4    4    0    0 -0.64052578033E-01 -0.66149409372E-01  0.31314742593E-02  0.92133296723E-01  0.51100000000E-03 0. -1.
         11    1    4    4    0    0 -0.47703881494E-01 -0.50182907576E-02  0.59295729495E-02  0.48334920173E-01  0.51100000000E-03 0.  1.
</event>
<event>
 8    1  0.2922807E+004  0.1043930E+01  0.7957747E-01            NaN
         13   -1    0    0    0    0  0.00000000000E+00  0.00000000000E+00  0.74505805969E-08  0.10566000000E+00  0.10566000000E+00 0.  1.
     999900   -1    0    0    0    0 -0.00000000000E+00 -0.00000000000E+00 -0.74505805969E-08  0.93827000000E+00  0.93827000000E+00 0. -1.
     999902    2    1    2    0    0 -0.84533499698E-02  0.68064248132E-03  0.11079498096E-01  0.10299773057E+01  0.10298827956E+01 0.  0.
     999903    2    3    3    0    0 -0.27943102849E-02 -0.71646826924E-01 -0.10975517819E+00  0.13876223259E+00  0.45471772289E-01 0.  0.
         14    1    1    2    0    0  0.84533499698E-02 -0.68064248132E-03 -0.11079498096E-01  0.13952694290E-01  0.00000000000E+00 0. -1.
     999901    1    3    3    0    0 -0.56590396850E-02  0.72327469405E-01  0.12083467629E+00  0.89121507312E+00  0.88000000000E+00 0.  1.
        -11    1    4    4    0    0 -0.13951574396E-02 -0.61850895937E-01 -0.53959750239E-01  0.82093821688E-01  0.51100000000E-03 0. -1.
         11    1    4    4    0    0 -0.13991528452E-02 -0.97959309861E-02 -0.55795427954E-01  0.56668410902E-01  0.51100000000E-03 0.  1.
</event>
<event>
 8    1  0.2922807E+004  0.1043930E+01  0.7957747E-01            NaN
         13   -1    0    0    0    0  0.00000000000E+00  0.00000000000E+00  0.74505805969E-08  0.10566000000E+00  0.10566000000E+00 0.  1.
     999900   -1    0    0    0    0 -0.00000000000E+00 -0.00000000000E+00 -0.74505805969E-08  0.93827000000E+00  0.93827000000E+00 0.  1.
     999902    2    1    2    0    0  0.40981283319E-02  0.11495774199E-01 -0.65026690088E-02  0.10301013274E+01  0.10300085012E+01 0.  0.
     999903    2    3    3    0    0  0.42080182896E-01 -0.11835088201E+00  0.37786346389E-01  0.13866186934E+00  0.44962572990E-01 0.  0.
         14    1    1    2    0    0 -0.40981283319E-02 -0.11495774199E-01  0.65026690088E-02  0.13828672550E-01  0.00000000000E+00 0.  1.
     999901    1    3    3    0    0 -0.37982054564E-01  0.12984665621E+00 -0.44289015398E-01  0.89143945811E+00  0.88000000000E+00 0. -1.
        -11    1    4    4    0    0  0.10246731476E-01 -0.29395735108E-01  0.31002508991E-01  0.43937699454E-01  0.51100000000E-03 0. -1.
         11    1    4    4    0    0  0.31833451420E-01 -0.88955146899E-01  0.67838373978E-02  0.94724169882E-01  0.51100000000E-03 0.  1.
</event>
<event>
 8    1  0.2922807E+004  0.1043930E+01  0.7957747E-01            NaN
         13   -1    0    0    0    0  0.00000000000E+00  0.00000000000E+00  0.74505805969E-08  0.10566000000E+00  0.10566000000E+00 0. -1.
     999900   -1    0    0    0    0 -0.00000000000E+00 -0.00000000000E+00 -0.74505805969E-08  0.93827000000E+00  0.93827000000E+00 0. -1.
     999902    2    1    2    0    0 -0.13709541201E-01  0.12142075180E-01  0.20235886326E-01  0.10166376457E+01  0.10162712384E+01 0.  0.
     999903    2    3    3    0    0 -0.36930174970E-02  0.63522943934E-01 -0.99604577057E-01  0.12697362983E+00  0.46394268138E-01 0.  0.
         14    1    1    2    0    0  0.13709541201E-01 -0.12142075180E-01 -0.20235886326E-01  0.27292354332E-01  0.00000000000E+00 0.  1.
     999901    1    3    3    0    0 -0.10016523704E-01 -0.51380868753E-01  0.11984046338E+00  0.88966401584E+00  0.88000000000E+00 0.  1.
        -11    1    4    4    0    0  0.10491950526E-01  0.60184709344E-01 -0.63901913257E-01  0.88408121253E-01  0.51100000000E-03 0. -1.
         11    1    4    4    0    0 -0.14184968023E-01  0.33382345896E-02 -0.35702663800E-01  0.38565508572E-01  0.51100000000E-03 0.  1.
</event>
<event>
 8    1  0.2922807E+004  0.1043930E+01  0.7957747E-01            NaN
         13   -1    0    0    0    0  0.00000000000E+00  0.00000000000E+00  0.74505805969E-08  0.10566000000E+00  0.10566000000E+00 0.  1.
     999900   -1    0    0    0    0 -0.00000000000E+00 -0.00000000000E+00 -0.74505805969E-08  0.93827000000E+00  0.93827000000E+00 0.  1.
     999902    2    1    2    0    0 -0.34389106438E-02 -0.12626087375E-01 -0.64264780973E-02  0.10293511177E+01  0.10292478709E+01 0.  0.
     999903    2    3    3    0    0 -0.70876414920E-01  0.82207903142E-01 -0.74520220709E-01  0.13908258487E+00  0.44822947117E-01 0.  0.
         14    1    1    2    0    0  0.34389106438E-02  0.12626087375E-01  0.64264780973E-02  0.14578882315E-01  0.00000000000E+00 0.  1.
     999901    1    3    3    0    0  0.67437504276E-01 -0.94833990517E-01  0.68093742612E-01  0.89026853282E+00  0.88000000000E+00 0.  1.
        -11    1    4    4    0    0 -0.30453115717E-03  0.27747739250E-01 -0.12212309329E-01  0.30322127116E-01  0.51100000000E-03 0.  1.
         11    1    4    4    0    0 -0.70571883763E-01  0.54460163892E-01 -0.62307911380E-01  0.10876045775E+00  0.51100000000E-03 0. -1.
</event>
<event>
 8    1  0.2922807E+004  0.1043930E+01  0.7957747E-01            NaN
         13   -1    0    0    0    0  0.00000000000E+00  0.00000000000E+00  0.74505805969E-08  0.10566000000E+00  0.10566000000E+00 0. -1.
     999900   -1    0    0    0    0 -0.00000000000E+00 -0.00000000000E+00 -0.74505805969E-08  0.93827000000E+00  0.93827000000E+00 0.  1.
     999902    2    1    2    0    0  0.13268992187E-01  0.53000130569E-02  0.51103811149E-02  0.10287552747E+01  0.10286433507E+01 0.  0.
     999903    2    3    3    0    0  0.11224831012E+00  0.66061518673E-01  0.27687637019E-01  0.14083714875E+00  0.45876898868E-01 0.  0.
         14    1    1    2    0    0 -0.13268992187E-01 -0.53000130569E-02 -0.51103811149E-02  0.15174725276E-01  0.00000000000E+00 0.  1.
     999901    1    3    3    0    0 -0.98979317938E-01 -0.60761505616E-01 -0.22577255905E-01  0.88791812597E+00  0.88000000000E+00 0. -1.
        -11    1    4    4    0    0  0.99428509476E-01  0.36595386630E-01  0.21191701077E-01  0.10804906355E+00  0.51100000000E-03 0.  1.
         11    1    4    4    0    0  0.12819800648E-01  0.29466132043E-01  0.64959359420E-02  0.32788085199E-01  0.51100000000E-03 0. -1.
</event>
<event>
 8    1  0.2922807E+004  0.1043930E+01  0.7957747E-01            NaN
         13   -1    0    0    0    0  0.00000000000E+00  0.00000000000E+00  0.74505805969E-08  0.10566000000E+00  0.10566000000E+00 0. -1.
     999900   -1    0    0    0    0 -0.00000000000E+00 -0.00000000000E+00 -0.74505805969E-08  0.93827000000E+00  0.93827000000E+00 0.  1.
     999902    2    1    2    0    0 -0.91297779471E-02 -0.53244208523E-02 -0.10070631143E-01  0.10293313729E+01  0.10292278442E+01 0.  0.
     999903    2    3    3    0    0 -0.12009148248E+00 -0.58310081916E-01 -0.57047687021E-02  0.14077127872E+00  0.44294228834E-01 0.  0.
         14    1    1    2    0    0  0.91297779471E-02  0.53244208523E-02  0.10070631143E-01  0.14598627140E-01  0.00000000000E+00 0.  1.
     999901    1    3    3    0    0  0.11096170453E+00  0.52985661063E-01 -0.43658624406E-02  0.88856009414E+00  0.88000000000E+00 0.  1.
        -11    1    4    4    0    0 -0.54462551280E-01 -0.13922805746E-01  0.16316506295E-01  0.58536343501E-01  0.51100000000E-03 0. -1.
         11    1    4    4    0    0 -0.65628931200E-01 -0.44387276170E-01 -0.22021274997E-01  0.82234935214E-01  0.51100000000E-03 0.  1.
</event>
<event>
 8    1  0.2922807E+004  0.1043930E+01  0.7957747E-01            NaN
         13   -1    0    0    0    0  0.00000000000E+00  0.00000000000E+00  0.74505805969E-08  0.10566000000E+00  0.10566000000E+00 0.  1.
     999900   -1    0    0    0    0 -0.00000000000E+00 -0.00000000000E+00 -0.74505805969E-08  0.93827000000E+00  0.93827000000E+00 0.  1.
     999902    2    1    2    0    0 -0.51618428912E-02 -0.12597415261E-01  0.20230868353E-02  0.10301665566E+01  0.10300746099E+01 0.  0.
     999903    2    3    3    0    0 -0.12702524463E+00 -0.30754315408E-01  0.37055981660E-01  0.14089288366E+00  0.37368679371E-01 0.  0.
         14    1    1    2    0    0  0.51618428912E-02  0.12597415261E-01 -0.20230868353E-02  0.13763443378E-01  0.00000000000E+00 0. -1.
     999901    1    3    3    0    0  0.12186340174E+00  0.18156900148E-01 -0.35032894825E-01  0.88927367296E+00  0.88000000000E+00 0.  1.
        -11    1    4    4    0    0 -0.95213822749E-01 -0.93410984427E-02  0.15561395345E-01  0.96929594597E-01  0.51100000000E-03 0. -1.
         11    1    4    4    0    0 -0.31811421885E-01 -0.21413216966E-01  0.21494586315E-01  0.43963289060E-01  0.51100000000E-03 0.  1.
</event>
<event>
 8    1  0.2922807E+004  0.1043930E+01  0.7957747E-01            NaN
         13   -1    0    0    0    0  0.00000000000E+00  0.00000000000E+00  0.74505805969E-08  0.10566000000E+00  0.10566000000E+00 0.  1.
     999900   -1    0    0    0    0 -0.00000000000E+00 -0.00000000000E+00 -0.74505805969E-08  0.93827000000E+00  0.93827000000E+00 0.  1.
     999902    2    1    2    0    0  0.77504786454E-02 -0.30901455388E-02  0.11166440311E-01  0.10299905485E+01  0.10298962189E+01 0.  0.
     999903    2    3    3    0    0  0.10272901407E+00 -0.71722456958E-01 -0.46035652675E-01  0.14038198526E+00  0.43479412434E-01 0.  0.
         14    1    1    2    0    0 -0.77504786454E-02  0.30901455388E-02 -0.11166440311E-01  0.13939451492E-01  0.00000000000E+00 0. -1.
     999901    1    3    3    0    0 -0.94978535420E-01  0.68632311419E-01  0.57202092986E-01  0.88960856325E+00  0.88000000000E+00 0. -1.
        -11    1    4    4    0    0  0.27945715686E-01 -0.13010296477E-01  0.68542642789E-02  0.31582794358E-01  0.51100000000E-03 0.  1.
         11    1    4    4    0    0  0.74783298379E-01 -0.58712160481E-01 -0.52889916954E-01  0.10879919090E+00  0.51100000000E-03 0. -1.
</event>
<event>
 8    1  0.2922807E+004  0.1043930E+01  0.7957747E-01            NaN
         13   -1    0    0    0    0  0.00000000000E+00  0.00000000000E+00  0.74505805969E-08  0.10566000000E+00  0.10566000000E+00 0. -1.
     999900   -1    0    0    0    0 -0.00000000000E+00 -0.00000000000E+00 -0.74505805969E-08  0.93827000000E+00  0.93827000000E+00 0. -1.
     999902    2    1    2    0    0  0.63914334022E-02  0.83642832792E-03  0.12852733146E-01  0.10295514471E+01  0.10294510379E+01 0.  0.
     999903    2    3    3    0    0 -0.23430114964E-01 -0.73409203177E-01  0.10892813783E+00  0.14071387933E+00  0.44689766471E-01 0.  0.
         14    1    1    2    0    0 -0.63914334022E-02 -0.83642832792E-03 -0.12852733146E-01  0.14378552869E-01  0.00000000000E+00 0.  1.
     999901    1    3    3    0    0  0.29821548367E-01  0.74245631505E-01 -0.96075404684E-01  0.88883756780E+00  0.88000000000E+00 0.  1.
        -11    1    4    4    0    0 -0.35121394940E-01 -0.43839597025E-01  0.79795848029E-01  0.97586172861E-01  0.51100000000E-03 0.  1.
         11    1    4    4    0    0  0.11691279976E-01 -0.29569606152E-01  0.29132289801E-01  0.43127706471E-01  0.51100000000E-03 0. -1.
</event>
<event>
 8    1  0.2922807E+004  0.1043930E+01  0.7957747E-01            NaN
         13   -1    0    0    0    0  0.00000000000E+00  0.00000000000E+00  0.74505805969E-08  0.10566000000E+00  0.10566000000E+00 0. -1.
     999900   -1    0    0    0    0 -0.00000000000E+00 -0.00000000000E+00 -0.74505805969E-08  0.93827000000E+00  0.93827000000E+00 0. -1.
     999902    2    1    2    0    0  0.10505251828E-01 -0.67022139875E-02  0.72990326277E-02  0.10294885366E+01  0.10293872406E+01 0.  0.
     999903    2    3    3    0    0 -0.13896519406E-01 -0.11849917569E+00 -0.57282150152E-01  0.13973310038E+00  0.44821052267E-01 0.  0.
         14    1    1    2    0    0 -0.10505251828E-01  0.67022139875E-02 -0.72990326277E-02  0.14441463416E-01  0.00000000000E+00 0. -1.
     999901    1    3    3    0    0  0.24401771233E-01  0.11179696170E+00  0.64581182779E-01  0.88975543620E+00  0.88000000000E+00 0. -1.
        -11    1    4    4    0    0  0.48522055210E-02 -0.44784034658E-01 -0.91168489761E-03  0.45058250621E-01  0.51100000000E-03 0. -1.
         11    1    4    4    0    0 -0.18748724927E-01 -0.73715141027E-01 -0.56370465254E-01  0.94674849759E-01  0.51100000000E-03 0.  1.
</event>
<event>
 8    1  0.2922807E+004  0.1043930E+01  0.7957747E-01            NaN
         13   -1    0    0    0    0  0.00000000000E+00  0.00000000000E+00  0.74505805969E-08  0.10566000000E+00  0.10566000000E+00 0.  1.
     999900   -1    0    0    0    0 -0.00000000000E+00 -0.00000000000E+00 -0.74505805969E-08  0.93827000000E+00  0.93827000000E+00 0. -1.
     999902    2    1    2    0    0  0.53246684797E-02 -0.47348545432E-02  0.12637761471E-01  0.10294219348E+01  0.10293196956E+01 0.  0.
     999903    2    3    3    0    0 -0.21681729103E-01  0.76497212237E-01 -0.10299900602E+00  0.13773821495E+00  0.45178532073E-01 0.  0.
         14    1    1    2    0    0 -0.53246684797E-02  0.47348545432E-02 -0.12637761471E-01  0.14508065238E-01  0.00000000000E+00 0. -1.
     999901    1    3    3    0    0  0.27006397583E-01 -0.81232066781E-01  0.11563676749E+00  0.89168371981E+00  0.88000000000E+00 0.  1.
        -11    1    4    4    0    0 -0.91414355268E-02  0.78117795460E-01 -0.91265106307E-01  0.12048044058E+00  0.51100000000E-03 0.  1.
         11    1    4    4    0    0 -0.12540293576E-01 -0.16205832228E-02 -0.11733899708E-01  0.17257774373E-01  0.51100000000E-03 0. -1.
</event>
<event>
 8    1  0.2922807E+004  0.1043930E+01  0.7957747E-01            NaN
         13   -1    0    0    0    0  0.00000000000E+00  0.00000000000E+00  0.74505805969E-08  0.10566000000E+00  0.10566000000E+00 0. -1.
     999900   -1    0    0    0    0 -0.00000000000E+00 -0.00000000000E+00 -0.74505805969E-08  0.93827000000E+00  0.93827000000E+00 0.  1.
     999902    2    1    2    0    0 -0.10981463507E-02 -0.12628731793E-01 -0.80793995476E-02  0.10288977850E+01  0.10287879686E+01 0.  0.
     999903    2    3    3    0    0  0.21435106851E-01 -0.98071323333E-01  0.85737427471E-01  0.13951047845E+00  0.45108966523E-01 0.  0.
         14    1    1    2    0    0  0.10981463507E-02  0.12628731793E-01  0.80793995476E-02  0.15032215045E-01  0.00000000000E+00 0.  1.
     999901    1    3    3    0    0 -0.22533253202E-01  0.85442591540E-01 -0.93816827018E-01  0.88938730651E+00  0.88000000000E+00 0.  1.
        -11    1    4    4    0    0  0.71436727468E-02 -0.94653424355E-01  0.69784908149E-01  0.11781552244E+00  0.51100000000E-03 0. -1.
         11    1    4    4    0    0  0.14291434104E-01 -0.34178989777E-02  0.15952519321E-01  0.21694956001E-01  0.51100000000E-03 0.  1.
</event>
<event>
 8    1  0.2922807E+004  0.1043930E+01  0.7957747E-01            NaN
         13   -1    0    0    0    0  0.00000000000E+00  0.00000000000E+00  0.74505805969E-08  0.10566000000E+00  0.10566000000E+00 0. -1.
     999900   -1    0    0    0    0 -0.00000000000E+00 -0.00000000000E+00 -0.74505805969E-08  0.93827000000E+00  0.93827000000E+00 0.  1.
     999902    2    1    2    0    0 -0.28335067640E-02 -0.11012264921E-01  0.76988340161E-02  0.10301978922E+01  0.10301063665E+01 0.  0.
     999903    2    3    3    0    0 -0.47356667978E-02 -0.34768829591E-01  0.12940880940E+00  0.14150148134E+00  0.45218704306E-01 0.  0.
         14    1    1    2    0    0  0.28335067640E-02  0.11012264921E-01 -0.76988340161E-02  0.13732107795E-01  0.00000000000E+00 0.  1.
     999901    1    3    3    0    0  0.19021600338E-02  0.23756564670E-01 -0.12170997539E+00  0.88869641087E+00  0.88000000000E+00 0.  1.
        -11    1    4    4    0    0  0.10965081347E-01 -0.12393914894E-02  0.74250681752E-01  0.75067928984E-01  0.51100000000E-03 0.  1.
         11    1    4    4    0    0 -0.15700748145E-01 -0.33529438102E-01  0.55158127650E-01  0.66433552356E-01  0.51100000000E-03 0. -1.
</event>
<event>
 8    1  0.2922807E+004  0.1043930E+01  0.7957747E-01            NaN
         13   -1    0    0    0    0  0.00000000000E+00  0.00000000000E+00  0.74505805969E-08  0.10566000000E+00  0.10566000000E+00 0. -1.
     999900   -1    0    0    0    0 -0.00000000000E+00 -0.00000000000E+00 -0.74505805969E-08  0.93827000000E+00  0.93827000000E+00 0. -1.
     999902    2    1    2    0    0  0.49579797876E-02 -0.12136193679E-01  0.54559291579E-02  0.10297301435E+01  0.10296322317E+01 0.  0.
     999903    2    3    3    0    0  0.75860306491E-01  0.88913412894E-01 -0.59372427333E-01  0.13875265857E+00  0.45462446461E-01 0.  0.
         14    1    1    2    0    0 -0.49579797876E-02  0.12136193679E-01 -0.54559291579E-02  0.14199856463E-01  0.00000000000E+00 0. -1.
     999901    1    3    3    0    0 -0.70902326704E-01 -0.10104960657E+00  0.64828356491E-01  0.89097748497E+00  0.88000000000E+00 0.  1.
        -11    1    4    4    0    0  0.20220316996E-01  0.63636730731E-02  0.27900438514E-02  0.21386982492E-01  0.51100000000E-03 0.  1.
         11    1    4    4    0    0  0.55639989495E-01  0.82549739821E-01 -0.62162471184E-01  0.11736567607E+00  0.51100000000E-03 0. -1.
</event>
<event>
 8    1  0.2922807E+004  0.1043930E+01  0.7957747E-01            NaN
         13   -1    0    0    0    0  0.00000000000E+00  0.00000000000E+00  0.74505805969E-08  0.10566000000E+00  0.10566000000E+00 0. -1.
     999900   -1    0    0    0    0 -0.00000000000E+00 -0.00000000000E+00 -0.74505805969E-08  0.93827000000E+00  0.93827000000E+00 0.  1.
     999902    2    1    2    0    0  0.97228999287E-02  0.50581897110E-02  0.92897616698E-02  0.10295626851E+01  0.10294624339E+01 0.  0.
     999903    2    3    3    0    0 -0.10450531803E+00  0.17921591028E-01  0.78648513493E-01  0.13938057487E+00  0.44708064772E-01 0.  0.
         14    1    1    2    0    0 -0.97228999287E-02 -0.50581897110E-02 -0.92897616698E-02  0.14367314922E-01  0.00000000000E+00 0.  1.
     999901    1    3    3    0    0  0.11422821796E+00 -0.12863401317E-01 -0.69358751823E-01  0.89018211020E+00  0.88000000000E+00 0.  1.
        -11    1    4    4    0    0 -0.50734917532E-01  0.29558385275E-01  0.51149805165E-01  0.77873575020E-01  0.51100000000E-03 0.  1.
         11    1    4    4    0    0 -0.53770400502E-01 -0.11636794247E-01  0.27498708328E-01  0.61506999855E-01  0.51100000000E-03 0. -1.
</event>
<event>
 8    1  0.2922807E+004  0.1043930E+01  0.7957747E-01            NaN
         13   -1    0    0    0    0  0.00000000000E+00  0.00000000000E+00  0.74505805969E-08  0.10566000000E+00  0.10566000000E+00 0. -1.
     999900   -1    0    0    0    0 -0.00000000000E+00 -0.00000000000E+00 -0.74505805969E-08  0.93827000000E+00  0.93827000000E+00 0.  1.
     999902    2    1    2    0    0 -0.97022872690E-03 -0.13588628081E-01  0.99743499212E-04  0.10303064136E+01  0.10302163384E+01 0.  0.
     999903    2    3    3    0    0 -0.36214911275E-01  0.11036432039E+00  0.61238767248E-01  0.13882197669E+00  0.45050544760E-01 0.  0.
         14    1    1    2    0    0  0.97022872690E-03  0.13588628081E-01 -0.99743499212E-04  0.13623586373E-01  0.00000000000E+00 0.  1.
     999901    1    3    3    0    0  0.35244682548E-01 -0.12395294847E+00 -0.61139023748E-01  0.89148443694E+00  0.88000000000E+00 0.  1.
        -11    1    4    4    0    0 -0.32946772559E-01  0.71555465811E-01  0.61388147562E-01  0.99872119691E-01  0.51100000000E-03 0.  1.
         11    1    4    4    0    0 -0.32681387153E-02  0.38808854580E-01 -0.14938031467E-03  0.38949856995E-01  0.51100000000E-03 0. -1.
</event>
<event>
 7    1  0.2922807E+004  0.1043930E+01  0.7957747E-01            NaN
         13   -1    0    0    0    0  0.00000000000E+00  0.00000000000E+00  0.74505805969E-08  0.10566000000E+00  0.10566000000E+00 0. -1.
     999900   -1    0    0    0    0 -0.00000000000E+00 -0.00000000000E+00 -0.74505805969E-08  0.93827000000E+00  0.93827000000E+00 0. -1.
     999903    2    1    2    0    0 -0.41278296132E-01 -0.62608771045E-01 -0.51990262280E-01  0.10194181456E+00  0.45446564674E-01 0.  0.
         14    1    1    2    0    0  0.19943247638E-01 -0.43217691251E-01  0.27673940929E-01  0.55057687655E-01  0.00000000000E+00 0. -1.
     999901    1    1    2    0    0  0.21335048493E-01  0.10582646230E+00  0.24316321352E-01  0.88693049778E+00  0.88000000000E+00 0. -1.
        -11    1    3    3    0    0 -0.23876846579E-01 -0.10763047851E-01 -0.36817614738E-01  0.45185671153E-01  0.51100000000E-03 0. -1.
         11    1    3    3    0    0 -0.17401449552E-01 -0.51845723194E-01 -0.15172647543E-01  0.56756143407E-01  0.51100000000E-03 0.  1.
</event>
<event>
 8    1  0.2922807E+004  0.1043930E+01  0.7957747E-01            NaN
         13   -1    0    0    0    0  0.00000000000E+00  0.00000000000E+00  0.74505805969E-08  0.10566000000E+00  0.10566000000E+00 0.  1.
     999900   -1    0    0    0    0 -0.00000000000E+00 -0.00000000000E+00 -0.74505805969E-08  0.93827000000E+00  0.93827000000E+00 0. -1.
     999902    2    1    2    0    0 -0.11765243805E-01  0.13990746973E-01 -0.69917891530E-02  0.10243584115E+01  0.10241714251E+01 0.  0.
     999903    2    3    3    0    0 -0.82548298733E-01 -0.88981395685E-01  0.34311190626E-01  0.13457223536E+00  0.46909682646E-01 0.  0.
         14    1    1    2    0    0  0.11765243805E-01 -0.13990746973E-01  0.69917891530E-02  0.19571588546E-01  0.00000000000E+00 0. -1.
     999901    1    3    3    0    0  0.70783054928E-01  0.10297214266E+00 -0.41302979779E-01  0.88978617609E+00  0.88000000000E+00 0. -1.
        -11    1    4    4    0    0 -0.69367785008E-01 -0.41810562102E-01  0.24489653273E-01  0.84616883295E-01  0.51100000000E-03 0.  1.
         11    1    4    4    0    0 -0.13180513725E-01 -0.47170833583E-01  0.98215373530E-02  0.49955352065E-01  0.51100000000E-03 0. -1.
</event>
<event>
 8    1  0.2922807E+004  0.1043930E+01  0.7957747E-01            NaN
         13   -1    0    0    0    0  0.00000000000E+00  0.00000000000E+00  0.74505805969E-08  0.10566000000E+00  0.10566000000E+00 0.  1.
     999900   -1    0    0    0    0 -0.00000000000E+00 -0.00000000000E+00 -0.74505805969E-08  0.93827000000E+00  0.93827000000E+00 0. -1.
     999902    2    1    2    0    0  0.75797341688E-02 -0.11978189187E-01  0.31011567363E-02  0.10294197774E+01  0.10293175077E+01 0.  0.
     999903    2    3    3    0    0  0.95059558781E-01 -0.59494821440E-01 -0.75246153898E-01  0.14034787305E+00  0.38204558618E-01 0.  0.
         14    1    1    2    0    0 -0.75797341688E-02  0.11978189187E-01 -0.31011567363E-02  0.14510222582E-01  0.00000000000E+00 0. -1.
     999901    1    3    3    0    0 -0.87479824612E-01  0.47516632253E-01  0.78347310634E-01  0.88907190437E+00  0.88000000000E+00 0.  1.
        -11    1    4    4    0    0  0.60640219794E-01 -0.15482627890E-01 -0.40617922550E-01  0.74612497454E-01  0.51100000000E-03 0.  1.
         11    1    4    4    0    0  0.34419338987E-01 -0.44012193550E-01 -0.34628231348E-01  0.65735375595E-01  0.51100000000E-03 0. -1.
</event>
<event>
 8    1  0.2922807E+004  0.1043930E+01  0.7957747E-01            NaN
         13   -1    0    0    0    0  0.00000000000E+00  0.00000000000E+00  0.74505805969E-08  0.10566000000E+00  0.10566000000E+00 0.  1.
     999900   -1    0    0    0    0 -0.00000000000E+00 -0.00000000000E+00 -0.74505805969E-08  0.93827000000E+00  0.93827000000E+00 0.  1.
     999902    2    1    2    0    0  0.29103898685E-02  0.77539563375E-02 -0.13271835649E-01  0.10282859650E+01  0.10281669563E+01 0.  0.
     999903    2    3    3    0    0  0.67727382448E-01  0.79846357600E-01 -0.82717635303E-01  0.14024245489E+00  0.43165956585E-01 0.  0.
         14    1    1    2    0    0 -0.29103898685E-02 -0.77539563375E-02  0.13271835649E-01  0.15644034951E-01  0.00000000000E+00 0.  1.
     999901    1    3    3    0    0 -0.64816992579E-01 -0.72092401263E-01  0.69445799654E-01  0.88804351016E+00  0.88000000000E+00 0. -1.
        -11    1    4    4    0    0  0.11459402100E-01  0.45203127038E-01 -0.27582162511E-01  0.54181891811E-01  0.51100000000E-03 0.  1.
         11    1    4    4    0    0  0.56267980348E-01  0.34643230563E-01 -0.55135472792E-01  0.86060563078E-01  0.51100000000E-03 0. -1.
</event>
<event>
 8    1  0.2922807E+004  0.1043930E+01  0.7957747E-01            NaN
         13   -1    0    0    0    0  0.00000000000E+00  0.00000000000E+00  0.74505805969E-08  0.10566000000E+00  0.10566000000E+00 0. -1.
     999900   -1    0    0    0    0 -0.00000000000E+00 -0.00000000000E+00 -0.74505805969E-08  0.93827000000E+00  0.93827000000E+00 0. -1.
     999902    2    1    2    0    0 -0.54132383595E-02 -0.78660667627E-02  0.95563250669E-02  0.10304206882E+01  0.10303321276E+01 0.  0.
     999903    2    3    3    0    0 -0.82567800267E-01 -0.62138569189E-01 -0.84110212096E-01  0.14043655852E+00  0.44376297372E-01 0.  0.
         14    1    1    2    0    0  0.54132383595E-02  0.78660667627E-02 -0.95563250669E-02  0.13509311775E-01  0.00000000000E+00 0. -1.
     999901    1    3    3    0    0  0.77154561907E-01  0.54272502426E-01  0.93666537163E-01  0.88998412970E+00  0.88000000000E+00 0.  1.
        -11    1    4    4    0    0 -0.65350654150E-01 -0.27416723449E-01 -0.38751653175E-01  0.80773364838E-01  0.51100000000E-03 0. -1.
         11    1    4    4    0    0 -0.17217146117E-01 -0.34721845739E-01 -0.45358558920E-01  0.59663193682E-01  0.51100000000E-03 0.  1.
</event>
<event>
 8    1  0.2922807E+004  0.1043930E+01  0.7957747E-01            NaN
         13   -1    0    0    0    0  0.00000000000E+00  0.00000000000E+00  0.74505805969E-08  0.10566000000E+00  0.10566000000E+00 0. -1.
     999900   -1    0    0    0    0 -0.00000000000E+00 -0.00000000000E+00 -0.74505805969E-08  0.93827000000E+00  0.93827000000E+00 0.  1.
     999902    2    1    2    0    0 -0.28720843521E-02  0.12884858123E-01  0.47153708348E-03  0.10307205040E+01  0.10306358555E+01 0.  0.
     999903    2    3    3    0    0  0.93986521291E-01 -0.82961581852E-01 -0.40698655457E-01  0.13928171513E+00  0.45021387878E-01 0.  0.
         14    1    1    2    0    0  0.28720843521E-02 -0.12884858123E-01 -0.47153708348E-03  0.13209496001E-01  0.00000000000E+00 0. -1.
     999901    1    3    3    0    0 -0.96858605643E-01  0.95846439975E-01  0.41170192540E-01  0.89143878887E+00  0.88000000000E+00 0.  1.
        -11    1    4    4    0    0  0.87232681210E-01 -0.71101482569E-01 -0.49593599666E-01  0.12298271319E+00  0.51100000000E-03 0.  1.
         11    1    4    4    0    0  0.67538400802E-02 -0.11860099282E-01  0.88949442095E-02  0.16299001942E-01  0.51100000000E-03 0. -1.
</event>
<event>
 8    1  0.2922807E+004  0.1043930E+01  0.7957747E-01            NaN
         13   -1    0    0    0    0  0.00000000000E+00  0.00000000000E+00  0.74505805969E-08  0.10566000000E+00  0.10566000000E+00 0.  1.
     999900   -1    0    0    0    0 -0.00000000000E+00 -0.00000000000E+00 -0.74505805969E-08  0.93827000000E+00  0.93827000000E+00 0.  1.
     999902    2    1    2    0    0  0.79164055126E-02  0.27459316809E-02  0.11093189946E-01  0.10300278966E+01  0.10299340752E+01 0.  0.
     999903    2    3    3    0    0  0.40983885719E-01 -0.11428489638E+00  0.54550699288E-01  0.14060211096E+00  0.45304065864E-01 0.  0.
         14    1    1    2    0    0 -0.79164055126E-02 -0.27459316809E-02 -0.11093189946E-01  0.13902103446E-01  0.00000000000E+00 0. -1.
     999901    1    3    3    0    0 -0.33067480207E-01  0.11703082806E+00 -0.43457509342E-01  0.88942578560E+00  0.88000000000E+00 0.  1.
        -11    1    4    4    0    0  0.35679369674E-01 -0.48398421604E-01  0.10171867026E-01  0.60984855775E-01  0.51100000000E-03 0. -1.
         11    1    4    4    0    0  0.53045160447E-02 -0.65886474777E-01  0.44378832262E-01  0.79617255184E-01  0.51100000000E-03 0.  1.
</event>
<event>
 8    1  0.2922807E+004  0.1043930E+01  0.7957747E-01            NaN
         13   -1    0    0    0    0  0.00000000000E+00  0.00000000000E+00  0.74505805969E-08  0.10566000000E+00  0.10566000000E+00 0. -1.
     999900   -1    0    0    0    0 -0.00000000000E+00 -0.00000000000E+00 -0.74505805969E-08  0.93827000000E+00  0.93827000000E+00 0.  1.
     999902    2    1    2    0    0 -0.11570175068E-01 -0.18244569802E-02 -0.69461374015E-02  0.10303121287E+01  0.10302221295E+01 0.  0.
     999903    2    3    3    0    0 -0.56062210803E-01 -0.92689074219E-01  0.76449683461E-01  0.14059825173E+00  0.46787587330E-01 0.  0.
         14    1    1    2    0    0  0.11570175068E-01  0.18244569802E-02  0.69461374015E-02  0.13617871316E-01  0.00000000000E+00 0.  1.
     999901    1    3    3    0    0  0.44492035735E-01  0.90864617239E-01 -0.83395820862E-01  0.88971387696E+00  0.88000000000E+00 0.  1.
        -11    1    4    4    0    0 -0.57742182838E-01 -0.61550865615E-01  0.67731365365E-01  0.10821491446E+00  0.51100000000E-03 0.  1.
         11    1    4    4    0    0  0.16799720352E-02 -0.31138208604E-01  0.87183180963E-02  0.32383337267E-01  0.51100000000E-03 0. -1.
</event>
<event>
 8    1  0.2922807E+004  0.1043930E+01  0.7957747E-01            NaN
         13   -1    0    0    0    0  0.00000000000E+00  0.00000000000E+00  0.74505805969E-08  0.10566000000E+00  0.10566000000E+00 0.  1.
     999900   -1    0    0    0    0 -0.00000000000E+00 -0.00000000000E+00 -0.74505805969E-08  0.93827000000E+00  0.93827000000E+00 0. -1.
     999902    2    1    2    0    0 -0.10241872766E-01 -0.87483730572E-02 -0.21064556169E-02  0.10302966899E+01  0.10302064852E+01 0.  0.
     999903    2    3    3    0    0 -0.88139714065E-01 -0.52609867639E-01 -0.86255017634E-01  0.14177382308E+00  0.46081248617E-01 0.  0.
         14    1    1    2    0    0  0.10241872766E-01  0.87483730572E-02  0.21064556169E-02  0.13633310096E-01  0.00000000000E+00 0. -1.
     999901    1    3    3    0    0  0.77897841299E-01  0.43861494582E-01  0.84148562018E-01  0.88852286683E+00  0.88000000000E+00 0.  1.
        -11    1    4    4    0    0 -0.53212167897E-01 -0.54977653843E-01 -0.67621163764E-01  0.10211248770E+00  0.51100000000E-03 0. -1.
         11    1    4    4    0    0 -0.34927546168E-01  0.23677862036E-02 -0.18633853870E-01  0.39661335377E-01  0.51100000000E-03 0.  1.
</event>
<event>
 8    1  0.2922807E+004  0.1043930E+01  0.7957747E-01            NaN
         13   -1    0    0    0    0  0.00000000000E+00  0.00000000000E+00  0.74505805969E-08  0.10566000000E+00  0.10566000000E+00 0.  1.
     999900   -1    0    0    0    0 -0.00000000000E+00 -0.00000000000E+00 -0.74505805969E-08  0.93827000000E+00  0.93827000000E+00 0.  1.
     999902    2    1    2    0    0 -0.25367896557E-02  0.11679364731E-02  0.13120854881E-01  0.10305152242E+01  0.10304279068E+01 0.  0.
     999903    2    3    3    0    0  0.11638754487E+00 -0.51728462225E-01 -0.25287271614E-01  0.14011294964E+00  0.52633621808E-01 0.  0.
         14    1    1    2    0    0  0.25367896557E-02 -0.11679364731E-02 -0.13120854881E-01  0.13414775815E-01  0.00000000000E+00 0. -1.
     999901    1    3    3    0    0 -0.11892433453E+00  0.52896398698E-01  0.38408126495E-01  0.89040227455E+00  0.88000000000E+00 0.  1.
        -11    1    4    4    0    0  0.68590894947E-01 -0.78119288994E-02 -0.29479017714E-01  0.75066708394E-01  0.51100000000E-03 0. -1.
         11    1    4    4    0    0  0.47796649927E-01 -0.43916533325E-01  0.41917461000E-02  0.65046241243E-01  0.51100000000E-03 0.  1.
</event>
<event>
 8    1  0.2922807E+004  0.1043930E+01  0.7957747E-01            NaN
         13   -1    0    0    0    0  0.00000000000E+00  0.00000000000E+00  0.74505805969E-08  0.10566000000E+00  0.10566000000E+00 0.  1.
     999900   -1    0    0    0    0 -0.00000000000E+00 -0.00000000000E+00 -0.74505805969E-08  0.93827000000E+00  0.93827000000E+00 0. -1.
     999902    2    1    2    0    0 -0.12172719764E-01  0.40345799638E-02  0.62471748271E-02  0.10296653537E+01  0.10295665400E+01 0.  0.
     999903    2    3    3    0    0 -0.19224156404E-01  0.11681033306E+00  0.61740526114E-01  0.14070663399E+00  0.44409933378E-01 0.  0.
         14    1    1    2    0    0  0.12172719764E-01 -0.40345799638E-02 -0.62471748271E-02  0.14264646342E-01  0.00000000000E+00 0.  1.
     999901    1    3    3    0    0  0.70514366399E-02 -0.11277575310E+00 -0.55493351287E-01  0.88895871967E+00  0.88000000000E+00 0.  1.
        -11    1    4    4    0    0  0.97311450316E-02  0.31282747508E-01  0.31576167307E-01  0.45504076060E-01  0.51100000000E-03 0. -1.
         11    1    4    4    0    0 -0.28955301435E-01  0.85527585556E-01  0.30164358807E-01  0.95202557925E-01  0.51100000000E-03 0.  1.
</event>
<event>
 8    1  0.2922807E+004  0.1043930E+01  0.7957747E-01            NaN
         13   -1    0    0    0    0  0.00000000000E+00  0.00000000000E+00  0.74505805969E-08  0.10566000000E+00  0.10566000000E+00 0.  1.
     999900   -1    0    0    0    0 -0.00000000000E+00 -0.00000000000E+00 -0.74505805969E-08  0.93827000000E+00  0.93827000000E+00 0.  1.
     999902    2    1    2    0    0 -0.64081020397E-02 -0.61517529657E-02 -0.10459507196E-01  0.10302074227E+01  0.10301160249E+01 0.  0.
     999903    2    3    3    0    0  0.92501516746E-02 -0.42239050833E-02  0.13086665955E+00  0.13879170438E+00  0.45095985883E-01 0.  0.
         14    1    1    2    0    0  0.64081020397E-02  0.61517529657E-02  0.10459507196E-01  0.13722577276E-01  0.00000000000E+00 0.  1.
     999901    1    3    3    0    0 -0.15658253714E-01 -0.19278478824E-02 -0.14132616674E+00  0.89141571835E+00  0.88000000000E+00 0.  1.
        -11    1    4    4    0    0 -0.90683922479E-02  0.16318047342E-01  0.50690011157E-01  0.54020854853E-01  0.51100000000E-03 0. -1.
         11    1    4    4    0    0  0.18318543923E-01 -0.20541952425E-01  0.80176648392E-01  0.84770849525E-01  0.51100000000E-03 0.  1.
</event>
<event>
 8    1  0.2922807E+004  0.1043930E+01  0.7957747E-01            NaN
         13   -1    0    0    0    0  0.00000000000E+00  0.00000000000E+00  0.74505805969E-08  0.10566000000E+00  0.10566000000E+00 0. -1.
     999900   -1    0    0    0    0 -0.00000000000E+00 -0.00000000000E+00 -0.74505805969E-08  0.93827000000E+00  0.93827000000E+00 0. -1.
     999902    2    1    2    0    0  0.93033966549E-02 -0.91562919662E-02 -0.16462024626E-02  0.10307732202E+01  0.10306892503E+01 0.  0.
     999903    2    3    3    0    0  0.72074706920E-01 -0.65064262601E-01  0.92899065860E-01  0.14172612003E+00  0.45032599484E-01 0.  0.
         14    1    1    2    0    0 -0.93033966549E-02  0.91562919662E-02  0.16462024626E-02  0.13156779790E-01  0.00000000000E+00 0. -1.
     999901    1    3    3    0    0 -0.62771310265E-01  0.55907970634E-01 -0.94545268323E-01  0.88904710018E+00  0.88000000000E+00 0. -1.
        -11    1    4    4    0    0  0.65113065982E-03 -0.16200447353E-01  0.22097892249E-02  0.16371400520E-01  0.51100000000E-03 0. -1.
         11    1    4    4    0    0  0.71423576261E-01 -0.48863815248E-01  0.90689276635E-01  0.12535471951E+00  0.51100000000E-03 0.  1.
</event>
<event>
 8    1  0.2922807E+004  0.1043930E+01  0.7957747E-01            NaN
         13   -1    0    0    0    0  0.00000000000E+00  0.00000000000E+00  0.74505805969E-08  0.10566000000E+00  0.10566000000E+00 0.  1.
     999900   -1    0    0    0    0 -0.00000000000E+00 -0.00000000000E+00 -0.74505805969E-08  0.93827000000E+00  0.93827000000E+00 0. -1.
     999902    2    1    2    0    0 -0.27054069587E-02 -0.36924592898E-02 -0.13376429116E-01  0.10297920250E+01  0.10296949705E+01 0.  0.
     999903    2    3    3    0    0  0.11705962320E+00 -0.10695978562E-01  0.64850578390E-01  0.13821355032E+00  0.32863789088E-01 0.  0.
         14    1    1    2    0    0  0.27054069587E-02  0.36924592898E-02  0.13376429116E-01  0.14137975043E-01  0.00000000000E+00 0.  1.
     999901    1    3    3    0    0 -0.11976503016E+00  0.70035192722E-02 -0.78227007507E-01  0.89157847464E+00  0.88000000000E+00 0. -1.
        -11    1    4    4    0    0  0.10530123797E+00 -0.86115621281E-02  0.44564531865E-01  0.11466807900E+00  0.51100000000E-03 0. -1.
         11    1    4    4    0    0  0.11758385234E-01 -0.20844164339E-02  0.20286046525E-01  0.23545471322E-01  0.51100000000E-03 0.  1.
</event>
<event>
 8    1  0.2922807E+004  0.1043930E+01  0.7957747E-01            NaN
         13   -1    0    0    0    0  0.00000000000E+00  0.00000000000E+00  0.74505805969E-08  0.10566000000E+00  0.10566000000E+00 0.  1.
     999900   -1    0    0    0    0 -0.00000000000E+00 -0.00000000000E+00 -0.74505805969E-08  0.93827000000E+00  0.93827000000E+00 0.  1.
     999902    2    1    2    0    0 -0.12999305736E-01  0.53938061792E-02  0.31869450127E-02  0.10294997639E+01  0.10293986265E+01 0.  0.
     999903    2    3    3    0    0  0.18786159989E-01 -0.99645200950E-01  0.83770234371E-01  0.13902956489E+00  0.45051990704E-01 0.  0.
         14    1    1    2    0    0  0.12999305736E-01 -0.53938061792E-02 -0.31869450127E-02  0.14430236077E-01  0.00000000000E+00 0.  1.
     999901    1    3    3    0    0 -0.31785465725E-01  0.10503900713E+00 -0.80583289358E-01  0.89047019904E+00  0.88000000000E+00 0.  1.
        -11    1    4    4    0    0  0.28784337908E-01 -0.84581624294E-01  0.54606615752E-01  0.10471262045E+00  0.51100000000E-03 0.  1.
         11    1    4    4    0    0 -0.99981779189E-02 -0.15063576656E-01  0.29163618619E-01  0.34316944435E-01  0.51100000000E-03 0. -1.
</event>
<event>
 8    1  0.2922807E+004  0.1043930E+01  0.7957747E-01            NaN
         13   -1    0    0    0    0  0.00000000000E+00  0.00000000000E+00  0.74505805969E-08  0.10566000000E+00  0.10566000000E+00 0.  1.
     999900   -1    0    0    0    0 -0.00000000000E+00 -0.00000000000E+00 -0.74505805969E-08  0.93827000000E+00  0.93827000000E+00 0. -1.
     999902    2    1    2    0    0 -0.14150338274E-01  0.19369584744E-02  0.16371156730E-02  0.10295541860E+01  0.10294538153E+01 0.  0.
     999903    2    3    3    0    0  0.76336219317E-01 -0.85375763150E-01 -0.64365763371E-01  0.13816891096E+00  0.42795527191E-01 0.  0.
         14    1    1    2    0    0  0.14150338274E-01 -0.19369584744E-02 -0.16371156730E-02  0.14375814033E-01  0.00000000000E+00 0.  1.
     999901    1    3    3    0    0 -0.90486557591E-01  0.87312721624E-01  0.66002879044E-01  0.89138527501E+00  0.88000000000E+00 0.  1.
        -11    1    4    4    0    0  0.29534947405E-01 -0.65555093952E-02 -0.20470721984E-01  0.36532169402E-01  0.51100000000E-03 0.  1.
         11    1    4    4    0    0  0.46801271912E-01 -0.78820253755E-01 -0.43895041388E-01  0.10163674156E+00  0.51100000000E-03 0. -1.
</event>
<event>
 8    1  0.2922807E+004  0.1043930E+01  0.7957747E-01            NaN
         13   -1    0    0    0    0  0.00000000000E+00  0.00000000000E+00  0.74505805969E-08  0.10566000000E+00  0.10566000000E+00 0. -1.
     999900   -1    0    0    0    0 -0.00000000000E+00 -0.00000000000E+00 -0.74505805969E-08  0.93827000000E+00  0.93827000000E+00 0. -1.
     999902    2    1    2    0    0  0.10748476383E-01 -0.65885838577E-02  0.52649864796E-02  0.10302676699E+01  0.10301770781E+01 0.  0.
     999903    2    3    3    0    0 -0.12622306056E+00 -0.10632677542E-01 -0.34010467229E-01  0.13879690878E+00  0.45415362550E-01 0.  0.
         14    1    1    2    0    0 -0.10748476383E-01  0.65885838577E-02 -0.52649864796E-02  0.13662330124E-01  0.00000000000E+00 0.  1.
     999901    1    3    3    0    0  0.13697153695E+00  0.40440936847E-02  0.39275453709E-01  0.89147076110E+00  0.88000000000E+00 0.  1.
        -11    1    4    4    0    0 -0.20397818454E-01  0.14203430609E-01 -0.13103399121E-01  0.28102822425E-01  0.51100000000E-03 0.  1.
         11    1    4    4    0    0 -0.10582524211E+00 -0.24836108151E-01 -0.20907068108E-01  0.11069408635E+00  0.51100000000E-03 0. -1.
</event>
<event>
 8    1  0.2922807E+004  0.1043930E+01  0.7957747E-01            NaN
         13   -1    0    0    0    0  0.00000000000E+00  0.00000000000E+00  0.74505805969E-08  0.10566000000E+00  0.10566000000E+00 0. -1.
     999900   -1    0    0    0    0 -0.00000000000E+00 -0.00000000000E+00 -0.74505805969E-08  0.93827000000E+00  0.93827000000E+00 0.  1.
     999902    2    1    2    0    0  0.77667771291E-02  0.98124028029E-02  0.57871119397E-02  0.10301424426E+01  0.10300501712E+01 0.  0.
     999903    2    3    3    0    0  0.98952244879E-01 -0.73275409051E-01  0.50750497969E-01  0.14040086204E+00  0.44451734275E-01 0.  0.
         14    1    1    2    0    0 -0.77667771291E-02 -0.98124028029E-02 -0.57871119397E-02  0.13787557447E-01  0.00000000000E+00 0.  1.
     999901    1    3    3    0    0 -0.91185467749E-01  0.83087811854E-01 -0.44963386029E-01  0.88974158051E+00  0.88000000000E+00 0.  1.
        -11    1    4    4    0    0  0.61886962056E-01 -0.21247647400E-01  0.36580227892E-01  0.74965543993E-01  0.51100000000E-03 0. -1.
         11    1    4    4    0    0  0.37065282823E-01 -0.52027761651E-01  0.14170270077E-01  0.65435318049E-01  0.51100000000E-03 0.  1.
</event>
<event>
 8    1  0.2922807E+004  0.1043930E+01  0.7957747E-01            NaN
         13   -1    0    0    0    0  0.00000000000E+00  0.00000000000E+00  0.74505805969E-08  0.10566000000E+00  0.10566000000E+00 0.  1.
     999900   -1    0    0    0    0 -0.00000000000E+00 -0.00000000000E+00 -0.74505805969E-08  0.93827000000E+00  0.93827000000E+00 0. -1.
     999902    2    1    2    0    0  0.85612067298E-03 -0.10154658909E-01 -0.60674674569E-02  0.10320698060E+01  0.10320016571E+01 0.  0.
     999903    2    3    3    0    0 -0.17600658153E-01  0.10389980225E+00 -0.82793184555E-01  0.14120735397E+00  0.44495542816E-01 0.  0.
         14    1    1    2    0    0 -0.85612067298E-03  0.10154658909E-01  0.60674674569E-02  0.11860193991E-01  0.00000000000E+00 0.  1.
     999901    1    3    3    0    0  0.18456778826E-01 -0.11405446116E+00  0.76725717098E-01  0.89086245204E+00  0.88000000000E+00 0.  1.
        -11    1    4    4    0    0 -0.15031911201E-01  0.54501679801E-01 -0.17289444376E-01  0.59123408759E-01  0.51100000000E-03 0.  1.
         11    1    4    4    0    0 -0.25687469516E-02  0.49398122449E-01 -0.65503740179E-01  0.82083945207E-01  0.51100000000E-03 0. -1.
</event>
<event>
 8    1  0.2922807E+004  0.1043930E+01  0.7957747E-01            NaN
         13   -1    0    0    0    0  0.00000000000E+00  0.00000000000E+00  0.74505805969E-08  0.10566000000E+00  0.10566000000E+00 0.  1.
     999900   -1    0    0    0    0 -0.00000000000E+00 -0.00000000000E+00 -0.74505805969E-08  0.93827000000E+00  0.93827000000E+00 0. -1.
     999902    2    1    2    0    0  0.57598092248E-02 -0.58874182473E-02  0.11016303970E-01  0.10301751445E+01  0.10300833133E+01 0.  0.
     999903    2    3    3    0    0 -0.10769764362E+00 -0.72650611511E-01  0.29104103017E-01  0.14019925381E+00  0.43953249735E-01 0.  0.
         14    1    1    2    0    0 -0.57598092248E-02  0.58874182473E-02 -0.11016303970E-01  0.13754855473E-01  0.00000000000E+00 0.  1.
     999901    1    3    3    0    0  0.11345745285E+00  0.66763193264E-01 -0.18087799047E-01  0.88997589072E+00  0.88000000000E+00 0. -1.
        -11    1    4    4    0    0 -0.50602594647E-01 -0.14503489088E-01 -0.27189323767E-02  0.52712688179E-01  0.51100000000E-03 0.  1.
         11    1    4    4    0    0 -0.57095048973E-01 -0.58147122424E-01  0.31823035394E-01  0.87486565632E-01  0.51100000000E-03 0. -1.
</event>
<event>
 8    1  0.2922807E+004  0.1043930E+01  0.7957747E-01            NaN
         13   -1    0    0    0    0  0.00000000000E+00  0.00000000000E+00  0.74505805969E-08  0.10566000000E+00  0.10566000000E+00 0.  1.
     999900   -1    0    0    0    0 -0.00000000000E+00 -0.00000000000E+00 -0.74505805969E-08  0.93827000000E+00  0.93827000000E+00 0.  1.
     999902    2    1    2    0    0 -0.32603460593E-03 -0.10046855963E-01  0.88727007722E-02  0.10305221503E+01  0.10304349237E+01 0.  0.
     999903    2    3    3    0    0 -0.11657942758E+00  0.11392957051E-01 -0.61660976434E-01  0.13982045136E+00  0.45023551589E-01 0.  0.
         14    1    1    2    0    0  0.32603460593E-03  0.10046855963E-01 -0.88727007722E-02  0.13407849653E-01  0.00000000000E+00 0.  1.
     999901    1    3    3    0    0  0.11625339298E+00 -0.21439813015E-01  0.70533677206E-01  0.89070169899E+00  0.88000000000E+00 0.  1.
        -11    1    4    4    0    0 -0.21746084933E-01 -0.10867426728E-01  0.39897784825E-03  0.24318994180E-01  0.51100000000E-03 0.  1.
         11    1    4    4    0    0 -0.94833342650E-01  0.22260383779E-01 -0.62059954282E-01  0.11550145718E+00  0.51100000000E-03 0. -1.
</event>
<event>
 8    1  0.2922807E+004  0.1043930E+01  0.7957747E-01            NaN
         13   -1    0    0    0    0  0.00000000000E+00  0.00000000000E+00  0.74505805969E-08  0.10566000000E+00  0.10566000000E+00 0. -1.
     999900   -1    0    0    0    0 -0.00000000000E+00 -0.00000000000E+00 -0.74505805969E-08  0.93827000000E+00  0.93827000000E+00 0.  1.
     999902    2    1    2    0    0  0.97363999054E-02  0.15281429698E-01  0.15353254707E-02  0.10257454791E+01  0.10255842779E+01 0.  0.
     999903    2    3    3    0    0 -0.70019672109E-01 -0.98518806019E-01 -0.36589260416E-01  0.13402522658E+00  0.44891845143E-01 0.  0.
         14    1    1    2    0    0 -0.97363999054E-02 -0.15281429698E-01 -0.15353254707E-02  0.18184520919E-01  0.00000000000E+00 0.  1.
     999901    1    3    3    0    0  0.79756072014E-01  0.11380023572E+00  0.38124585887E-01  0.89172025250E+00  0.88000000000E+00 0. -1.
        -11    1    4    4    0    0  0.22121602622E-03 -0.32511211340E-01 -0.10446314501E-01  0.34152809650E-01  0.51100000000E-03 0.  1.
         11    1    4    4    0    0 -0.70240888135E-01 -0.66007594679E-01 -0.26142945916E-01  0.99872416930E-01  0.51100000000E-03 0. -1.
</event>
<event>
 8    1  0.2922807E+004  0.1043930E+01  0.7957747E-01            NaN
         13   -1    0    0    0    0  0.00000000000E+00  0.00000000000E+00  0.74505805969E-08  0.10566000000E+00  0.10566000000E+00 0.  1.
     999900   -1    0    0    0    0 -0.00000000000E+00 -0.00000000000E+00 -0.74505805969E-08  0.93827000000E+00  0.93827000000E+00 0. -1.
     999902    2    1    2    0    0 -0.86653718906E-02 -0.52540943442E-02 -0.96629528786E-02  0.10299276132E+01  0.10298324240E+01 0.  0.
     999903    2    3    3    0    0 -0.35078878481E-01  0.10072025920E+00 -0.72772842597E-01  0.14093318403E+00  0.56490507283E-01 0.  0.
         14    1    1    2    0    0  0.86653718906E-02  0.52540943442E-02  0.96629528786E-02  0.14002386786E-01  0.00000000000E+00 0.  1.
     999901    1    3    3    0    0  0.26413506590E-01 -0.10597435354E+00  0.63109889718E-01  0.88899442918E+00  0.88000000000E+00 0.  1.
        -11    1    4    4    0    0 -0.27190401110E-01  0.92089593114E-02 -0.14620215648E-01  0.32220097311E-01  0.51100000000E-03 0.  1.
         11    1    4    4    0    0 -0.78884773707E-02  0.91511299886E-01 -0.58152626949E-01  0.10871308672E+00  0.51100000000E-03 0. -1.
</event>
<event>
 8    1  0.2922807E+004  0.1043930E+01  0.7957747E-01            NaN
         13   -1    0    0    0    0  0.00000000000E+00  0.00000000000E+00  0.74505805969E-08  0.10566000000E+00  0.10566000000E+00 0.  1.
     999900   -1    0    0    0    0 -0.00000000000E+00 -0.00000000000E+00 -0.74505805969E-08  0.93827000000E+00  0.93827000000E+00 0.  1.
     999902    2    1    2    0    0 -0.12545150174E-01  0.34597449861E-02  0.96930595841E-02  0.10277032926E+01  0.10275751805E+01 0.  0.
     999903    2    3    3    0    0 -0.25418100084E-01  0.12923421362E+00  0.57802106740E-02  0.13865872670E+00  0.42956604555E-01 0.  0.
         14    1    1    2    0    0  0.12545150174E-01 -0.34597449861E-02 -0.96930595841E-02  0.16226707379E-01  0.00000000000E+00 0. -1.
     999901    1    3    3    0    0  0.12872949910E-01 -0.12577446863E+00  0.39128489101E-02  0.88904456592E+00  0.88000000000E+00 0. -1.
        -11    1    4    4    0    0  0.31716540158E-02  0.18194807095E-01  0.14756531535E-01  0.23645860914E-01  0.51100000000E-03 0.  1.
         11    1    4    4    0    0 -0.28589754100E-01  0.11103940652E+00 -0.89763208609E-02  0.11501286579E+00  0.51100000000E-03 0. -1.
</event>
<event>
 8    1  0.2922807E+004  0.1043930E+01  0.7957747E-01            NaN
         13   -1    0    0    0    0  0.00000000000E+00  0.00000000000E+00  0.74505805969E-08  0.10566000000E+00  0.10566000000E+00 0.  1.
     999900   -1    0    0    0    0 -0.00000000000E+00 -0.00000000000E+00 -0.74505805969E-08  0.93827000000E+00  0.93827000000E+00 0.  1.
     999902    2    1    2    0    0 -0.14911562761E-01 -0.23414648749E-02 -0.33971664362E-02  0.10284581578E+01  0.10283417741E+01 0.  0.
     999903    2    3    3    0    0 -0.83455974903E-01 -0.83532267820E-01 -0.59618845677E-01  0.14028522410E+00  0.46722562279E-01 0.  0.
         14    1    1    2    0    0  0.14911562761E-01  0.23414648749E-02  0.33971664362E-02  0.15471842215E-01  0.00000000000E+00 0.  1.
     999901    1    3    3    0    0  0.68544412142E-01  0.81190802945E-01  0.56221679241E-01  0.88817293369E+00  0.88000000000E+00 0. -1.
        -11    1    4    4    0    0 -0.36519548123E-01 -0.60975401168E-01 -0.17226972770E-01  0.73134852529E-01  0.51100000000E-03 0.  1.
         11    1    4    4    0    0 -0.46936426781E-01 -0.22556866652E-01 -0.42391872907E-01  0.67150371568E-01  0.51100000000E-03 0. -1.
</event>
<event>
 8    1  0.2922807E+004  0.1043930E+01  0.7957747E-01            NaN
         13   -1    0    0    0    0  0.00000000000E+00  0.00000000000E+00  0.74505805969E-08  0.10566000000E+00  0.10566000000E+00 0. -1.
     999900   -1    0    0    0    0 -0.00000000000E+00 -0.00000000000E+00 -0.74505805969E-08  0.93827000000E+00  0.93827000000E+00 0. -1.
     999902    2    1    2    0    0  0.14119942916E-02 -0.12314168507E-02 -0.14065139368E-01  0.10297406286E+01  0.10296428623E+01 0.  0.
     999903    2    3    3    0    0 -0.14434292855E-01 -0.82404618118E-01  0.10049602745E+00  0.13846937114E+00  0.45557055605E-01 0.  0.
         14    1    1    2    0    0 -0.14119942916E-02  0.12314168507E-02  0.14065139368E-01  0.14189371402E-01  0.00000000000E+00 0. -1.
     999901    1    3    3    0    0  0.15846287146E-01  0.81173201267E-01 -0.11456116681E+00  0.89127125745E+00  0.88000000000E+00 0. -1.
        -11    1    4    4    0    0  0.26730401682E-02 -0.23501396163E-01  0.38039531874E-02  0.23962302606E-01  0.51100000000E-03 0. -1.
         11    1    4    4    0    0 -0.17107333023E-01 -0.58903221955E-01  0.96692074259E-01  0.11450706854E+00  0.51100000000E-03 0.  1.
</event>
<event>
 8    1  0.2922807E+004  0.1043930E+01  0.7957747E-01            NaN
         13   -1    0    0    0    0  0.00000000000E+00  0.00000000000E+00  0.74505805969E-08  0.10566000000E+00  0.10566000000E+00 0. -1.
     999900   -1    0    0    0    0 -0.00000000000E+00 -0.00000000000E+00 -0.74505805969E-08  0.93827000000E+00  0.93827000000E+00 0.  1.
     999902    2    1    2    0    0 -0.21789657432E-02  0.12206871074E-01  0.61490547770E-02  0.10300892461E+01  0.10299962566E+01 0.  0.
     999903    2    3    3    0    0 -0.92117225000E-01 -0.61375537936E-01  0.72327556927E-01  0.13998652422E+00  0.45960979909E-01 0.  0.
         14    1    1    2    0    0  0.21789657432E-02 -0.12206871074E-01 -0.61490547770E-02  0.13840753873E-01  0.00000000000E+00 0.  1.
     999901    1    3    3    0    0  0.89938259257E-01  0.73582409011E-01 -0.66178502150E-01  0.89010272190E+00  0.88000000000E+00 0.  1.
        -11    1    4    4    0    0 -0.53603583152E-01 -0.11250705894E-01  0.21385894518E-01  0.58800851313E-01  0.51100000000E-03 0. -1.
         11    1    4    4    0    0 -0.38513641848E-01 -0.50124832043E-01  0.50941662410E-01  0.81185672909E-01  0.51100000000E-03 0.  1.
</event>
<event>
 8    1  0.2922807E+004  0.1043930E+01  0.7957747E-01            NaN
         13   -1    0    0    0    0  0.00000000000E+00  0.00000000000E+00  0.74505805969E-08  0.10566000000E+00  0.10566000000E+00 0. -1.
     999900   -1    0    0    0    0 -0.00000000000E+00 -0.00000000000E+00 -0.74505805969E-08  0.93827000000E+00  0.93827000000E+00 0. -1.
     999902    2    1    2    0    0 -0.86466232895E-02 -0.72569458639E-02 -0.75089872596E-02  0.10303722625E+01  0.10302830616E+01 0.  0.
     999903    2    3    3    0    0 -0.93356305440E-01 -0.88717822755E-01 -0.37629103947E-01  0.14204865805E+00  0.46643541367E-01 0.  0.
         14    1    1    2    0    0  0.86466232895E-02  0.72569458639E-02  0.75089872596E-02  0.13557737542E-01  0.00000000000E+00 0. -1.
     999901    1    3    3    0    0  0.84709682150E-01  0.81460876891E-01  0.30120116688E-01  0.88832360440E+00  0.88000000000E+00 0. -1.
        -11    1    4    4    0    0 -0.51949922101E-01 -0.45217892116E-01 -0.43881578161E-01  0.81665820247E-01  0.51100000000E-03 0. -1.
         11    1    4    4    0    0 -0.41406383339E-01 -0.43499930639E-01  0.62524742138E-02  0.60382837807E-01  0.51100000000E-03 0.  1.
</event>
<event>
 8    1  0.2922807E+004  0.1043930E+01  0.7957747E-01            NaN
         13   -1    0    0    0    0  0.00000000000E+00  0.00000000000E+00  0.74505805969E-08  0.10566000000E+00  0.10566000000E+00 0. -1.
     999900   -1    0    0    0    0 -0.00000000000E+00 -0.00000000000E+00 -0.74505805969E-08  0.93827000000E+00  0.93827000000E+00 0. -1.
     999902    2    1    2    0    0  0.40452939168E-02  0.51022104789E-02  0.13145222896E-01  0.10292605133E+01  0.10291559699E+01 0.  0.
     999903    2    3    3    0    0 -0.11062168522E+00 -0.48152733477E-01 -0.48139455815E-01  0.13811494888E+00  0.46930682026E-01 0.  0.
         14    1    1    2    0    0 -0.40452939168E-02 -0.51022104789E-02 -0.13145222896E-01  0.14669486686E-01  0.00000000000E+00 0.  1.
     999901    1    3    3    0    0  0.11466697914E+00  0.53254943956E-01  0.61284678711E-01  0.89114556443E+00  0.88000000000E+00 0.  1.
        -11    1    4    4    0    0 -0.76065471313E-01 -0.16978772665E-01 -0.11293417046E-01  0.78753012875E-01  0.51100000000E-03 0. -1.
         11    1    4    4    0    0 -0.34556213912E-01 -0.31173960812E-01 -0.36846038769E-01  0.59361936008E-01  0.51100000000E-03 0.  1.
</event>
<event>
 8    1  0.2922807E+004  0.1043930E+01  0.7957747E-01            NaN
         13   -1    0    0    0    0  0.00000000000E+00  0.00000000000E+00  0.74505805969E-08  0.10566000000E+00  0.10566000000E+00 0. -1.
     999900   -1    0    0    0    0 -0.00000000000E+00 -0.00000000000E+00 -0.74505805969E-08  0.93827000000E+00  0.93827000000E+00 0. -1.
     999902    2    1    2    0    0  0.61369372784E-02 -0.12448938136E-01 -0.64493781257E-03  0.10300356125E+01  0.10299418959E+01 0.  0.
     999903    2    3    3    0    0 -0.99477837272E-01 -0.14053082516E-01 -0.86236242929E-01  0.13959587538E+00  0.44237875095E-01 0.  0.
         14    1    1    2    0    0 -0.61369372784E-02  0.12448938136E-01  0.64493781257E-03  0.13894387523E-01  0.00000000000E+00 0. -1.
     999901    1    3    3    0    0  0.10561477455E+00  0.16041443806E-02  0.85591305117E-01  0.89043973709E+00  0.88000000000E+00 0. -1.
        -11    1    4    4    0    0 -0.52367120060E-01  0.14269740715E-01 -0.36038810629E-01  0.65153647296E-01  0.51100000000E-03 0.  1.
         11    1    4    4    0    0 -0.47110717213E-01 -0.28322823231E-01 -0.50197432301E-01  0.74442228088E-01  0.51100000000E-03 0. -1.
</event>
<event>
 8    1  0.2922807E+004  0.1043930E+01  0.7957747E-01            NaN
         13   -1    0    0    0    0  0.00000000000E+00  0.00000000000E+00  0.74505805969E-08  0.10566000000E+00  0.10566000000E+00 0.  1.
     999900   -1    0    0    0    0 -0.00000000000E+00 -0.00000000000E+00 -0.74505805969E-08  0.93827000000E+00  0.93827000000E+00 0. -1.
     999902    2    1    2    0    0  0.10416223473E-01 -0.28391279889E-02 -0.74594539073E-02  0.10308074312E+01  0.10307239002E+01 0.  0.
     999903    2    3    3    0    0  0.92230042582E-01 -0.97971561485E-01  0.10311665060E-01  0.14172954172E+00  0.43314257993E-01 0.  0.
         14    1    1    2    0    0 -0.10416223473E-01  0.28391279889E-02  0.74594539073E-02  0.13122568795E-01  0.00000000000E+00 0.  1.
     999901    1    3    3    0    0 -0.81813819109E-01  0.95132433496E-01 -0.17771118967E-01  0.88907788948E+00  0.88000000000E+00 0. -1.
        -11    1    4    4    0    0  0.27370735498E-01 -0.42551609506E-01  0.22818365913E-01  0.55504374397E-01  0.51100000000E-03 0. -1.
         11    1    4    4    0    0  0.64859307084E-01 -0.55419951979E-01 -0.12506700853E-01  0.86225167324E-01  0.51100000000E-03 0.  1.
</event>
<event>
 8    1  0.2922807E+004  0.1043930E+01  0.7957747E-01            NaN
         13   -1    0    0    0    0  0.00000000000E+00  0.00000000000E+00  0.74505805969E-08  0.10566000000E+00  0.10566000000E+00 0. -1.
     999900   -1    0    0    0    0 -0.00000000000E+00 -0.00000000000E+00 -0.74505805969E-08  0.93827000000E+00  0.93827000000E+00 0.  1.
     999902    2    1    2    0    0  0.66523198554E-02 -0.11754883979E-01 -0.25425457373E-02  0.10301860851E+01  0.10300944009E+01 0.  0.
     999903    2    3    3    0    0 -0.45921371924E-01  0.52608895309E-01  0.10985769096E+00  0.13915269499E+00  0.49176132383E-01 0.  0.
         14    1    1    2    0    0 -0.66523198554E-02  0.11754883979E-01  0.25425457373E-02  0.13743914858E-01  0.00000000000E+00 0. -1.
     999901    1    3    3    0    0  0.52573691779E-01 -0.64363779288E-01 -0.11240023669E+00  0.89103339015E+00  0.88000000000E+00 0.  1.
        -11    1    4    4    0    0 -0.27683292337E-01  0.48311202665E-01  0.44857736067E-01  0.71503948029E-01  0.51100000000E-03 0.  1.
         11    1    4    4    0    0 -0.18238079587E-01  0.42976926438E-02  0.64999954890E-01  0.67648746964E-01  0.51100000000E-03 0. -1.
</event>
<event>
 8    1  0.2922807E+004  0.1043930E+01  0.7957747E-01            NaN
         13   -1    0    0    0    0  0.00000000000E+00  0.00000000000E+00  0.74505805969E-08  0.10566000000E+00  0.10566000000E+00 0. -1.
     999900   -1    0    0    0    0 -0.00000000000E+00 -0.00000000000E+00 -0.74505805969E-08  0.93827000000E+00  0.93827000000E+00 0. -1.
     999902    2    1    2    0    0  0.33527645407E-03 -0.61833772069E-02  0.12854961228E-01  0.10296612722E+01  0.10295624017E+01 0.  0.
     999903    2    3    3    0    0  0.14387457823E-01  0.96648331400E-01 -0.86359497357E-01  0.13802494901E+00  0.45221951087E-01 0.  0.
         14    1    1    2    0    0 -0.33527645407E-03  0.61833772069E-02 -0.12854961228E-01  0.14268727770E-01  0.00000000000E+00 0.  1.
     999901    1    3    3    0    0 -0.14052181369E-01 -0.10283170861E+00  0.99214458585E-01  0.89163632322E+00  0.88000000000E+00 0.  1.
        -11    1    4    4    0    0 -0.64039733691E-02  0.68946618621E-02  0.27841094964E-02  0.98264756547E-02  0.51100000000E-03 0.  1.
         11    1    4    4    0    0  0.20791431192E-01  0.89753669538E-01 -0.89143606853E-01  0.12819847335E+00  0.51100000000E-03 0. -1.
</event>
<event>
 8    1  0.2922807E+004  0.1043930E+01  0.7957747E-01            NaN
         13   -1    0    0    0    0  0.00000000000E+00  0.00000000000E+00  0.74505805969E-08  0.10566000000E+00  0.10566000000E+00 0. -1.
     999900   -1    0    0    0    0 -0.00000000000E+00 -0.00000000000E+00 -0.74505805969E-08  0.93827000000E+00  0.93827000000E+00 0. -1.
     999902    2    1    2    0    0 -0.11637160487E-01 -0.29480600570E-02  0.69798880898E-02  0.10300435534E+01  0.10299499446E+01 0.  0.
     999903    2    3    3    0    0  0.21091483140E-01  0.97053138937E-01 -0.86262667240E-01  0.13888387181E+00  0.44534477101E-01 0.  0.
         14    1    1    2    0    0  0.11637160487E-01  0.29480600570E-02 -0.69798880898E-02  0.13886446631E-01  0.00000000000E+00 0.  1.
     999901    1    3    3    0    0 -0.32728643627E-01 -0.10000119899E+00  0.93242555330E-01  0.89115968156E+00  0.88000000000E+00 0.  1.
        -11    1    4    4    0    0  0.11546858757E-01  0.47197039254E-01 -0.13992075755E-01  0.50566093051E-01  0.51100000000E-03 0.  1.
         11    1    4    4    0    0  0.95446243837E-02  0.49856099683E-01 -0.72270591484E-01  0.88317778758E-01  0.51100000000E-03 0. -1.
</event>
<event>
 8    1  0.2922807E+004  0.1043930E+01  0.7957747E-01            NaN
         13   -1    0    0    0    0  0.00000000000E+00  0.00000000000E+00  0.74505805969E-08  0.10566000000E+00  0.10566000000E+00 0.  1.
     999900   -1    0    0    0    0 -0.00000000000E+00 -0.00000000000E+00 -0.74505805969E-08  0.93827000000E+00  0.93827000000E+00 0.  1.
     999902    2    1    2    0    0  0.37484300876E-02 -0.15792198950E-01  0.19086955167E-02  0.10275871914E+01  0.10274572246E+01 0.  0.
     999903    2    3    3    0    0 -0.81005578701E-01  0.39479629105E-01  0.92723426297E-01  0.13714599043E+00  0.45725747795E-01 0.  0.
         14    1    1    2    0    0 -0.37484300876E-02  0.15792198950E-01 -0.19086955167E-02  0.16342808643E-01  0.00000000000E+00 0. -1.
     999901    1    3    3    0    0  0.84754008789E-01 -0.55271828055E-01 -0.90814730781E-01  0.89044120093E+00  0.88000000000E+00 0. -1.
        -11    1    4    4    0    0 -0.53139773359E-01  0.31856607873E-02  0.36006722235E-01  0.64270748513E-01  0.51100000000E-03 0.  1.
         11    1    4    4    0    0 -0.27865805342E-01  0.36293968318E-01  0.56716704063E-01  0.72875241916E-01  0.51100000000E-03 0. -1.
</event>
<event>
 7    1  0.2922807E+004  0.1043930E+01  0.7957747E-01            NaN
         13   -1    0    0    0    0  0.00000000000E+00  0.00000000000E+00  0.74505805969E-08  0.10566000000E+00  0.10566000000E+00 0. -1.
     999900   -1    0    0    0    0 -0.00000000000E+00 -0.00000000000E+00 -0.74505805969E-08  0.93827000000E+00  0.93827000000E+00 0.  1.
     999903    2    1    2    0    0 -0.69467097131E-01  0.49501112171E-01  0.61785419777E-01  0.11404374894E+00  0.43732149335E-01 0.  0.
         14    1    1    2    0    0 -0.26522209847E-01 -0.24879025570E-01 -0.23897228387E-01  0.43514032829E-01  0.00000000000E+00 0.  1.
     999901    1    1    2    0    0  0.95989306978E-01 -0.24622086601E-01 -0.37888191390E-01  0.88637221823E+00  0.88000000000E+00 0.  1.
        -11    1    3    3    0    0 -0.48034409093E-01  0.46542333233E-01  0.63637411402E-01  0.92322665098E-01  0.51100000000E-03 0. -1.
         11    1    3    3    0    0 -0.21432688038E-01  0.29587789377E-02 -0.18519916252E-02  0.21721083843E-01  0.51100000000E-03 0.  1.
</event>
<event>
 8    1  0.2922807E+004  0.1043930E+01  0.7957747E-01            NaN
         13   -1    0    0    0    0  0.00000000000E+00  0.00000000000E+00  0.74505805969E-08  0.10566000000E+00  0.10566000000E+00 0. -1.
     999900   -1    0    0    0    0 -0.00000000000E+00 -0.00000000000E+00 -0.74505805969E-08  0.93827000000E+00  0.93827000000E+00 0. -1.
     999902    2    1    2    0    0 -0.13695470543E-01  0.21161413925E-02  0.38552313750E-02  0.10295457455E+01  0.10294452561E+01 0.  0.
     999903    2    3    3    0    0 -0.10540590729E+00 -0.13627416692E-01  0.83193647729E-01  0.14109020464E+00  0.41099282769E-01 0.  0.
         14    1    1    2    0    0  0.13695470543E-01 -0.21161413925E-02 -0.38552313750E-02  0.14384254473E-01  0.00000000000E+00 0.  1.
     999901    1    3    3    0    0  0.91710436749E-01  0.15743558084E-01 -0.79338416354E-01  0.88845554089E+00  0.88000000000E+00 0. -1.
        -11    1    4    4    0    0 -0.94071944994E-02 -0.63013402900E-02  0.27779641131E-01  0.30002862867E-01  0.51100000000E-03 0. -1.
         11    1    4    4    0    0 -0.95998712793E-01 -0.73260764021E-02  0.55414006598E-01  0.11108734177E+00  0.51100000000E-03 0.  1.
</event>
<event>
 8    1  0.2922807E+004  0.1043930E+01  0.7957747E-01            NaN
         13   -1    0    0    0    0  0.00000000000E+00  0.00000000000E+00  0.74505805969E-08  0.10566000000E+00  0.10566000000E+00 0.  1.
     999900   -1    0    0    0    0 -0.00000000000E+00 -0.00000000000E+00 -0.74505805969E-08  0.93827000000E+00  0.93827000000E+00 0. -1.
     999902    2    1    2    0    0 -0.76663364965E-02  0.39494390429E-02  0.10966154704E-01  0.10299791100E+01  0.10298846244E+01 0.  0.
     999903    2    3    3    0    0  0.71893386810E-02  0.92468961985E-01  0.96483573684E-01  0.14128927319E+00  0.45292198067E-01 0.  0.
         14    1    1    2    0    0  0.76663364965E-02 -0.39494390429E-02 -0.10966154704E-01  0.13950890044E-01  0.00000000000E+00 0. -1.
     999901    1    3    3    0    0 -0.14855675177E-01 -0.88519522942E-01 -0.85517418980E-01  0.88868983677E+00  0.88000000000E+00 0. -1.
        -11    1    4    4    0    0 -0.15032306125E-01  0.69481972224E-01  0.70007195378E-01  0.99774662201E-01  0.51100000000E-03 0.  1.
         11    1    4    4    0    0  0.22221644806E-01  0.22986989761E-01  0.26476378305E-01  0.41514610986E-01  0.51100000000E-03 0. -1.
</event>
<event>
 8    1  0.2922807E+004  0.1043930E+01  0.7957747E-01            NaN
         13   -1    0    0    0    0  0.00000000000E+00  0.00000000000E+00  0.74505805969E-08  0.10566000000E+00  0.10566000000E+00 0.  1.
     999900   -1    0    0    0    0 -0.00000000000E+00 -0.00000000000E+00 -0.74505805969E-08  0.93827000000E+00  0.93827000000E+00 0. -1.
     999902    2    1    2    0    0 -0.12008521719E-01  0.38414019990E-02  0.49337095739E-02  0.10303910764E+01  0.10303021245E+01 0.  0.
     999903    2    3    3    0    0  0.10028734582E-01  0.96086324380E-01 -0.89962359526E-01  0.14022253597E+00  0.47286110137E-01 0.  0.
         14    1    1    2    0    0  0.12008521719E-01 -0.38414019990E-02 -0.49337095739E-02  0.13538923641E-01  0.00000000000E+00 0. -1.
     999901    1    3    3    0    0 -0.22037256301E-01 -0.92244922381E-01  0.94896069100E-01  0.89016854039E+00  0.88000000000E+00 0.  1.
        -11    1    4    4    0    0 -0.52134883413E-03  0.55960097538E-01 -0.79859461796E-01  0.97517173259E-01  0.51100000000E-03 0.  1.
         11    1    4    4    0    0  0.10550083416E-01  0.40126226841E-01 -0.10102897730E-01  0.42705362709E-01  0.51100000000E-03 0. -1.
</event>
<event>
 8    1  0.2922807E+004  0.1043930E+01  0.7957747E-01            NaN
         13   -1    0    0    0    0  0.00000000000E+00  0.00000000000E+00  0.74505805969E-08  0.10566000000E+00  0.10566000000E+00 0.  1.
     999900   -1    0    0    0    0 -0.00000000000E+00 -0.00000000000E+00 -0.74505805969E-08  0.93827000000E+00  0.93827000000E+00 0.  1.
     999902    2    1    2    0    0  0.96241476059E-02  0.11813122119E-01  0.11927006264E-02  0.10286461325E+01  0.10285325806E+01 0.  0.
     999903    2    3    3    0    0  0.12752314604E+00 -0.23949560114E-01  0.20674530987E-01  0.13984993257E+00  0.47904417365E-01 0.  0.
         14    1    1    2    0    0 -0.96241476059E-02 -0.11813122119E-01 -0.11927006264E-02  0.15283867512E-01  0.00000000000E+00 0.  1.
     999901    1    3    3    0    0 -0.11789899843E+00  0.35762682234E-01 -0.19481830361E-01  0.88879619992E+00  0.88000000000E+00 0. -1.
        -11    1    4    4    0    0  0.70457900718E-01  0.98419783165E-03 -0.86844705844E-02  0.70999757530E-01  0.51100000000E-03 0. -1.
         11    1    4    4    0    0  0.57065245321E-01 -0.24933757946E-01  0.29359001571E-01  0.68850175041E-01  0.51100000000E-03 0.  1.
</event>
<event>
 8    1  0.2922807E+004  0.1043930E+01  0.7957747E-01            NaN
         13   -1    0    0    0    0  0.00000000000E+00  0.00000000000E+00  0.74505805969E-08  0.10566000000E+00  0.10566000000E+00 0.  1.
     999900   -1    0    0    0    0 -0.00000000000E+00 -0.00000000000E+00 -0.74505805969E-08  0.93827000000E+00  0.93827000000E+00 0.  1.
     999902    2    1    2    0    0 -0.33835420585E-02 -0.11546300540E-01  0.67054090103E-02  0.10301558241E+01  0.10300637329E+01 0.  0.
     999903    2    3    3    0    0 -0.22565440857E-01  0.20302238820E-01  0.12943043818E+00  0.14086188643E+00  0.46566647950E-01 0.  0.
         14    1    1    2    0    0  0.33835420585E-02  0.11546300540E-01 -0.67054090103E-02  0.13774175947E-01  0.00000000000E+00 0. -1.
     999901    1    3    3    0    0  0.19181898798E-01 -0.31848539360E-01 -0.12272502917E+00  0.88929393762E+00  0.88000000000E+00 0.  1.
        -11    1    4    4    0    0 -0.23996576625E-01 -0.89908233846E-02  0.49960827806E-01  0.56151723312E-01  0.51100000000E-03 0.  1.
         11    1    4    4    0    0  0.14311357679E-02  0.29293062204E-01  0.79469610369E-01  0.84710163122E-01  0.51100000000E-03 0. -1.
</event>
<event>
 8    1  0.2922807E+004  0.1043930E+01  0.7957747E-01            NaN
         13   -1    0    0    0    0  0.00000000000E+00  0.00000000000E+00  0.74505805969E-08  0.10566000000E+00  0.10566000000E+00 0.  1.
     999900   -1    0    0    0    0 -0.00000000000E+00 -0.00000000000E+00 -0.74505805969E-08  0.93827000000E+00  0.93827000000E+00 0.  1.
     999902    2    1    2    0    0  0.67727405500E-02  0.11260793366E-01  0.42697303119E-02  0.10301131234E+01  0.10300204566E+01 0.  0.
     999903    2    3    3    0    0  0.11654844998E+00 -0.17013082603E-01 -0.61903682110E-01  0.14037774761E+00  0.44730973532E-01 0.  0.
         14    1    1    2    0    0 -0.67727405500E-02 -0.11260793366E-01 -0.42697303119E-02  0.13816876591E-01  0.00000000000E+00 0. -1.
     999901    1    3    3    0    0 -0.10977570943E+00  0.28273875969E-01  0.66173412422E-01  0.88973537580E+00  0.88000000000E+00 0.  1.
        -11    1    4    4    0    0  0.39704917747E-01 -0.21355019365E-01 -0.40207557731E-01  0.60410480590E-01  0.51100000000E-03 0.  1.
         11    1    4    4    0    0  0.76843532228E-01  0.43419367627E-02 -0.21696124379E-01  0.79967267017E-01  0.51100000000E-03 0. -1.
</event>
<event>
 8    1  0.2922807E+004  0.1043930E+01  0.7957747E-01            NaN
         13   -1    0    0    0    0  0.00000000000E+00  0.00000000000E+00  0.74505805969E-08  0.10566000000E+00  0.10566000000E+00 0.  1.
     999900   -1    0    0    0    0 -0.00000000000E+00 -0.00000000000E+00 -0.74505805969E-08  0.93827000000E+00  0.93827000000E+00 0. -1.
     999902    2    1    2    0    0 -0.80018121013E-02  0.93155234637E-02 -0.78260746117E-03  0.10316246983E+01  0.10315513064E+01 0.  0.
     999903    2    3    3    0    0  0.55253336175E-01 -0.42819991603E-01  0.11338892666E+00  0.14047125201E+00  0.44594182502E-01 0.  0.
         14    1    1    2    0    0  0.80018121013E-02 -0.93155234637E-02  0.78260746117E-03  0.12305301652E-01  0.00000000000E+00 0.  1.
     999901    1    3    3    0    0 -0.63255148277E-01  0.52135515067E-01 -0.11417153412E+00  0.89115344634E+00  0.88000000000E+00 0. -1.
        -11    1    4    4    0    0  0.31332450519E-02 -0.28374861808E-01  0.33833023128E-01  0.44270583711E-01  0.51100000000E-03 0. -1.
         11    1    4    4    0    0  0.52120091123E-01 -0.14445129796E-01  0.79555903532E-01  0.96200668300E-01  0.51100000000E-03 0.  1.
</event>
<event>
 8    1  0.2922807E+004  0.1043930E+01  0.7957747E-01            NaN
         13   -1    0    0    0    0  0.00000000000E+00  0.00000000000E+00  0.74505805969E-08  0.10566000000E+00  0.10566000000E+00 0. -1.
     999900   -1    0    0    0    0 -0.00000000000E+00 -0.00000000000E+00 -0.74505805969E-08  0.93827000000E+00  0.93827000000E+00 0.  1.
     999902    2    1    2    0    0 -0.60895167744E-02  0.29651016702E-02 -0.69010998282E-03  0.10371218950E+01  0.10370995491E+01 0.  0.
     999903    2    3    3    0    0  0.59906595212E-01 -0.18104353646E-01 -0.12448175266E+00  0.14576126113E+00  0.42826052011E-01 0.  0.
         14    1    1    2    0    0  0.60895167744E-02 -0.29651016702E-02  0.69010998282E-03  0.68081050410E-02  0.00000000000E+00 0.  1.
     999901    1    3    3    0    0 -0.65996111987E-01  0.21069455316E-01  0.12379164267E+00  0.89136063383E+00  0.88000000000E+00 0. -1.
        -11    1    4    4    0    0  0.51152237028E-01 -0.31243526996E-01 -0.95465567809E-01  0.11272375566E+00  0.51100000000E-03 0. -1.
         11    1    4    4    0    0  0.87543581839E-02  0.13139173350E-01 -0.29016184847E-01  0.33037505469E-01  0.51100000000E-03 0.  1.
</event>
<event>
 8    1  0.2922807E+004  0.1043930E+01  0.7957747E-01            NaN
         13   -1    0    0    0    0  0.00000000000E+00  0.00000000000E+00  0.74505805969E-08  0.10566000000E+00  0.10566000000E+00 0. -1.
     999900   -1    0    0    0    0 -0.00000000000E+00 -0.00000000000E+00 -0.74505805969E-08  0.93827000000E+00  0.93827000000E+00 0.  1.
     999902    2    1    2    0    0 -0.12500883224E-01  0.85172504882E-03  0.75032338198E-02  0.10293253420E+01  0.10292217272E+01 0.  0.
     999903    2    3    3    0    0 -0.54863557092E-01  0.77659030930E-01  0.92980882561E-01  0.14084327309E+00  0.46372923906E-01 0.  0.
         14    1    1    2    0    0  0.12500883224E-01 -0.85172504882E-03 -0.75032338198E-02  0.14604657979E-01  0.00000000000E+00 0.  1.
     999901    1    3    3    0    0  0.42362673868E-01 -0.76807305881E-01 -0.85477648741E-01  0.88848206893E+00  0.88000000000E+00 0.  1.
        -11    1    4    4    0    0 -0.22737673495E-01  0.21527670809E-02  0.28224148016E-01  0.36311153304E-01  0.51100000000E-03 0. -1.
         11    1    4    4    0    0 -0.32125883598E-01  0.75506263849E-01  0.64756734545E-01  0.10453211979E+00  0.51100000000E-03 0.  1.
</event>
<event>
 8    1  0.2922807E+004  0.1043930E+01  0.7957747E-01            NaN
         13   -1    0    0    0    0  0.00000000000E+00  0.00000000000E+00  0.74505805969E-08  0.10566000000E+00  0.10566000000E+00 0.  1.
     999900   -1    0    0    0    0 -0.00000000000E+00 -0.00000000000E+00 -0.74505805969E-08  0.93827000000E+00  0.93827000000E+00 0.  1.
     999902    2    1    2    0    0  0.48423818430E-02 -0.51155310894E-02 -0.10909791651E-01  0.10309438199E+01  0.10308620271E+01 0.  0.
     999903    2    3    3    0    0 -0.58195098429E-01 -0.11649491973E+00  0.27539819651E-01  0.14085536094E+00  0.46087473730E-01 0.  0.
         14    1    1    2    0    0 -0.48423818430E-02  0.51155310894E-02  0.10909791651E-01  0.12986180120E-01  0.00000000000E+00 0.  1.
     999901    1    3    3    0    0  0.63037480272E-01  0.11137938864E+00 -0.38449611301E-01  0.89008845894E+00  0.88000000000E+00 0. -1.
        -11    1    4    4    0    0 -0.61486125534E-01 -0.80620752844E-01  0.13944856585E-01  0.10234729878E+00  0.51100000000E-03 0.  1.
         11    1    4    4    0    0  0.32910271043E-02 -0.35874166885E-01  0.13594963066E-01  0.38508062154E-01  0.51100000000E-03 0. -1.
</event>
<event>
 8    1  0.2922807E+004  0.1043930E+01  0.7957747E-01            NaN
         13   -1    0    0    0    0  0.00000000000E+00  0.00000000000E+00  0.74505805969E-08  0.10566000000E+00  0.10566000000E+00 0.  1.
     999900   -1    0    0    0    0 -0.00000000000E+00 -0.00000000000E+00 -0.74505805969E-08  0.93827000000E+00  0.93827000000E+00 0. -1.
     999902    2    1    2    0    0  0.93924207871E-02  0.96766749266E-02 -0.56354447141E-02  0.10293144657E+01  0.10292106954E+01 0.  0.
     999903    2    3    3    0    0 -0.72759985315E-01  0.10954159388E+00  0.13405254419E-01  0.13966028114E+00  0.45076790370E-01 0.  0.
         14    1    1    2    0    0 -0.93924207871E-02 -0.96766749266E-02  0.56354447141E-02  0.14615534304E-01  0.00000000000E+00 0. -1.
     999901    1    3    3    0    0  0.82152406102E-01 -0.99864918955E-01 -0.19040699133E-01  0.88965418455E+00  0.88000000000E+00 0. -1.
        -11    1    4    4    0    0 -0.30627969082E-01  0.35006354799E-01 -0.15907243773E-01  0.49161152263E-01  0.51100000000E-03 0. -1.
         11    1    4    4    0    0 -0.42132016233E-01  0.74535239083E-01  0.29312498192E-01  0.90499128881E-01  0.51100000000E-03 0.  1.
</event>
<event>
 8    1  0.2922807E+004  0.1043930E+01  0.7957747E-01            NaN
         13   -1    0    0    0    0  0.00000000000E+00  0.00000000000E+00  0.74505805969E-08  0.10566000000E+00  0.10566000000E+00 0. -1.
     999900   -1    0    0    0    0 -0.00000000000E+00 -0.00000000000E+00 -0.74505805969E-08  0.93827000000E+00  0.93827000000E+00 0. -1.
     999902    2    1    2    0    0  0.28076211906E-02 -0.13996005696E-01  0.42849353153E-02  0.10290259206E+01  0.10289179820E+01 0.  0.
     999903    2    3    3    0    0 -0.64789371168E-01  0.34001509564E-01  0.10870593421E+00  0.13898274195E+00  0.46319079843E-01 0.  0.
         14    1    1    2    0    0 -0.28076211906E-02  0.13996005696E-01 -0.42849353153E-02  0.14904079403E-01  0.00000000000E+00 0.  1.
     999901    1    3    3    0    0  0.67596992359E-01 -0.47997515260E-01 -0.10442099890E+00  0.89004317865E+00  0.88000000000E+00 0. -1.
        -11    1    4    4    0    0 -0.27205211589E-02  0.18334986470E-01  0.92939995774E-02  0.20741564873E-01  0.51100000000E-03 0.  1.
         11    1    4    4    0    0 -0.62068850009E-01  0.15666523094E-01  0.99411934636E-01  0.11824117708E+00  0.51100000000E-03 0. -1.
</event>
<event>
 8    1  0.2922807E+004  0.1043930E+01  0.7957747E-01            NaN
         13   -1    0    0    0    0  0.00000000000E+00  0.00000000000E+00  0.74505805969E-08  0.10566000000E+00  0.10566000000E+00 0.  1.
     999900   -1    0    0    0    0 -0.00000000000E+00 -0.00000000000E+00 -0.74505805969E-08  0.93827000000E+00  0.93827000000E+00 0. -1.
     999902    2    1    2    0    0  0.49830005944E-02 -0.77957715034E-02  0.97739147025E-02  0.10304714058E+01  0.10303835133E+01 0.  0.
     999903    2    3    3    0    0  0.59196687485E-01 -0.10184055196E+00 -0.63124843045E-01  0.14080979969E+00  0.44349837048E-01 0.  0.
         14    1    1    2    0    0 -0.49830005944E-02  0.77957715034E-02 -0.97739147025E-02  0.13458594164E-01  0.00000000000E+00 0. -1.
     999901    1    3    3    0    0 -0.54213686891E-01  0.94044780453E-01  0.72898757748E-01  0.88966160615E+00  0.88000000000E+00 0.  1.
        -11    1    4    4    0    0  0.44354549242E-01 -0.92542883985E-01 -0.67394990888E-01  0.12277563819E+00  0.51100000000E-03 0. -1.
         11    1    4    4    0    0  0.14842138243E-01 -0.92976679711E-02  0.42701478426E-02  0.18034161498E-01  0.51100000000E-03 0.  1.
</event>
<event>
 8    1  0.2922807E+004  0.1043930E+01  0.7957747E-01            NaN
         13   -1    0    0    0    0  0.00000000000E+00  0.00000000000E+00  0.74505805969E-08  0.10566000000E+00  0.10566000000E+00 0. -1.
     999900   -1    0    0    0    0 -0.00000000000E+00 -0.00000000000E+00 -0.74505805969E-08  0.93827000000E+00  0.93827000000E+00 0. -1.
     999902    2    1    2    0    0  0.10511716872E-02  0.11721373823E-01 -0.47253824323E-02  0.10312483280E+01  0.10311703492E+01 0.  0.
     999903    2    3    3    0    0 -0.78333308640E-01 -0.43510031645E-01  0.97794335184E-01  0.14003415822E+00  0.44906607297E-01 0.  0.
         14    1    1    2    0    0 -0.10511716872E-02 -0.11721373823E-01  0.47253824323E-02  0.12681672025E-01  0.00000000000E+00 0.  1.
     999901    1    3    3    0    0  0.79384480328E-01  0.55231405468E-01 -0.10251971762E+00  0.89121416975E+00  0.88000000000E+00 0. -1.
        -11    1    4    4    0    0 -0.26431658531E-01 -0.88886133428E-02  0.62287432346E-01  0.68246797501E-01  0.51100000000E-03 0. -1.
         11    1    4    4    0    0 -0.51901650110E-01 -0.34621418302E-01  0.35506902838E-01  0.71787360722E-01  0.51100000000E-03 0.  1.
</event>
<event>
 8    1  0.2922807E+004  0.1043930E+01  0.7957747E-01            NaN
         13   -1    0    0    0    0  0.00000000000E+00  0.00000000000E+00  0.74505805969E-08  0.10566000000E+00  0.10566000000E+00 0.  1.
     999900   -1    0    0    0    0 -0.00000000000E+00 -0.00000000000E+00 -0.74505805969E-08  0.93827000000E+00  0.93827000000E+00 0.  1.
     999902    2    1    2    0    0 -0.13661043747E-01 -0.10087536945E-02  0.11326122978E-02  0.10301850187E+01  0.10300933202E+01 0.  0.
     999903    2    3    3    0    0 -0.16208843938E-01  0.81579269917E-01 -0.10347733402E+00  0.14014540509E+00  0.44891781103E-01 0.  0.
         14    1    1    2    0    0  0.13661043747E-01  0.10087536945E-02 -0.11326122978E-02  0.13744981298E-01  0.00000000000E+00 0.  1.
     999901    1    3    3    0    0  0.25478001909E-02 -0.82588023611E-01  0.10460994632E+00  0.89003961361E+00  0.88000000000E+00 0.  1.
        -11    1    4    4    0    0 -0.58277264901E-02  0.70140072432E-01 -0.10291286108E+00  0.12467922944E+00  0.51100000000E-03 0. -1.
         11    1    4    4    0    0 -0.10381117448E-01  0.11439197485E-01 -0.56447293650E-03  0.15466175651E-01  0.51100000000E-03 0.  1.
</event>
<event>
 8    1  0.2922807E+004  0.1043930E+01  0.7957747E-01            NaN
         13   -1    0    0    0    0  0.00000000000E+00  0.00000000000E+00  0.74505805969E-08  0.10566000000E+00  0.10566000000E+00 0. -1.
     999900   -1    0    0    0    0 -0.00000000000E+00 -0.00000000000E+00 -0.74505805969E-08  0.93827000000E+00  0.93827000000E+00 0.  1.
     999902    2    1    2    0    0  0.85883406596E-03  0.32973970379E-02 -0.14318231408E-01  0.10292119100E+01  0.10291066677E+01 0.  0.
     999903    2    3    3    0    0  0.57293174613E-01  0.10300999555E+00  0.57251672120E-01  0.13890314995E+00  0.46073463776E-01 0.  0.
         14    1    1    2    0    0 -0.85883406596E-03 -0.32973970379E-02  0.14318231408E-01  0.14718090020E-01  0.00000000000E+00 0. -1.
     999901    1    3    3    0    0 -0.56434340547E-01 -0.99712598515E-01 -0.71569903529E-01  0.89030876003E+00  0.88000000000E+00 0.  1.
        -11    1    4    4    0    0 -0.10364417767E-02  0.42441516565E-01  0.19960274704E-01  0.46915138571E-01  0.51100000000E-03 0.  1.
         11    1    4    4    0    0  0.58329616389E-01  0.60568478988E-01  0.37291397416E-01  0.91988011378E-01  0.51100000000E-03 0. -1.
</event>
<event>
 8    1  0.2922807E+004  0.1043930E+01  0.7957747E-01            NaN
         13   -1    0    0    0    0  0.00000000000E+00  0.00000000000E+00  0.74505805969E-08  0.10566000000E+00  0.10566000000E+00 0.  1.
     999900   -1    0    0    0    0 -0.00000000000E+00 -0.00000000000E+00 -0.74505805969E-08  0.93827000000E+00  0.93827000000E+00 0.  1.
     999902    2    1    2    0    0 -0.50653681628E-02 -0.87944439743E-02 -0.11002948944E-01  0.10289611963E+01  0.10288523112E+01 0.  0.
     999903    2    3    3    0    0  0.86328985563E-01  0.97223231243E-01 -0.55763306200E-02  0.13788200589E+00  0.45555478749E-01 0.  0.
         14    1    1    2    0    0  0.50653681628E-02  0.87944439743E-02  0.11002948944E-01  0.14968803723E-01  0.00000000000E+00 0. -1.
     999901    1    3    3    0    0 -0.91394353725E-01 -0.10601767522E+00 -0.54266183236E-02  0.89107919039E+00  0.88000000000E+00 0. -1.
        -11    1    4    4    0    0  0.76851898905E-01  0.56286532011E-01 -0.91966633012E-02  0.95703854614E-01  0.51100000000E-03 0. -1.
         11    1    4    4    0    0  0.94770866575E-02  0.40936699231E-01  0.36203326812E-02  0.42178151277E-01  0.51100000000E-03 0.  1.
</event>
<event>
 8    1  0.2922807E+004  0.1043930E+01  0.7957747E-01            NaN
         13   -1    0    0    0    0  0.00000000000E+00  0.00000000000E+00  0.74505805969E-08  0.10566000000E+00  0.10566000000E+00 0.  1.
     999900   -1    0    0    0    0 -0.00000000000E+00 -0.00000000000E+00 -0.74505805969E-08  0.93827000000E+00  0.93827000000E+00 0. -1.
     999902    2    1    2    0    0  0.11454854134E-02 -0.84850436680E-02  0.11806632009E-01  0.10293456021E+01  0.10292422766E+01 0.  0.
     999903    2    3    3    0    0  0.81028197371E-03 -0.89088004401E-01 -0.96801692413E-01  0.13901267685E+00  0.44906876821E-01 0.  0.
         14    1    1    2    0    0 -0.11454854134E-02  0.84850436680E-02 -0.11806632009E-01  0.14584397906E-01  0.00000000000E+00 0. -1.
     999901    1    3    3    0    0  0.33520343968E-03  0.80602960733E-01  0.10860832442E+00  0.89033292524E+00  0.88000000000E+00 0.  1.
        -11    1    4    4    0    0 -0.52227196132E-02 -0.65178768511E-01 -0.93546547443E-01  0.11413486025E+00  0.51100000000E-03 0.  1.
         11    1    4    4    0    0  0.60330015869E-02 -0.23909235891E-01 -0.32551449705E-02  0.24877816600E-01  0.51100000000E-03 0. -1.
</event>
<event>
 8    1  0.2922807E+004  0.1043930E+01  0.7957747E-01            NaN
         13   -1    0    0    0    0  0.00000000000E+00  0.00000000000E+00  0.74505805969E-08  0.10566000000E+00  0.10566000000E+00 0. -1.
     999900   -1    0    0    0    0 -0.00000000000E+00 -0.00000000000E+00 -0.74505805969E-08  0.93827000000E+00  0.93827000000E+00 0. -1.
     999902    2    1    2    0    0  0.58105637058E-02  0.18727694498E-01  0.34360005716E-02  0.10240228332E+01  0.10238293156E+01 0.  0.
     999903    2    3    3    0    0  0.88756542722E-01 -0.90552417634E-01  0.27941799371E-02  0.13339238776E+00  0.41331071295E-01 0.  0.
         14    1    1    2    0    0 -0.58105637058E-02 -0.18727694498E-01 -0.34360005716E-02  0.19907166843E-01  0.00000000000E+00 0. -1.
     999901    1    3    3    0    0 -0.82945979016E-01  0.10928011213E+00  0.64182063444E-03  0.89063044540E+00  0.88000000000E+00 0.  1.
        -11    1    4    4    0    0  0.63651973416E-01 -0.37695042208E-01 -0.59822105153E-02  0.74219524995E-01  0.51100000000E-03 0.  1.
         11    1    4    4    0    0  0.25104569305E-01 -0.52857375426E-01  0.87763904524E-02  0.59172862761E-01  0.51100000000E-03 0. -1.
</event>
<event>
 8    1  0.2922807E+004  0.1043930E+01  0.7957747E-01            NaN
         13   -1    0    0    0    0  0.00000000000E+00  0.00000000000E+00  0.74505805969E-08  0.10566000000E+00  0.10566000000E+00 0. -1.
     999900   -1    0    0    0    0 -0.00000000000E+00 -0.00000000000E+00 -0.74505805969E-08  0.93827000000E+00  0.93827000000E+00 0.  1.
     999902    2    1    2    0    0 -0.57428546381E-02 -0.92944220263E-02 -0.83158360490E-02  0.10301997491E+01  0.10301082483E+01 0.  0.
     999903    2    3    3    0    0 -0.10690407156E+00 -0.60810391219E-01  0.52055459210E-01  0.14085606966E+00  0.44769156013E-01 0.  0.
         14    1    1    2    0    0  0.57428546381E-02  0.92944220263E-02  0.83158360490E-02  0.13730250886E-01  0.00000000000E+00 0. -1.
     999901    1    3    3    0    0  0.10116121692E+00  0.51515969193E-01 -0.60371295259E-01  0.88934367945E+00  0.88000000000E+00 0.  1.
        -11    1    4    4    0    0 -0.61463240196E-01 -0.43704583908E-01  0.89900207692E-02  0.75953289227E-01  0.51100000000E-03 0.  1.
         11    1    4    4    0    0 -0.45440831366E-01 -0.17105807311E-01  0.43065438441E-01  0.64902780434E-01  0.51100000000E-03 0. -1.
</event>
<event>
 8    1  0.2922807E+004  0.1043930E+01  0.7957747E-01            NaN
         13   -1    0    0    0    0  0.00000000000E+00  0.00000000000E+00  0.74505805969E-08  0.10566000000E+00  0.10566000000E+00 0. -1.
     999900   -1    0    0    0    0 -0.00000000000E+00 -0.00000000000E+00 -0.74505805969E-08  0.93827000000E+00  0.93827000000E+00 0.  1.
     999902    2    1    2    0    0  0.56952452692E-02  0.43491699149E-03 -0.12594247879E-01  0.10301010430E+01  0.10300082130E+01 0.  0.
     999903    2    3    3    0    0  0.13036653332E+00 -0.11737741949E-01  0.24403647303E-01  0.14046069550E+00  0.44726517658E-01 0.  0.
         14    1    1    2    0    0 -0.56952452692E-02 -0.43491699149E-03  0.12594247879E-01  0.13828956978E-01  0.00000000000E+00 0. -1.
     999901    1    3    3    0    0 -0.12467128805E+00  0.12172658941E-01 -0.36997895182E-01  0.88964034752E+00  0.88000000000E+00 0. -1.
        -11    1    4    4    0    0  0.68535471827E-01 -0.16588239537E-01  0.32979982567E-01  0.77847421027E-01  0.51100000000E-03 0.  1.
         11    1    4    4    0    0  0.61831061497E-01  0.48504975876E-02 -0.85763352639E-02  0.62613274473E-01  0.51100000000E-03 0. -1.
</event>
<event>
 8    1  0.2922807E+004  0.1043930E+01  0.7957747E-01            NaN
         13   -1    0    0    0    0  0.00000000000E+00  0.00000000000E+00  0.74505805969E-08  0.10566000000E+00  0.10566000000E+00 0. -1.
     999900   -1    0    0    0    0 -0.00000000000E+00 -0.00000000000E+00 -0.74505805969E-08  0.93827000000E+00  0.93827000000E+00 0. -1.
     999902    2    1    2    0    0  0.12559423038E-01  0.26447484900E-02  0.59439506704E-02  0.10297855894E+01  0.10296884460E+01 0.  0.
     999903    2    3    3    0    0 -0.10355518120E+00  0.80875996875E-01 -0.39120288649E-02  0.13866277526E+00  0.44130022087E-01 0.  0.
         14    1    1    2    0    0 -0.12559423038E-01 -0.26447484900E-02 -0.59439506704E-02  0.14144410599E-01  0.00000000000E+00 0.  1.
     999901    1    3    3    0    0  0.11611460424E+00 -0.78231248385E-01  0.98559795353E-02  0.89112281414E+00  0.88000000000E+00 0.  1.
        -11    1    4    4    0    0 -0.47714337215E-01  0.56758760624E-01 -0.17823719417E-01  0.76263759272E-01  0.51100000000E-03 0. -1.
         11    1    4    4    0    0 -0.55840843989E-01  0.24117236252E-01  0.13911690552E-01  0.62399015992E-01  0.51100000000E-03 0.  1.
</event>
<event>
 8    1  0.2922807E+004  0.1043930E+01  0.7957747E-01            NaN
         13   -1    0    0    0    0  0.00000000000E+00  0.00000000000E+00  0.74505805969E-08  0.10566000000E+00  0.10566000000E+00 0.  1.
     999900   -1    0    0    0    0 -0.00000000000E+00 -0.00000000000E+00 -0.74505805969E-08  0.93827000000E+00  0.93827000000E+00 0. -1.
     999902    2    1    2    0    0 -0.37069690882E-02  0.69064195011E-02  0.11672238916E-01  0.10298700778E+01  0.10297740994E+01 0.  0.
     999903    2    3    3    0    0 -0.10447220838E+00  0.79640299711E-01 -0.19804787357E-01  0.14058123051E+00  0.45976440803E-01 0.  0.
         14    1    1    2    0    0  0.37069690882E-02 -0.69064195011E-02 -0.11672238916E-01  0.14059922171E-01  0.00000000000E+00 0. -1.
     999901    1    3    3    0    0  0.10076523929E+00 -0.72733880210E-01  0.31477026273E-01  0.88928884732E+00  0.88000000000E+00 0.  1.
        -11    1    4    4    0    0 -0.48683551240E-01  0.64062249865E-01 -0.18881393847E-01  0.82648824394E-01  0.51100000000E-03 0.  1.
         11    1    4    4    0    0 -0.55788657136E-01  0.15578049846E-01 -0.92339351046E-03  0.57932406118E-01  0.51100000000E-03 0. -1.
</event>
<event>
 8    1  0.2922807E+004  0.1043930E+01  0.7957747E-01            NaN
         13   -1    0    0    0    0  0.00000000000E+00  0.00000000000E+00  0.74505805969E-08  0.10566000000E+00  0.10566000000E+00 0.  1.
     999900   -1    0    0    0    0 -0.00000000000E+00 -0.00000000000E+00 -0.74505805969E-08  0.93827000000E+00  0.93827000000E+00 0. -1.
     999902    2    1    2    0    0 -0.80657342363E-02  0.25488081845E-02  0.10820733649E-01  0.10301953442E+01  0.10301037844E+01 0.  0.
     999903    2    3    3    0    0  0.12029248056E+00 -0.53340104168E-01 -0.20115719703E-02  0.13903650886E+00  0.44851496980E-01 0.  0.
         14    1    1    2    0    0  0.80657342363E-02 -0.25488081845E-02 -0.10820733649E-01  0.13734655752E-01  0.00000000000E+00 0. -1.
     999901    1    3    3    0    0 -0.12835821480E+00  0.55888912352E-01  0.12832305619E-01  0.89115883539E+00  0.88000000000E+00 0.  1.
        -11    1    4    4    0    0  0.51437379545E-01 -0.45420457475E-01  0.76803660383E-02  0.69051220953E-01  0.51100000000E-03 0. -1.
         11    1    4    4    0    0  0.68855101015E-01 -0.79196466926E-02 -0.96919380086E-02  0.69985287903E-01  0.51100000000E-03 0.  1.
</event>
<event>
 7    1  0.2922807E+004  0.1043930E+01  0.7957747E-01            NaN
         13   -1    0    0    0    0  0.00000000000E+00  0.00000000000E+00  0.74505805969E-08  0.10566000000E+00  0.10566000000E+00 0.  1.
     999900   -1    0    0    0    0 -0.00000000000E+00 -0.00000000000E+00 -0.74505805969E-08  0.93827000000E+00  0.93827000000E+00 0.  1.
     999903    2    1    2    0    0 -0.36449804688E-01  0.19634642378E-01  0.63161677951E-01  0.87848751993E-01  0.44876477381E-01 0.  0.
         14    1    1    2    0    0  0.23644593781E-02  0.67663710919E-01 -0.17488810266E-01  0.69927297445E-01  0.00000000000E+00 0.  1.
     999901    1    1    2    0    0  0.34085345310E-01 -0.87298353297E-01 -0.45672867685E-01  0.88615395056E+00  0.88000000000E+00 0. -1.
        -11    1    3    3    0    0 -0.75429027411E-02 -0.13715297708E-01  0.25006340729E-01  0.29505643031E-01  0.51100000000E-03 0.  1.
         11    1    3    3    0    0 -0.28906901947E-01  0.33349940086E-01  0.38155337221E-01  0.58343108962E-01  0.51100000000E-03 0. -1.
</event>
<event>
 8    1  0.2922807E+004  0.1043930E+01  0.7957747E-01            NaN
         13   -1    0    0    0    0  0.00000000000E+00  0.00000000000E+00  0.74505805969E-08  0.10566000000E+00  0.10566000000E+00 0. -1.
     999900   -1    0    0    0    0 -0.00000000000E+00 -0.00000000000E+00 -0.74505805969E-08  0.93827000000E+00  0.93827000000E+00 0.  1.
     999902    2    1    2    0    0  0.93128155271E-02 -0.36987372494E-02 -0.91586082242E-02  0.10303546807E+01  0.10302652468E+01 0.  0.
     999903    2    3    3    0    0  0.96652317803E-01 -0.44509726307E-01 -0.82833036611E-01  0.14202948859E+00  0.44590104312E-01 0.  0.
         14    1    1    2    0    0 -0.93128155271E-02  0.36987372494E-02  0.91586082242E-02  0.13575319329E-01  0.00000000000E+00 0. -1.
     999901    1    3    3    0    0 -0.87339502276E-01  0.40810989058E-01  0.73674428387E-01  0.88832519208E+00  0.88000000000E+00 0.  1.
        -11    1    4    4    0    0  0.83406518554E-01 -0.53426961686E-01 -0.67339401937E-01  0.11977455384E+00  0.51100000000E-03 0. -1.
         11    1    4    4    0    0  0.13245799249E-01  0.89172353790E-02 -0.15493634674E-01  0.22254934755E-01  0.51100000000E-03 0.  1.
</event>
<event>
 8    1  0.2922807E+004  0.1043930E+01  0.7957747E-01            NaN
         13   -1    0    0    0    0  0.00000000000E+00  0.00000000000E+00  0.74505805969E-08  0.10566000000E+00  0.10566000000E+00 0. -1.
     999900   -1    0    0    0    0 -0.00000000000E+00 -0.00000000000E+00 -0.74505805969E-08  0.93827000000E+00  0.93827000000E+00 0. -1.
     999902    2    1    2    0    0  0.65000571717E-02  0.11866816881E-01  0.32990720863E-02  0.10300031927E+01  0.10299090353E+01 0.  0.
     999903    2    3    3    0    0 -0.82866658152E-01  0.76591790686E-01 -0.69579355481E-01  0.14012286517E+00  0.45386619184E-01 0.  0.
         14    1    1    2    0    0 -0.65000571717E-02 -0.11866816881E-01 -0.32990720863E-02  0.13926807343E-01  0.00000000000E+00 0.  1.
     999901    1    3    3    0    0  0.89366715324E-01 -0.64724973805E-01  0.72878427567E-01  0.88988032749E+00  0.88000000000E+00 0.  1.
        -11    1    4    4    0    0 -0.68064220919E-01  0.35340974873E-01 -0.53171579480E-01  0.93323098211E-01  0.51100000000E-03 0. -1.
         11    1    4    4    0    0 -0.14802437233E-01  0.41250815813E-01 -0.16407776000E-01  0.46799766960E-01  0.51100000000E-03 0.  1.
</event>
<event>
 8    1  0.2922807E+004  0.1043930E+01  0.7957747E-01            NaN
         13   -1    0    0    0    0  0.00000000000E+00  0.00000000000E+00  0.74505805969E-08  0.10566000000E+00  0.10566000000E+00 0.  1.
     999900   -1    0    0    0    0 -0.00000000000E+00 -0.00000000000E+00 -0.74505805969E-08  0.93827000000E+00  0.93827000000E+00 0.  1.
     999902    2    1    2    0    0 -0.11796541243E-01 -0.70216690748E-02  0.30337957210E-02  0.10298706210E+01  0.10297746500E+01 0.  0.
     999903    2    3    3    0    0 -0.72479193152E-01  0.11037724831E+00  0.71557600960E-02  0.13999316839E+00  0.45940308087E-01 0.  0.
         14    1    1    2    0    0  0.11796541243E-01  0.70216690748E-02 -0.30337957210E-02  0.14059379018E-01  0.00000000000E+00 0. -1.
     999901    1    3    3    0    0  0.60682651909E-01 -0.11739891739E+00 -0.41219643750E-02  0.88987745260E+00  0.88000000000E+00 0.  1.
        -11    1    4    4    0    0 -0.18538877516E-01  0.69794934828E-01  0.11944053789E-02  0.72226799959E-01  0.51100000000E-03 0. -1.
         11    1    4    4    0    0 -0.53940315636E-01  0.40582313486E-01  0.59613547171E-02  0.67766368427E-01  0.51100000000E-03 0.  1.
</event>
<event>
 8    1  0.2922807E+004  0.1043930E+01  0.7957747E-01            NaN
         13   -1    0    0    0    0  0.00000000000E+00  0.00000000000E+00  0.74505805969E-08  0.10566000000E+00  0.10566000000E+00 0.  1.
     999900   -1    0    0    0    0 -0.00000000000E+00 -0.00000000000E+00 -0.74505805969E-08  0.93827000000E+00  0.93827000000E+00 0. -1.
     999902    2    1    2    0    0 -0.56578590858E-02  0.57057916521E-03 -0.13577281676E-01  0.10292099624E+01  0.10291046920E+01 0.  0.
     999903    2    3    3    0    0 -0.33728217919E-01 -0.21990361538E-01  0.12387641812E+00  0.13781192520E+00  0.45006567034E-01 0.  0.
         14    1    1    2    0    0  0.56578590858E-02 -0.57057916521E-03  0.13577281676E-01  0.14720037626E-01  0.00000000000E+00 0.  1.
     999901    1    3    3    0    0  0.28070358833E-01  0.22560940703E-01 -0.13745369980E+00  0.89139803717E+00  0.88000000000E+00 0. -1.
        -11    1    4    4    0    0 -0.12746700452E-01  0.12210472437E-01  0.58460417015E-01  0.61069267951E-01  0.51100000000E-03 0. -1.
         11    1    4    4    0    0 -0.20981517467E-01 -0.34200833975E-01  0.65416001106E-01  0.76742657248E-01  0.51100000000E-03 0.  1.
</event>
<event>
 8    1  0.2922807E+004  0.1043930E+01  0.7957747E-01            NaN
         13   -1    0    0    0    0  0.00000000000E+00  0.00000000000E+00  0.74505805969E-08  0.10566000000E+00  0.10566000000E+00 0. -1.
     999900   -1    0    0    0    0 -0.00000000000E+00 -0.00000000000E+00 -0.74505805969E-08  0.93827000000E+00  0.93827000000E+00 0.  1.
     999902    2    1    2    0    0  0.24691931674E-02 -0.11602554595E-01  0.66430594964E-02  0.10303341761E+01  0.10302444700E+01 0.  0.
     999903    2    3    3    0    0 -0.78334598482E-01  0.55529580475E-01 -0.89291144401E-01  0.13890871776E+00  0.45857167094E-01 0.  0.
         14    1    1    2    0    0 -0.24691931674E-02  0.11602554595E-01 -0.66430594964E-02  0.13595823899E-01  0.00000000000E+00 0.  1.
     999901    1    3    3    0    0  0.80803791649E-01 -0.67132135069E-01  0.95934203897E-01  0.89142545834E+00  0.88000000000E+00 0. -1.
        -11    1    4    4    0    0 -0.17656116094E-01  0.39413302522E-01 -0.30301680396E-01  0.52759831378E-01  0.51100000000E-03 0.  1.
         11    1    4    4    0    0 -0.60678482388E-01  0.16116277952E-01 -0.58989464005E-01  0.86148886380E-01  0.51100000000E-03 0. -1.
</event>
<event>
 8    1  0.2922807E+004  0.1043930E+01  0.7957747E-01            NaN
         13   -1    0    0    0    0  0.00000000000E+00  0.00000000000E+00  0.74505805969E-08  0.10566000000E+00  0.10566000000E+00 0.  1.
     999900   -1    0    0    0    0 -0.00000000000E+00 -0.00000000000E+00 -0.74505805969E-08  0.93827000000E+00  0.93827000000E+00 0.  1.
     999902    2    1    2    0    0  0.11408009654E-01  0.76968662398E-02 -0.10929865160E-02  0.10301249627E+01  0.10300324557E+01 0.  0.
     999903    2    3    3    0    0 -0.25909095632E-01  0.13125938179E+00 -0.27535513462E-02  0.14070772709E+00  0.43483052733E-01 0.  0.
         14    1    1    2    0    0 -0.11408009654E-01 -0.76968662398E-02  0.10929865160E-02  0.13805037258E-01  0.00000000000E+00 0.  1.
     999901    1    3    3    0    0  0.37317105286E-01 -0.12356251555E+00  0.16605648302E-02  0.88941723565E+00  0.88000000000E+00 0.  1.
        -11    1    4    4    0    0  0.43532475475E-02  0.34322698229E-01  0.14828601569E-01  0.37645011933E-01  0.51100000000E-03 0.  1.
         11    1    4    4    0    0 -0.30262343180E-01  0.96936683557E-01 -0.17582152915E-01  0.10306271516E+00  0.51100000000E-03 0. -1.
</event>
<event>
 8    1  0.2922807E+004  0.1043930E+01  0.7957747E-01            NaN
         13   -1    0    0    0    0  0.00000000000E+00  0.00000000000E+00  0.74505805969E-08  0.10566000000E+00  0.10566000000E+00 0. -1.
     999900   -1    0    0    0    0 -0.00000000000E+00 -0.00000000000E+00 -0.74505805969E-08  0.93827000000E+00  0.93827000000E+00 0.  1.
     999902    2    1    2    0    0  0.10164422783E-01  0.45684538462E-02 -0.18789463661E-02  0.10326288186E+01  0.10325669762E+01 0.  0.
     999903    2    3    3    0    0 -0.32487674793E-01  0.13054669091E+00 -0.47662702397E-02  0.14262991173E+00  0.47145380117E-01 0.  0.
         14    1    1    2    0    0 -0.10164422783E-01 -0.45684538462E-02  0.18789463661E-02  0.11301181377E-01  0.00000000000E+00 0. -1.
     999901    1    3    3    0    0  0.42652097576E-01 -0.12597823706E+00  0.28873238736E-02  0.88999890690E+00  0.88000000000E+00 0.  1.
        -11    1    4    4    0    0 -0.33106748294E-01  0.42238708127E-01 -0.79810962636E-02  0.54259784974E-01  0.51100000000E-03 0. -1.
         11    1    4    4    0    0  0.61907350048E-03  0.88307982780E-01  0.32148260239E-02  0.88370126752E-01  0.51100000000E-03 0.  1.
</event>
<event>
 8    1  0.2922807E+004  0.1043930E+01  0.7957747E-01            NaN
         13   -1    0    0    0    0  0.00000000000E+00  0.00000000000E+00  0.74505805969E-08  0.10566000000E+00  0.10566000000E+00 0.  1.
     999900   -1    0    0    0    0 -0.00000000000E+00 -0.00000000000E+00 -0.74505805969E-08  0.93827000000E+00  0.93827000000E+00 0. -1.
     999902    2    1    2    0    0 -0.20488973054E-03 -0.10876517999E-01 -0.89778146159E-02  0.10298253278E+01  0.10297287332E+01 0.  0.
     999903    2    3    3    0    0  0.48792055175E-01  0.11248186216E+00 -0.47748171703E-01  0.13902729726E+00  0.44898413310E-01 0.  0.
         14    1    1    2    0    0  0.20488973054E-03  0.10876517999E-01  0.89778146159E-02  0.14104672235E-01  0.00000000000E+00 0.  1.
     999901    1    3    3    0    0 -0.48996944905E-01 -0.12335838016E+00  0.38770357087E-01  0.89079803051E+00  0.88000000000E+00 0.  1.
        -11    1    4    4    0    0  0.39110021870E-01  0.35963909946E-01 -0.24176666260E-01  0.58376099062E-01  0.51100000000E-03 0.  1.
         11    1    4    4    0    0  0.96820333050E-02  0.76517952218E-01 -0.23571505444E-01  0.80651198196E-01  0.51100000000E-03 0. -1.
</event>
<event>
 8    1  0.2922807E+004  0.1043930E+01  0.7957747E-01            NaN
         13   -1    0    0    0    0  0.00000000000E+00  0.00000000000E+00  0.74505805969E-08  0.10566000000E+00  0.10566000000E+00 0. -1.
     999900   -1    0    0    0    0 -0.00000000000E+00 -0.00000000000E+00 -0.74505805969E-08  0.93827000000E+00  0.93827000000E+00 0.  1.
     999902    2    1    2    0    0 -0.47984769534E-02  0.77882261774E-02 -0.10126494412E-01  0.10302834716E+01  0.10301930907E+01 0.  0.
     999903    2    3    3    0    0  0.72219521082E-01 -0.14299647603E-01 -0.11138300637E+00  0.14086089071E+00  0.44894067280E-01 0.  0.
         14    1    1    2    0    0  0.47984769534E-02 -0.77882261774E-02  0.10126494412E-01  0.13646528391E-01  0.00000000000E+00 0.  1.
     999901    1    3    3    0    0 -0.77017998035E-01  0.22087873780E-01  0.10125651196E+00  0.88942258089E+00  0.88000000000E+00 0. -1.
        -11    1    4    4    0    0  0.65731399378E-01 -0.88177878814E-02 -0.11405991009E+00  0.13194049590E+00  0.51100000000E-03 0. -1.
         11    1    4    4    0    0  0.64881217040E-02 -0.54818597215E-02  0.26769037111E-02  0.89203948192E-02  0.51100000000E-03 0.  1.
</event>
<event>
 8    1  0.2922807E+004  0.1043930E+01  0.7957747E-01            NaN
         13   -1    0    0    0    0  0.00000000000E+00  0.00000000000E+00  0.74505805969E-08  0.10566000000E+00  0.10566000000E+00 0.  1.
     999900   -1    0    0    0    0 -0.00000000000E+00 -0.00000000000E+00 -0.74505805969E-08  0.93827000000E+00  0.93827000000E+00 0. -1.
     999902    2    1    2    0    0  0.15006809720E-01  0.13019137939E-02 -0.28356203584E-02  0.10286022454E+01  0.10284880355E+01 0.  0.
     999903    2    3    3    0    0  0.10523489188E+00 -0.35175732391E-01 -0.73718945410E-01  0.14040397294E+00  0.44351754028E-01 0.  0.
         14    1    1    2    0    0 -0.15006809720E-01 -0.13019137939E-02  0.28356203584E-02  0.15327754575E-01  0.00000000000E+00 0. -1.
     999901    1    3    3    0    0 -0.90228082162E-01  0.36477646184E-01  0.70883325051E-01  0.88819827249E+00  0.88000000000E+00 0.  1.
        -11    1    4    4    0    0  0.61318240452E-01 -0.36995647757E-01 -0.62461797612E-01  0.95028110825E-01  0.51100000000E-03 0. -1.
         11    1    4    4    0    0  0.43916651430E-01  0.18199153668E-02 -0.11257147797E-01  0.45375862111E-01  0.51100000000E-03 0.  1.
</event>
<event>
 8    1  0.2922807E+004  0.1043930E+01  0.7957747E-01            NaN
         13   -1    0    0    0    0  0.00000000000E+00  0.00000000000E+00  0.74505805969E-08  0.10566000000E+00  0.10566000000E+00 0. -1.
     999900   -1    0    0    0    0 -0.00000000000E+00 -0.00000000000E+00 -0.74505805969E-08  0.93827000000E+00  0.93827000000E+00 0.  1.
     999902    2    1    2    0    0  0.33483662124E-02 -0.69717768482E-02  0.10854617713E-01  0.10306018360E+01  0.10305156498E+01 0.  0.
     999903    2    3    3    0    0  0.10047107616E+00  0.16366057905E-03  0.89179747727E-01  0.14177195286E+00  0.45296746935E-01 0.  0.
         14    1    1    2    0    0 -0.33483662124E-02  0.69717768482E-02 -0.10854617713E-01  0.13328163955E-01  0.00000000000E+00 0.  1.
     999901    1    3    3    0    0 -0.97122709948E-01 -0.71354374273E-02 -0.78325130015E-01  0.88882988319E+00  0.88000000000E+00 0.  1.
        -11    1    4    4    0    0  0.61552650697E-02  0.10679475154E-01  0.22915582204E-01  0.26025439600E-01  0.51100000000E-03 0.  1.
         11    1    4    4    0    0  0.94315811090E-01 -0.10515814575E-01  0.66264165524E-01  0.11574651326E+00  0.51100000000E-03 0. -1.
</event>
<event>
 8    1  0.2922807E+004  0.1043930E+01  0.7957747E-01            NaN
         13   -1    0    0    0    0  0.00000000000E+00  0.00000000000E+00  0.74505805969E-08  0.10566000000E+00  0.10566000000E+00 0. -1.
     999900   -1    0    0    0    0 -0.00000000000E+00 -0.00000000000E+00 -0.74505805969E-08  0.93827000000E+00  0.93827000000E+00 0.  1.
     999902    2    1    2    0    0  0.21707448057E-02  0.46372179618E-02 -0.12696134569E-01  0.10302403047E+01  0.10301493473E+01 0.  0.
     999903    2    3    3    0    0  0.10830749030E+00 -0.86411993049E-02 -0.78441446603E-01  0.14132873930E+00  0.44895091332E-01 0.  0.
         14    1    1    2    0    0 -0.21707448057E-02 -0.46372179618E-02  0.12696134569E-01  0.13689695264E-01  0.00000000000E+00 0. -1.
     999901    1    3    3    0    0 -0.10613674550E+00  0.13278417267E-01  0.65745312035E-01  0.88891156544E+00  0.88000000000E+00 0. -1.
        -11    1    4    4    0    0  0.85251701987E-01 -0.22389219570E-01 -0.71760349178E-01  0.11366150923E+00  0.51100000000E-03 0.  1.
         11    1    4    4    0    0  0.23055788317E-01  0.13748020265E-01 -0.66810974251E-02  0.27667230074E-01  0.51100000000E-03 0. -1.
</event>
<event>
 8    1  0.2922807E+004  0.1043930E+01  0.7957747E-01            NaN
         13   -1    0    0    0    0  0.00000000000E+00  0.00000000000E+00  0.74505805969E-08  0.10566000000E+00  0.10566000000E+00 0. -1.
     999900   -1    0    0    0    0 -0.00000000000E+00 -0.00000000000E+00 -0.74505805969E-08  0.93827000000E+00  0.93827000000E+00 0.  1.
     999902    2    1    2    0    0  0.84093605425E-02  0.69385511144E-02 -0.71134004383E-02  0.10309122697E+01  0.10308300765E+01 0.  0.
     999903    2    3    3    0    0 -0.19340461351E-01 -0.37181476914E-01 -0.12774633066E+00  0.14115447494E+00  0.42999361948E-01 0.  0.
         14    1    1    2    0    0 -0.84093605425E-02 -0.69385511144E-02  0.71134004383E-02  0.13017730297E-01  0.00000000000E+00 0. -1.
     999901    1    3    3    0    0  0.27749821893E-01  0.44120028028E-01  0.12063293022E+00  0.88975779476E+00  0.88000000000E+00 0.  1.
        -11    1    4    4    0    0  0.86354180194E-02 -0.19992181982E-01 -0.81985611575E-01  0.84830179837E-01  0.51100000000E-03 0. -1.
         11    1    4    4    0    0 -0.27975879370E-01 -0.17189294932E-01 -0.45760719083E-01  0.56324295102E-01  0.51100000000E-03 0.  1.
</event>
<event>
 8    1  0.2922807E+004  0.1043930E+01  0.7957747E-01            NaN
         13   -1    0    0    0    0  0.00000000000E+00  0.00000000000E+00  0.74505805969E-08  0.10566000000E+00  0.10566000000E+00 0. -1.
     999900   -1    0    0    0    0 -0.00000000000E+00 -0.00000000000E+00 -0.74505805969E-08  0.93827000000E+00  0.93827000000E+00 0.  1.
     999902    2    1    2    0    0 -0.56543207309E-02  0.61024500086E-02 -0.11005199951E-01  0.10301341432E+01  0.10300417600E+01 0.  0.
     999903    2    3    3    0    0  0.12645254223E+00 -0.13063464550E-01 -0.36650765244E-01  0.13969759265E+00  0.44846842217E-01 0.  0.
         14    1    1    2    0    0  0.56543207309E-02 -0.61024500086E-02  0.11005199951E-01  0.13795856806E-01  0.00000000000E+00 0. -1.
     999901    1    3    3    0    0 -0.13210686296E+00  0.19165914559E-01  0.25645565293E-01  0.89043655054E+00  0.88000000000E+00 0. -1.
        -11    1    4    4    0    0  0.11788263833E+00 -0.16136844395E-01 -0.19914137865E-01  0.12063808758E+00  0.51100000000E-03 0. -1.
         11    1    4    4    0    0  0.85699038986E-02  0.30733798448E-02 -0.16736627379E-01  0.19059505070E-01  0.51100000000E-03 0.  1.
</event>
<event>
 8    1  0.2922807E+004  0.1043930E+01  0.7957747E-01            NaN
         13   -1    0    0    0    0  0.00000000000E+00  0.00000000000E+00  0.74505805969E-08  0.10566000000E+00  0.10566000000E+00 0. -1.
     999900   -1    0    0    0    0 -0.00000000000E+00 -0.00000000000E+00 -0.74505805969E-08  0.93827000000E+00  0.93827000000E+00 0.  1.
     999902    2    1    2    0    0 -0.38692884724E-03  0.13436837347E-01 -0.51945837422E-02  0.10295188234E+01  0.10294179548E+01 0.  0.
     999903    2    3    3    0    0 -0.96402806918E-01  0.95536897394E-02  0.89372172530E-01  0.13925088669E+00  0.44929389618E-01 0.  0.
         14    1    1    2    0    0  0.38692884724E-03 -0.13436837347E-01  0.51945837422E-02  0.14411176638E-01  0.00000000000E+00 0. -1.
     999901    1    3    3    0    0  0.96015878071E-01  0.38831476081E-02 -0.94566756272E-01  0.89026793667E+00  0.88000000000E+00 0.  1.
        -11    1    4    4    0    0 -0.75929909044E-01 -0.61302811502E-02  0.83041672033E-01  0.11269033610E+00  0.51100000000E-03 0. -1.
         11    1    4    4    0    0 -0.20472897874E-01  0.15683970890E-01  0.63305004970E-02  0.26560550592E-01  0.51100000000E-03 0.  1.
</event>
<event>
 8    1  0.2922807E+004  0.1043930E+01  0.7957747E-01            NaN
         13   -1    0    0    0    0  0.00000000000E+00  0.00000000000E+00  0.74505805969E-08  0.10566000000E+00  0.10566000000E+00 0.  1.
     999900   -1    0    0    0    0 -0.00000000000E+00 -0.00000000000E+00 -0.74505805969E-08  0.93827000000E+00  0.93827000000E+00 0. -1.
     999902    2    1    2    0    0  0.13880995563E-01 -0.23514838352E-02 -0.20382300947E-02  0.10297044632E+01  0.10296061945E+01 0.  0.
     999903    2    3    3    0    0 -0.37195983753E-01 -0.42334870290E-01 -0.11879707965E+00  0.13962572630E+00  0.46976748109E-01 0.  0.
         14    1    1    2    0    0 -0.13880995563E-01  0.23514838352E-02  0.20382300947E-02  0.14225536755E-01  0.00000000000E+00 0.  1.
     999901    1    3    3    0    0  0.51076979316E-01  0.39983386454E-01  0.11675884955E+00  0.89007873694E+00  0.88000000000E+00 0.  1.
        -11    1    4    4    0    0 -0.21952243286E-01 -0.50691302313E-01 -0.81311622765E-01  0.98302340934E-01  0.51100000000E-03 0.  1.
         11    1    4    4    0    0 -0.15243740467E-01  0.83564320235E-02 -0.37485456882E-01  0.41323385368E-01  0.51100000000E-03 0. -1.
</event>
<event>
 8    1  0.2922807E+004  0.1043930E+01  0.7957747E-01            NaN
         13   -1    0    0    0    0  0.00000000000E+00  0.00000000000E+00  0.74505805969E-08  0.10566000000E+00  0.10566000000E+00 0. -1.
     999900   -1    0    0    0    0 -0.00000000000E+00 -0.00000000000E+00 -0.74505805969E-08  0.93827000000E+00  0.93827000000E+00 0. -1.
     999902    2    1    2    0    0  0.69829148421E-02  0.72391551657E-02  0.76932211152E-02  0.10312669783E+01  0.10311892302E+01 0.  0.
     999903    2    3    3    0    0  0.19420266625E-01 -0.97841716388E-01 -0.87070947304E-01  0.13987653361E+00  0.45099296764E-01 0.  0.
         14    1    1    2    0    0 -0.69829148421E-02 -0.72391551657E-02 -0.76932211152E-02  0.12663021690E-01  0.00000000000E+00 0. -1.
     999901    1    3    3    0    0 -0.12437351783E-01  0.10508087155E+00  0.94764168420E-01  0.89139044470E+00  0.88000000000E+00 0.  1.
        -11    1    4    4    0    0 -0.81048106182E-02 -0.15359423541E-01 -0.33518024452E-01  0.37753396282E-01  0.51100000000E-03 0.  1.
         11    1    4    4    0    0  0.27525077243E-01 -0.82482292848E-01 -0.53552922852E-01  0.10212313733E+00  0.51100000000E-03 0. -1.
</event>
<event>
 8    1  0.2922807E+004  0.1043930E+01  0.7957747E-01            NaN
         13   -1    0    0    0    0  0.00000000000E+00  0.00000000000E+00  0.74505805969E-08  0.10566000000E+00  0.10566000000E+00 0.  1.
     999900   -1    0    0    0    0 -0.00000000000E+00 -0.00000000000E+00 -0.74505805969E-08  0.93827000000E+00  0.93827000000E+00 0.  1.
     999902    2    1    2    0    0  0.74277571937E-02 -0.28274415553E-02  0.95138175676E-02  0.10315332776E+01  0.10314587844E+01 0.  0.
     999903    2    3    3    0    0  0.71142517428E-01 -0.76630925220E-01  0.86532256790E-01  0.14280476735E+00  0.44405108109E-01 0.  0.
         14    1    1    2    0    0 -0.74277571937E-02  0.28274415553E-02 -0.95138175676E-02  0.12396722445E-01  0.00000000000E+00 0. -1.
     999901    1    3    3    0    0 -0.63714760234E-01  0.73803483665E-01 -0.77018439223E-01  0.88872851021E+00  0.88000000000E+00 0. -1.
        -11    1    4    4    0    0  0.47505480565E-01 -0.21369777727E-01  0.51408632260E-01  0.73188432663E-01  0.51100000000E-03 0.  1.
         11    1    4    4    0    0  0.23637036863E-01 -0.55261147493E-01  0.35123624530E-01  0.69616334686E-01  0.51100000000E-03 0. -1.
</event>
<event>
 8    1  0.2922807E+004  0.1043930E+01  0.7957747E-01            NaN
         13   -1    0    0    0    0  0.00000000000E+00  0.00000000000E+00  0.74505805969E-08  0.10566000000E+00  0.10566000000E+00 0. -1.
     999900   -1    0    0    0    0 -0.00000000000E+00 -0.00000000000E+00 -0.74505805969E-08  0.93827000000E+00  0.93827000000E+00 0. -1.
     999902    2    1    2    0    0  0.41627571125E-04 -0.13561625737E-01 -0.36975602462E-02  0.10298732800E+01  0.10297773456E+01 0.  0.
     999903    2    3    3    0    0  0.84863399586E-01 -0.82348576553E-01  0.61663745429E-01  0.14071723189E+00  0.44898075682E-01 0.  0.
         14    1    1    2    0    0 -0.41627571125E-04  0.13561625737E-01  0.36975602462E-02  0.14056720003E-01  0.00000000000E+00 0. -1.
     999901    1    3    3    0    0 -0.84821772015E-01  0.68786950816E-01 -0.65361305675E-01  0.88915604811E+00  0.88000000000E+00 0. -1.
        -11    1    4    4    0    0  0.20125342343E-01 -0.14259662463E-01  0.35423291670E-01  0.43167558325E-01  0.51100000000E-03 0. -1.
         11    1    4    4    0    0  0.64738057243E-01 -0.68088914090E-01  0.26240453758E-01  0.97549673562E-01  0.51100000000E-03 0.  1.
</event>
<event>
 8    1  0.2922807E+004  0.1043930E+01  0.7957747E-01            NaN
         13   -1    0    0    0    0  0.00000000000E+00  0.00000000000E+00  0.74505805969E-08  0.10566000000E+00  0.10566000000E+00 0. -1.
     999900   -1    0    0    0    0 -0.00000000000E+00 -0.00000000000E+00 -0.74505805969E-08  0.93827000000E+00  0.93827000000E+00 0. -1.
     999902    2    1    2    0    0  0.90304987679E-02 -0.42925888642E-02 -0.73714514942E-02  0.10315076603E+01  0.10314328571E+01 0.  0.
     999903    2    3    3    0    0 -0.42850749288E-01  0.32793624105E-01  0.12199161929E+00  0.13976674769E+00  0.41727450023E-01 0.  0.
         14    1    1    2    0    0 -0.90304987679E-02  0.42925888642E-02  0.73714514942E-02  0.12422339727E-01  0.00000000000E+00 0.  1.
     999901    1    3    3    0    0  0.51881248056E-01 -0.37086212969E-01 -0.12936307079E+00  0.89174091258E+00  0.88000000000E+00 0. -1.
        -11    1    4    4    0    0 -0.17414666456E-01 -0.22681739835E-02  0.11271927762E-01  0.20874211301E-01  0.51100000000E-03 0. -1.
         11    1    4    4    0    0 -0.25436082833E-01  0.35061798088E-01  0.11071969153E+00  0.11889253639E+00  0.51100000000E-03 0.  1.
</event>
<event>
 8    1  0.2922807E+004  0.1043930E+01  0.7957747E-01            NaN
         13   -1    0    0    0    0  0.00000000000E+00  0.00000000000E+00  0.74505805969E-08  0.10566000000E+00  0.10566000000E+00 0.  1.
     999900   -1    0    0    0    0 -0.00000000000E+00 -0.00000000000E+00 -0.74505805969E-08  0.93827000000E+00  0.93827000000E+00 0. -1.
     999902    2    1    2    0    0 -0.80975991895E-02 -0.21613310876E-02  0.10486702740E-01  0.10305056416E+01  0.10304181986E+01 0.  0.
     999903    2    3    3    0    0 -0.40445435341E-01  0.50047725674E-01 -0.11604586842E+00  0.13933637613E+00  0.42513222059E-01 0.  0.
         14    1    1    2    0    0  0.80975991895E-02  0.21613310876E-02 -0.10486702740E-01  0.13424358422E-01  0.00000000000E+00 0. -1.
     999901    1    3    3    0    0  0.32347836152E-01 -0.52209056761E-01  0.12653257116E+00  0.89116926545E+00  0.88000000000E+00 0.  1.
        -11    1    4    4    0    0 -0.28037424616E-01  0.51678819085E-01 -0.69008633473E-01  0.90660080167E-01  0.51100000000E-03 0. -1.
         11    1    4    4    0    0 -0.12408010725E-01 -0.16310934110E-02 -0.47037234952E-01  0.48676295964E-01  0.51100000000E-03 0.  1.
</event>
<event>
 8    1  0.2922807E+004  0.1043930E+01  0.7957747E-01            NaN
         13   -1    0    0    0    0  0.00000000000E+00  0.00000000000E+00  0.74505805969E-08  0.10566000000E+00  0.10566000000E+00 0. -1.
     999900   -1    0    0    0    0 -0.00000000000E+00 -0.00000000000E+00 -0.74505805969E-08  0.93827000000E+00  0.93827000000E+00 0. -1.
     999902    2    1    2    0    0  0.11703209529E-01 -0.80505496757E-02 -0.49059012920E-02  0.10289018820E+01  0.10287921260E+01 0.  0.
     999903    2    3    3    0    0  0.10741500879E+00 -0.42436363801E-01 -0.66944461917E-01  0.14087490282E+00  0.45003868477E-01 0.  0.
         14    1    1    2    0    0 -0.11703209529E-01  0.80505496757E-02  0.49059012920E-02  0.15028118008E-01  0.00000000000E+00 0. -1.
     999901    1    3    3    0    0 -0.95711799260E-01  0.34385814125E-01  0.62038560625E-01  0.88802697917E+00  0.88000000000E+00 0.  1.
        -11    1    4    4    0    0  0.52550595094E-01 -0.11809269734E-02 -0.43827630536E-01  0.68440353247E-01  0.51100000000E-03 0.  1.
         11    1    4    4    0    0  0.54864413696E-01 -0.41255436827E-01 -0.23116831381E-01  0.72434549575E-01  0.51100000000E-03 0. -1.
</event>
<event>
 8    1  0.2922807E+004  0.1043930E+01  0.7957747E-01            NaN
         13   -1    0    0    0    0  0.00000000000E+00  0.00000000000E+00  0.74505805969E-08  0.10566000000E+00  0.10566000000E+00 0. -1.
     999900   -1    0    0    0    0 -0.00000000000E+00 -0.00000000000E+00 -0.74505805969E-08  0.93827000000E+00  0.93827000000E+00 0. -1.
     999902    2    1    2    0    0  0.49770568308E-02 -0.11385197964E-01 -0.57935665371E-02  0.10302201772E+01  0.10301289503E+01 0.  0.
     999903    2    3    3    0    0 -0.39763887193E-01 -0.12029159797E+00  0.42680862291E-01  0.14105645423E+00  0.44989243229E-01 0.  0.
         14    1    1    2    0    0 -0.49770568308E-02  0.11385197964E-01  0.57935665371E-02  0.13709822778E-01  0.00000000000E+00 0. -1.
     999901    1    3    3    0    0  0.44740944024E-01  0.10890640001E+00 -0.48474428828E-01  0.88916372299E+00  0.88000000000E+00 0.  1.
        -11    1    4    4    0    0 -0.42494658855E-01 -0.11670899581E+00  0.30266466211E-01  0.12784015735E+00  0.51100000000E-03 0.  1.
         11    1    4    4    0    0  0.27307716614E-02 -0.35826021640E-02  0.12414396079E-01  0.13216296877E-01  0.51100000000E-03 0. -1.
</event>
<event>
 7    1  0.2922807E+004  0.1043930E+01  0.7957747E-01            NaN
         13   -1    0    0    0    0  0.00000000000E+00  0.00000000000E+00  0.74505805969E-08  0.10566000000E+00  0.10566000000E+00 0.  1.
     999900   -1    0    0    0    0 -0.00000000000E+00 -0.00000000000E+00 -0.74505805969E-08  0.93827000000E+00  0.93827000000E+00 0.  1.
     999903    2    1    2    0    0 -0.81027653229E-01  0.60241964554E-01  0.55011643692E-01  0.12356253065E+00  0.45242050761E-01 0.  0.
         14    1    1    2    0    0  0.53852979937E-02  0.14103414657E-01 -0.30071507384E-01  0.33648228717E-01  0.00000000000E+00 0. -1.
     999901    1    1    2    0    0  0.75642355235E-01 -0.74345379210E-01 -0.24940136307E-01  0.88671924064E+00  0.88000000000E+00 0.  1.
        -11    1    3    3    0    0 -0.42052289241E-01  0.22910376647E-01  0.20335973796E-02  0.47934090456E-01  0.51100000000E-03 0.  1.
         11    1    3    3    0    0 -0.38975363988E-01  0.37331587906E-01  0.52978046312E-01  0.75628440190E-01  0.51100000000E-03 0. -1.
</event>
<event>
 8    1  0.2922807E+004  0.1043930E+01  0.7957747E-01            NaN
         13   -1    0    0    0    0  0.00000000000E+00  0.00000000000E+00  0.74505805969E-08  0.10566000000E+00  0.10566000000E+00 0. -1.
     999900   -1    0    0    0    0 -0.00000000000E+00 -0.00000000000E+00 -0.74505805969E-08  0.93827000000E+00  0.93827000000E+00 0. -1.
     999902    2    1    2    0    0 -0.21174172592E-02 -0.11737934391E-01  0.72329965159E-02  0.10299808496E+01  0.10298863877E+01 0.  0.
     999903    2    3    3    0    0  0.10261634258E+00  0.79515729602E-01  0.30337389762E-01  0.13878490890E+00  0.38574975074E-01 0.  0.
         14    1    1    2    0    0  0.21174172592E-02  0.11737934391E-01 -0.72329965159E-02  0.13949150448E-01  0.00000000000E+00 0.  1.
     999901    1    3    3    0    0 -0.10473375984E+00 -0.91253663993E-01 -0.23104393246E-01  0.89119594065E+00  0.88000000000E+00 0.  1.
        -11    1    4    4    0    0  0.60996937093E-01  0.66161124734E-01  0.99067475027E-02  0.90533560230E-01  0.51100000000E-03 0.  1.
         11    1    4    4    0    0  0.41619405491E-01  0.13354604868E-01  0.20430642259E-01  0.48251348672E-01  0.51100000000E-03 0. -1.
</event>
<event>
 8    1  0.2922807E+004  0.1043930E+01  0.7957747E-01            NaN
         13   -1    0    0    0    0  0.00000000000E+00  0.00000000000E+00  0.74505805969E-08  0.10566000000E+00  0.10566000000E+00 0. -1.
     999900   -1    0    0    0    0 -0.00000000000E+00 -0.00000000000E+00 -0.74505805969E-08  0.93827000000E+00  0.93827000000E+00 0.  1.
     999902    2    1    2    0    0 -0.26387329343E-02  0.90020406354E-02 -0.76089396679E-02  0.10318512745E+01  0.10317805760E+01 0.  0.
     999903    2    3    3    0    0 -0.59400487755E-01  0.10372154091E+00 -0.64740439386E-01  0.14311189267E+00  0.44756154177E-01 0.  0.
         14    1    1    2    0    0  0.26387329343E-02 -0.90020406354E-02  0.76089396679E-02  0.12078725511E-01  0.00000000000E+00 0.  1.
     999901    1    3    3    0    0  0.56761754820E-01 -0.94719500273E-01  0.57131499718E-01  0.88873938182E+00  0.88000000000E+00 0.  1.
        -11    1    4    4    0    0 -0.37649299428E-01  0.23431379857E-01 -0.19869962456E-01  0.48596047559E-01  0.51100000000E-03 0. -1.
         11    1    4    4    0    0 -0.21751188327E-01  0.80290161052E-01 -0.44870476930E-01  0.94515845107E-01  0.51100000000E-03 0.  1.
</event>
<event>
 8    1  0.2922807E+004  0.1043930E+01  0.7957747E-01            NaN
         13   -1    0    0    0    0  0.00000000000E+00  0.00000000000E+00  0.74505805969E-08  0.10566000000E+00  0.10566000000E+00 0. -1.
     999900   -1    0    0    0    0 -0.00000000000E+00 -0.00000000000E+00 -0.74505805969E-08  0.93827000000E+00  0.93827000000E+00 0. -1.
     999902    2    1    2    0    0 -0.72980873822E-02 -0.11000970989E-01 -0.58594178277E-02  0.10294864471E+01  0.10293851216E+01 0.  0.
     999903    2    3    3    0    0 -0.19639497483E-01  0.99025731940E-01 -0.83932897869E-01  0.13911930149E+00  0.46017857986E-01 0.  0.
         14    1    1    2    0    0  0.72980873822E-02  0.11000970989E-01  0.58594178277E-02  0.14443552867E-01  0.00000000000E+00 0. -1.
     999901    1    3    3    0    0  0.12341410101E-01 -0.11002670293E+00  0.78073480042E-01  0.89036714565E+00  0.88000000000E+00 0. -1.
        -11    1    4    4    0    0  0.94769311285E-02  0.44818700395E-01 -0.18811048227E-01  0.49524183841E-01  0.51100000000E-03 0.  1.
         11    1    4    4    0    0 -0.29116428612E-01  0.54207031545E-01 -0.65121849642E-01  0.89595117645E-01  0.51100000000E-03 0. -1.
</event>
<event>
 8    1  0.2922807E+004  0.1043930E+01  0.7957747E-01            NaN
         13   -1    0    0    0    0  0.00000000000E+00  0.00000000000E+00  0.74505805969E-08  0.10566000000E+00  0.10566000000E+00 0. -1.
     999900   -1    0    0    0    0 -0.00000000000E+00 -0.00000000000E+00 -0.74505805969E-08  0.93827000000E+00  0.93827000000E+00 0. -1.
     999902    2    1    2    0    0 -0.14544112601E-02 -0.13984244994E-01  0.17029132467E-02  0.10297675732E+01  0.10296701804E+01 0.  0.
     999903    2    3    3    0    0 -0.43454920136E-01  0.90618211892E-01  0.84391771812E-01  0.13873268942E+00  0.44997750536E-01 0.  0.
         14    1    1    2    0    0  0.14544112601E-02  0.13984244994E-01 -0.17029132467E-02  0.14162426829E-01  0.00000000000E+00 0. -1.
     999901    1    3    3    0    0  0.42000508875E-01 -0.10460245689E+00 -0.82688858565E-01  0.89103488375E+00  0.88000000000E+00 0. -1.
        -11    1    4    4    0    0 -0.17400930017E-01  0.15076070951E-01  0.42904847870E-01  0.48694633919E-01  0.51100000000E-03 0.  1.
         11    1    4    4    0    0 -0.26053990119E-01  0.75542140941E-01  0.41486923942E-01  0.90038055500E-01  0.51100000000E-03 0. -1.
</event>
<event>
 8    1  0.2922807E+004  0.1043930E+01  0.7957747E-01            NaN
         13   -1    0    0    0    0  0.00000000000E+00  0.00000000000E+00  0.74505805969E-08  0.10566000000E+00  0.10566000000E+00 0. -1.
     999900   -1    0    0    0    0 -0.00000000000E+00 -0.00000000000E+00 -0.74505805969E-08  0.93827000000E+00  0.93827000000E+00 0.  1.
     999902    2    1    2    0    0 -0.88933375170E-03 -0.97516024111E-02 -0.10191161336E-01  0.10297969029E+01  0.10296999159E+01 0.  0.
     999903    2    3    3    0    0 -0.20876532889E-01  0.61126560403E-01 -0.11632400328E+00  0.14036597122E+00  0.44710693654E-01 0.  0.
         14    1    1    2    0    0  0.88933375170E-03  0.97516024111E-02  0.10191161336E-01  0.14133097094E-01  0.00000000000E+00 0. -1.
     999901    1    3    3    0    0  0.19987199137E-01 -0.70878162814E-01  0.10613284194E+00  0.88943093168E+00  0.88000000000E+00 0. -1.
        -11    1    4    4    0    0 -0.19900888785E-01  0.68049488338E-01 -0.11030338088E+00  0.13112541780E+00  0.51100000000E-03 0.  1.
         11    1    4    4    0    0 -0.97564410411E-03 -0.69229279350E-02 -0.60206223961E-02  0.92405534275E-02  0.51100000000E-03 0. -1.
</event>
<event>
 8    1  0.2922807E+004  0.1043930E+01  0.7957747E-01            NaN
         13   -1    0    0    0    0  0.00000000000E+00  0.00000000000E+00  0.74505805969E-08  0.10566000000E+00  0.10566000000E+00 0.  1.
     999900   -1    0    0    0    0 -0.00000000000E+00 -0.00000000000E+00 -0.74505805969E-08  0.93827000000E+00  0.93827000000E+00 0.  1.
     999902    2    1    2    0    0  0.92656282060E-02 -0.83997948476E-02 -0.18817484673E-02  0.10312828898E+01  0.10312053381E+01 0.  0.
     999903    2    3    3    0    0  0.10569064136E+00 -0.66166202980E-01  0.55167501932E-01  0.14230068634E+00  0.40713068863E-01 0.  0.
         14    1    1    2    0    0 -0.92656282060E-02  0.83997948476E-02  0.18817484673E-02  0.12647110217E-01  0.00000000000E+00 0. -1.
     999901    1    3    3    0    0 -0.96425013150E-01  0.57766408132E-01 -0.57049250400E-01  0.88898220344E+00  0.88000000000E+00 0.  1.
        -11    1    4    4    0    0  0.39749692754E-01 -0.46181055741E-01  0.36022268421E-01  0.70785541790E-01  0.51100000000E-03 0.  1.
         11    1    4    4    0    0  0.65940948602E-01 -0.19985147239E-01  0.19145233512E-01  0.71515144549E-01  0.51100000000E-03 0. -1.
</event>
<event>
 8    1  0.2922807E+004  0.1043930E+01  0.7957747E-01            NaN
         13   -1    0    0    0    0  0.00000000000E+00  0.00000000000E+00  0.74505805969E-08  0.10566000000E+00  0.10566000000E+00 0.  1.
     999900   -1    0    0    0    0 -0.00000000000E+00 -0.00000000000E+00 -0.74505805969E-08  0.93827000000E+00  0.93827000000E+00 0. -1.
     999902    2    1    2    0    0 -0.11371261665E-01 -0.30549625173E-02  0.31416194826E-02  0.10317436076E+01  0.10316716355E+01 0.  0.
     999903    2    3    3    0    0  0.92260767289E-01  0.46142441662E-01 -0.83500807941E-01  0.14007837204E+00  0.44815078739E-01 0.  0.
         14    1    1    2    0    0  0.11371261665E-01  0.30549625173E-02 -0.31416194826E-02  0.12186392445E-01  0.00000000000E+00 0.  1.
     999901    1    3    3    0    0 -0.10363202895E+00 -0.49197404179E-01  0.86642427423E-01  0.89166523552E+00  0.88000000000E+00 0.  1.
        -11    1    4    4    0    0  0.21852405037E-01  0.29184654238E-01 -0.45446155022E-01  0.58265648338E-01  0.51100000000E-03 0.  1.
         11    1    4    4    0    0  0.70408362252E-01  0.16957787424E-01 -0.38054652918E-01  0.81812723699E-01  0.51100000000E-03 0. -1.
</event>
<event>
 8    1  0.2922807E+004  0.1043930E+01  0.7957747E-01            NaN
         13   -1    0    0    0    0  0.00000000000E+00  0.00000000000E+00  0.74505805969E-08  0.10566000000E+00  0.10566000000E+00 0. -1.
     999900   -1    0    0    0    0 -0.00000000000E+00 -0.00000000000E+00 -0.74505805969E-08  0.93827000000E+00  0.93827000000E+00 0.  1.
     999902    2    1    2    0    0 -0.89493341284E-02 -0.36656918737E-02  0.10899263662E-01  0.10293587328E+01  0.10292555946E+01 0.  0.
     999903    2    3    3    0    0 -0.98879301493E-01 -0.30342004461E-01 -0.82109937478E-01  0.13949934160E+00  0.44947424572E-01 0.  0.
         14    1    1    2    0    0  0.89493341284E-02  0.36656918737E-02 -0.10899263662E-01  0.14571267159E-01  0.00000000000E+00 0.  1.
     999901    1    3    3    0    0  0.89929967365E-01  0.26676312587E-01  0.93009201140E-01  0.88985939124E+00  0.88000000000E+00 0. -1.
        -11    1    4    4    0    0 -0.48006315320E-01 -0.28059110386E-01 -0.65524898078E-01  0.85940056873E-01  0.51100000000E-03 0. -1.
         11    1    4    4    0    0 -0.50872986173E-01 -0.22828940748E-02 -0.16585039400E-01  0.53559284726E-01  0.51100000000E-03 0.  1.
</event>
<event>
 8    1  0.2922807E+004  0.1043930E+01  0.7957747E-01            NaN
         13   -1    0    0    0    0  0.00000000000E+00  0.00000000000E+00  0.74505805969E-08  0.10566000000E+00  0.10566000000E+00 0. -1.
     999900   -1    0    0    0    0 -0.00000000000E+00 -0.00000000000E+00 -0.74505805969E-08  0.93827000000E+00  0.93827000000E+00 0. -1.
     999902    2    1    2    0    0 -0.10627711197E-01 -0.31181230933E-02  0.73645505628E-02  0.10306293405E+01  0.10305435120E+01 0.  0.
     999903    2    3    3    0    0 -0.54397606690E-01  0.11863773575E+00  0.28924685806E-01  0.14090739952E+00  0.44544874377E-01 0.  0.
         14    1    1    2    0    0  0.10627711197E-01  0.31181230933E-02 -0.73645505628E-02  0.13300659454E-01  0.00000000000E+00 0.  1.
     999901    1    3    3    0    0  0.43769895493E-01 -0.12175585884E+00 -0.21560135244E-01  0.88972194103E+00  0.88000000000E+00 0. -1.
        -11    1    4    4    0    0 -0.29186966469E-02  0.59160210611E-01  0.13223042311E-01  0.60692332948E-01  0.51100000000E-03 0.  1.
         11    1    4    4    0    0 -0.51478910043E-01  0.59477525136E-01  0.15701643495E-01  0.80215066571E-01  0.51100000000E-03 0. -1.
</event>
<event>
 8    1  0.2922807E+004  0.1043930E+01  0.7957747E-01            NaN
         13   -1    0    0    0    0  0.00000000000E+00  0.00000000000E+00  0.74505805969E-08  0.10566000000E+00  0.10566000000E+00 0. -1.
     999900   -1    0    0    0    0 -0.00000000000E+00 -0.00000000000E+00 -0.74505805969E-08  0.93827000000E+00  0.93827000000E+00 0. -1.
     999902    2    1    2    0    0 -0.13610554302E-01  0.18452120895E-02  0.65173040187E-02  0.10287271303E+01  0.10286147876E+01 0.  0.
     999903    2    3    3    0    0 -0.10357654288E+00  0.78381215090E-01 -0.29325645370E-01  0.14011227790E+00  0.43586027884E-01 0.  0.
         14    1    1    2    0    0  0.13610554302E-01 -0.18452120895E-02 -0.65173040187E-02  0.15202869721E-01  0.00000000000E+00 0.  1.
     999901    1    3    3    0    0  0.89965988578E-01 -0.76536003001E-01  0.35842949388E-01  0.88861485238E+00  0.88000000000E+00 0. -1.
        -11    1    4    4    0    0 -0.20725250596E-01  0.31821288018E-01  0.65268372501E-02  0.38535582374E-01  0.51100000000E-03 0.  1.
         11    1    4    4    0    0 -0.82851292284E-01  0.46559927072E-01 -0.35852482620E-01  0.10157669552E+00  0.51100000000E-03 0. -1.
</event>
<event>
 8    1  0.2922807E+004  0.1043930E+01  0.7957747E-01            NaN
         13   -1    0    0    0    0  0.00000000000E+00  0.00000000000E+00  0.74505805969E-08  0.10566000000E+00  0.10566000000E+00 0. -1.
     999900   -1    0    0    0    0 -0.00000000000E+00 -0.00000000000E+00 -0.74505805969E-08  0.93827000000E+00  0.93827000000E+00 0.  1.
     999902    2    1    2    0    0 -0.13023780040E-01  0.71650800289E-02  0.10435260366E-02  0.10290287865E+01  0.10289208897E+01 0.  0.
     999903    2    3    3    0    0  0.23667438850E-01 -0.11980573398E+00 -0.45718688919E-01  0.13793140800E+00  0.44959017344E-01 0.  0.
         14    1    1    2    0    0  0.13023780040E-01 -0.71650800289E-02 -0.10435260366E-02  0.14901213540E-01  0.00000000000E+00 0.  1.
     999901    1    3    3    0    0 -0.36691218890E-01  0.12697081401E+00  0.46762214955E-01  0.89109737846E+00  0.88000000000E+00 0.  1.
        -11    1    4    4    0    0  0.35329387455E-01 -0.10640418098E+00 -0.42309873600E-01  0.11983489422E+00  0.51100000000E-03 0.  1.
         11    1    4    4    0    0 -0.11661948605E-01 -0.13401552995E-01 -0.34088153187E-02  0.18096513775E-01  0.51100000000E-03 0. -1.
</event>
<event>
 8    1  0.2922807E+004  0.1043930E+01  0.7957747E-01            NaN
         13   -1    0    0    0    0  0.00000000000E+00  0.00000000000E+00  0.74505805969E-08  0.10566000000E+00  0.10566000000E+00 0.  1.
     999900   -1    0    0    0    0 -0.00000000000E+00 -0.00000000000E+00 -0.74505805969E-08  0.93827000000E+00  0.93827000000E+00 0.  1.
     999902    2    1    2    0    0  0.35071140712E-02  0.70702570033E-02  0.17682910892E-01  0.10245657618E+01  0.10243827539E+01 0.  0.
     999903    2    3    3    0    0  0.19612307638E-01 -0.10333038862E+00  0.72701454087E-01  0.13581679843E+00  0.45813638634E-01 0.  0.
         14    1    1    2    0    0 -0.35071140712E-02 -0.70702570033E-02 -0.17682910892E-01  0.19364238194E-01  0.00000000000E+00 0. -1.
     999901    1    3    3    0    0 -0.16105193567E-01  0.11040064562E+00 -0.55018543195E-01  0.88874896338E+00  0.88000000000E+00 0. -1.
        -11    1    4    4    0    0  0.15426752275E-01 -0.66825096792E-01  0.71460736418E-01  0.99047848121E-01  0.51100000000E-03 0. -1.
         11    1    4    4    0    0  0.41855553638E-02 -0.36505291829E-01  0.12407176691E-02  0.36768950305E-01  0.51100000000E-03 0.  1.
</event>
<event>
 8    1  0.2922807E+004  0.1043930E+01  0.7957747E-01            NaN
         13   -1    0    0    0    0  0.00000000000E+00  0.00000000000E+00  0.74505805969E-08  0.10566000000E+00  0.10566000000E+00 0. -1.
     999900   -1    0    0    0    0 -0.00000000000E+00 -0.00000000000E+00 -0.74505805969E-08  0.93827000000E+00  0.93827000000E+00 0.  1.
     999902    2    1    2    0    0 -0.11520506461E-01 -0.53686127979E-02  0.38098748554E-02  0.10306612691E+01  0.10305758548E+01 0.  0.
     999903    2    3    3    0    0  0.12976241361E-01  0.13173042701E+00 -0.11019698988E-03  0.13970021255E+00  0.44663732525E-01 0.  0.
         14    1    1    2    0    0  0.11520506461E-01  0.53686127979E-02 -0.38098748554E-02  0.13268730870E-01  0.00000000000E+00 0. -1.
     999901    1    3    3    0    0 -0.24496747821E-01 -0.13709903981E+00  0.39200718452E-02  0.89096105658E+00  0.88000000000E+00 0.  1.
        -11    1    4    4    0    0  0.22481150469E-01  0.12042330711E+00  0.81369246346E-02  0.12277477626E+00  0.51100000000E-03 0.  1.
         11    1    4    4    0    0 -0.95049091087E-02  0.11307119902E-01 -0.82471216244E-02  0.16925436294E-01  0.51100000000E-03 0. -1.
</event>
<event>
 8    1  0.2922807E+004  0.1043930E+01  0.7957747E-01            NaN
         13   -1    0    0    0    0  0.00000000000E+00  0.00000000000E+00  0.74505805969E-08  0.10566000000E+00  0.10566000000E+00 0. -1.
     999900   -1    0    0    0    0 -0.00000000000E+00 -0.00000000000E+00 -0.74505805969E-08  0.93827000000E+00  0.93827000000E+00 0. -1.
     999902    2    1    2    0    0 -0.73353990515E-02  0.14695340771E-01 -0.22648865910E-01  0.10159526476E+01  0.10155673537E+01 0.  0.
     999903    2    3    3    0    0  0.29944927477E-01  0.34729393458E-01 -0.11359853977E+00  0.13025347228E+00  0.44255048870E-01 0.  0.
         14    1    1    2    0    0  0.73353990515E-02 -0.14695340771E-01  0.22648865910E-01  0.27977352388E-01  0.00000000000E+00 0. -1.
     999901    1    3    3    0    0 -0.37280326529E-01 -0.20034052687E-01  0.90949673862E-01  0.88569917533E+00  0.88000000000E+00 0.  1.
        -11    1    4    4    0    0  0.35614152569E-01  0.17604509678E-01 -0.48479790076E-01  0.62680441854E-01  0.51100000000E-03 0. -1.
         11    1    4    4    0    0 -0.56692250922E-02  0.17124883780E-01 -0.65118749696E-01  0.67573030423E-01  0.51100000000E-03 0.  1.
</event>
<event>
 8    1  0.2922807E+004  0.1043930E+01  0.7957747E-01            NaN
         13   -1    0    0    0    0  0.00000000000E+00  0.00000000000E+00  0.74505805969E-08  0.10566000000E+00  0.10566000000E+00 0. -1.
     999900   -1    0    0    0    0 -0.00000000000E+00 -0.00000000000E+00 -0.74505805969E-08  0.93827000000E+00  0.93827000000E+00 0. -1.
     999902    2    1    2    0    0  0.52761359804E-02  0.12582688805E-01 -0.25228698807E-03  0.10302835603E+01  0.10301931806E+01 0.  0.
     999903    2    3    3    0    0 -0.59523027455E-01 -0.10278792393E+00  0.56434825595E-01  0.13858700954E+00  0.43739245194E-01 0.  0.
         14    1    1    2    0    0 -0.52761359804E-02 -0.12582688805E-01  0.25228698807E-03  0.13646439725E-01  0.00000000000E+00 0. -1.
     999901    1    3    3    0    0  0.64799163436E-01  0.11537061273E+00 -0.56687112583E-01  0.89169655074E+00  0.88000000000E+00 0. -1.
        -11    1    4    4    0    0 -0.56334526616E-01 -0.92350810240E-01  0.63631082897E-01  0.12550468865E+00  0.51100000000E-03 0. -1.
         11    1    4    4    0    0 -0.31885008398E-02 -0.10437113686E-01 -0.71962573019E-02  0.13082320889E-01  0.51100000000E-03 0.  1.
</event>
<event>
 8    1  0.2922807E+004  0.1043930E+01  0.7957747E-01            NaN
         13   -1    0    0    0    0  0.00000000000E+00  0.00000000000E+00  0.74505805969E-08  0.10566000000E+00  0.10566000000E+00 0.  1.
     999900   -1    0    0    0    0 -0.00000000000E+00 -0.00000000000E+00 -0.74505805969E-08  0.93827000000E+00  0.93827000000E+00 0.  1.
     999902    2    1    2    0    0 -0.10611659397E-01 -0.54053149674E-02 -0.45229695289E-02  0.10311910048E+01  0.10311123151E+01 0.  0.
     999903    2    3    3    0    0  0.45636309766E-01  0.76771195115E-01  0.98283329861E-01  0.13962723926E+00  0.43123819954E-01 0.  0.
         14    1    1    2    0    0  0.10611659397E-01  0.54053149674E-02  0.45229695289E-02  0.12738995188E-01  0.00000000000E+00 0.  1.
     999901    1    3    3    0    0 -0.56247969163E-01 -0.82176510082E-01 -0.10280629939E+00  0.89156376555E+00  0.88000000000E+00 0.  1.
        -11    1    4    4    0    0  0.24074153089E-01  0.67193007272E-02  0.17314428278E-01  0.30409939112E-01  0.51100000000E-03 0. -1.
         11    1    4    4    0    0  0.21562156677E-01  0.70051894388E-01  0.80968901582E-01  0.10921730015E+00  0.51100000000E-03 0.  1.
</event>
<event>
 8    1  0.2922807E+004  0.1043930E+01  0.7957747E-01            NaN
         13   -1    0    0    0    0  0.00000000000E+00  0.00000000000E+00  0.74505805969E-08  0.10566000000E+00  0.10566000000E+00 0. -1.
     999900   -1    0    0    0    0 -0.00000000000E+00 -0.00000000000E+00 -0.74505805969E-08  0.93827000000E+00  0.93827000000E+00 0.  1.
     999902    2    1    2    0    0 -0.86126268688E-03  0.13333226027E-01  0.29709093388E-02  0.10302426704E+01  0.10301517446E+01 0.  0.
     999903    2    3    3    0    0  0.10314611667E+00  0.40606780963E-01 -0.73260932232E-01  0.14042657959E+00  0.45435977174E-01 0.  0.
         14    1    1    2    0    0  0.86126268688E-03 -0.13333226027E-01 -0.29709093388E-02  0.13687329616E-01  0.00000000000E+00 0. -1.
     999901    1    3    3    0    0 -0.10400737935E+00 -0.27273554935E-01  0.76231841571E-01  0.88981609079E+00  0.88000000000E+00 0. -1.
        -11    1    4    4    0    0  0.80553884376E-01  0.20118860973E-01 -0.31704713812E-01  0.88877144721E-01  0.51100000000E-03 0. -1.
         11    1    4    4    0    0  0.22592232289E-01  0.20487919990E-01 -0.41556218421E-01  0.51549434874E-01  0.51100000000E-03 0.  1.
</event>
<event>
 7    1  0.2922807E+004  0.1043930E+01  0.7957747E-01            NaN
         13   -1    0    0    0    0  0.00000000000E+00  0.00000000000E+00  0.74505805969E-08  0.10566000000E+00  0.10566000000E+00 0.  1.
     999900   -1    0    0    0    0 -0.00000000000E+00 -0.00000000000E+00 -0.74505805969E-08  0.93827000000E+00  0.93827000000E+00 0. -1.
     999902    2    1    2    0    0  0.10691439174E-01 -0.62517204969E-02  0.64592814845E-02  0.10299617074E+01  0.10298669844E+01 0.  0.
         14    1    1    2    0    0 -0.10691439174E-01  0.62517204969E-02 -0.64592814845E-02  0.13968292597E-01  0.00000000000E+00 0.  1.
     999901    1    3    3    0    0  0.29954378839E-01 -0.12994424890E+00  0.60244158144E-01  0.89208302933E+00  0.88000000000E+00 0. -1.
        -11    1    3    3    0    0 -0.18178234080E-01  0.59430819728E-01 -0.32747337973E-01  0.70250407779E-01  0.51100000000E-03 0. -1.
         11    1    3    3    0    0 -0.10847055861E-02  0.64261708672E-01 -0.21037538686E-01  0.67628270292E-01  0.51100000000E-03 0.  1.
</event>
<event>
 8    1  0.2922807E+004  0.1043930E+01  0.7957747E-01            NaN
         13   -1    0    0    0    0  0.00000000000E+00  0.00000000000E+00  0.74505805969E-08  0.10566000000E+00  0.10566000000E+00 0. -1.
     999900   -1    0    0    0    0 -0.00000000000E+00 -0.00000000000E+00 -0.74505805969E-08  0.93827000000E+00  0.93827000000E+00 0. -1.
     999902    2    1    2    0    0 -0.79815111399E-02  0.96429953157E-02 -0.58525051122E-02  0.10301117622E+01  0.10300190770E+01 0.  0.
     999903    2    3    3    0    0  0.72978348046E-01  0.36525404862E-01  0.10362690009E+00  0.13923415959E+00  0.44583318509E-01 0.  0.
         14    1    1    2    0    0  0.79815111399E-02 -0.96429953157E-02  0.58525051122E-02  0.13818237761E-01  0.00000000000E+00 0. -1.
     999901    1    3    3    0    0 -0.80959859186E-01 -0.26882409547E-01 -0.10947940521E+00  0.89087760265E+00  0.88000000000E+00 0. -1.
        -11    1    4    4    0    0  0.53793058861E-01  0.46588973740E-01  0.75922893906E-01  0.10406138859E+00  0.51100000000E-03 0.  1.
         11    1    4    4    0    0  0.19185289185E-01 -0.10063568877E-01  0.27704006187E-01  0.35172770995E-01  0.51100000000E-03 0. -1.
</event>
<event>
 8    1  0.2922807E+004  0.1043930E+01  0.7957747E-01            NaN
         13   -1    0    0    0    0  0.00000000000E+00  0.00000000000E+00  0.74505805969E-08  0.10566000000E+00  0.10566000000E+00 0. -1.
     999900   -1    0    0    0    0 -0.00000000000E+00 -0.00000000000E+00 -0.74505805969E-08  0.93827000000E+00  0.93827000000E+00 0. -1.
     999902    2    1    2    0    0  0.25920605777E-02  0.71349029894E-02  0.11847711138E-01  0.10298589703E+01  0.10297628391E+01 0.  0.
     999903    2    3    3    0    0  0.96272892659E-01  0.85687081567E-01 -0.30700960535E-01  0.14038894124E+00  0.46430163011E-01 0.  0.
         14    1    1    2    0    0 -0.25920605777E-02 -0.71349029894E-02 -0.11847711138E-01  0.14071029739E-01  0.00000000000E+00 0.  1.
     999901    1    3    3    0    0 -0.93680832082E-01 -0.78552178578E-01  0.42548671674E-01  0.88947002902E+00  0.88000000000E+00 0.  1.
        -11    1    4    4    0    0  0.26325430129E-01  0.39093155946E-01 -0.30867920542E-01  0.56341749644E-01  0.51100000000E-03 0.  1.
         11    1    4    4    0    0  0.69947462530E-01  0.46593925621E-01  0.16696000709E-03  0.84047191600E-01  0.51100000000E-03 0. -1.
</event>
<event>
 8    1  0.2922807E+004  0.1043930E+01  0.7957747E-01            NaN
         13   -1    0    0    0    0  0.00000000000E+00  0.00000000000E+00  0.74505805969E-08  0.10566000000E+00  0.10566000000E+00 0. -1.
     999900   -1    0    0    0    0 -0.00000000000E+00 -0.00000000000E+00 -0.74505805969E-08  0.93827000000E+00  0.93827000000E+00 0.  1.
     999902    2    1    2    0    0 -0.62064641943E-02 -0.73093460244E-02 -0.95693479989E-02  0.10303830757E+01  0.10302940180E+01 0.  0.
     999903    2    3    3    0    0  0.46870116793E-01  0.12111287625E+00 -0.24031676760E-01  0.13936200435E+00  0.44487190593E-01 0.  0.
         14    1    1    2    0    0  0.62064641943E-02  0.73093460244E-02  0.95693479989E-02  0.13546924309E-01  0.00000000000E+00 0. -1.
     999901    1    3    3    0    0 -0.53076580987E-01 -0.12842222227E+00  0.14462328761E-01  0.89102107134E+00  0.88000000000E+00 0. -1.
        -11    1    4    4    0    0  0.22787952899E-01  0.10612733756E+00 -0.14932329242E-01  0.10956978668E+00  0.51100000000E-03 0. -1.
         11    1    4    4    0    0  0.24082163894E-01  0.14985538691E-01 -0.90993475175E-02  0.29792217673E-01  0.51100000000E-03 0.  1.
</event>
<event>
 8    1  0.2922807E+004  0.1043930E+01  0.7957747E-01            NaN
         13   -1    0    0    0    0  0.00000000000E+00  0.00000000000E+00  0.74505805969E-08  0.10566000000E+00  0.10566000000E+00 0. -1.
     999900   -1    0    0    0    0 -0.00000000000E+00 -0.00000000000E+00 -0.74505805969E-08  0.93827000000E+00  0.93827000000E+00 0.  1.
     999902    2    1    2    0    0  0.30546733348E-02 -0.20385212970E-02  0.13012881195E-01  0.10304088434E+01  0.10303201264E+01 0.  0.
     999903    2    3    3    0    0  0.12467549031E+00 -0.29853993882E-01 -0.34812558778E-01  0.14032311926E+00  0.45204255515E-01 0.  0.
         14    1    1    2    0    0 -0.30546733348E-02  0.20385212970E-02 -0.13012881195E-01  0.13521156580E-01  0.00000000000E+00 0.  1.
     999901    1    3    3    0    0 -0.12162081698E+00  0.27815472585E-01  0.47825439973E-01  0.89008572416E+00  0.88000000000E+00 0. -1.
        -11    1    4    4    0    0  0.36375748623E-01 -0.28841474667E-01 -0.32261675263E-02  0.46537028555E-01  0.51100000000E-03 0.  1.
         11    1    4    4    0    0  0.88299741688E-01 -0.10125192152E-02 -0.31586391252E-01  0.93786090710E-01  0.51100000000E-03 0. -1.
</event>
<event>
 8    1  0.2922807E+004  0.1043930E+01  0.7957747E-01            NaN
         13   -1    0    0    0    0  0.00000000000E+00  0.00000000000E+00  0.74505805969E-08  0.10566000000E+00  0.10566000000E+00 0. -1.
     999900   -1    0    0    0    0 -0.00000000000E+00 -0.00000000000E+00 -0.74505805969E-08  0.93827000000E+00  0.93827000000E+00 0. -1.
     999902    2    1    2    0    0 -0.11530169227E-01  0.59022724101E-02  0.34565306477E-02  0.10305236871E+01  0.10304364805E+01 0.  0.
     999903    2    3    3    0    0  0.10674629800E+00  0.31920027101E-01 -0.69866033008E-01  0.13920867845E+00  0.45652309054E-01 0.  0.
         14    1    1    2    0    0  0.11530169227E-01 -0.59022724101E-02 -0.34565306477E-02  0.13406312920E-01  0.00000000000E+00 0.  1.
     999901    1    3    3    0    0 -0.11827646723E+00 -0.26017754691E-01  0.73322563656E-01  0.89131500862E+00  0.88000000000E+00 0.  1.
        -11    1    4    4    0    0  0.27687729793E-01  0.17606488144E-01 -0.43823174314E-01  0.54747881547E-01  0.51100000000E-03 0.  1.
         11    1    4    4    0    0  0.79058568207E-01  0.14313538956E-01 -0.26042858694E-01  0.84460796908E-01  0.51100000000E-03 0. -1.
</event>
<event>
 8    1  0.2922807E+004  0.1043930E+01  0.7957747E-01            NaN
         13   -1    0    0    0    0  0.00000000000E+00  0.00000000000E+00  0.74505805969E-08  0.10566000000E+00  0.10566000000E+00 0. -1.
     999900   -1    0    0    0    0 -0.00000000000E+00 -0.00000000000E+00 -0.74505805969E-08  0.93827000000E+00  0.93827000000E+00 0. -1.
     999902    2    1    2    0    0 -0.76509645948E-02 -0.10148764835E-01  0.97401846661E-02  0.10279173211E+01  0.10277925925E+01 0.  0.
     999903    2    3    3    0    0 -0.62168127173E-01 -0.11590683107E+00  0.14579444443E-01  0.13989687767E+00  0.45379584136E-01 0.  0.
         14    1    1    2    0    0  0.76509645948E-02  0.10148764835E-01 -0.97401846661E-02  0.16012678859E-01  0.00000000000E+00 0. -1.
     999901    1    3    3    0    0  0.54517162578E-01  0.10575806624E+00 -0.48392597767E-02  0.88802044347E+00  0.88000000000E+00 0.  1.
        -11    1    4    4    0    0 -0.44488505519E-01 -0.48534360097E-01  0.22980890088E-01  0.69736602037E-01  0.51100000000E-03 0.  1.
         11    1    4    4    0    0 -0.17679621653E-01 -0.67372470973E-01 -0.84014456455E-02  0.70160275632E-01  0.51100000000E-03 0. -1.
</event>
<event>
 8    1  0.2922807E+004  0.1043930E+01  0.7957747E-01            NaN
         13   -1    0    0    0    0  0.00000000000E+00  0.00000000000E+00  0.74505805969E-08  0.10566000000E+00  0.10566000000E+00 0.  1.
     999900   -1    0    0    0    0 -0.00000000000E+00 -0.00000000000E+00 -0.74505805969E-08  0.93827000000E+00  0.93827000000E+00 0. -1.
     999902    2    1    2    0    0  0.61777588041E-02  0.10998388559E-01 -0.14910396357E-02  0.10312275414E+01  0.10311493053E+01 0.  0.
     999903    2    3    3    0    0 -0.25047048782E-01  0.74823313511E-01  0.10848220695E+00  0.14154067256E+00  0.45160711543E-01 0.  0.
         14    1    1    2    0    0 -0.61777588041E-02 -0.10998388559E-01  0.14910396357E-02  0.12702458578E-01  0.00000000000E+00 0.  1.
     999901    1    3    3    0    0  0.31224807586E-01 -0.63824924952E-01 -0.10997324659E+00  0.88968686886E+00  0.88000000000E+00 0. -1.
        -11    1    4    4    0    0  0.10781799532E-01  0.34267140515E-01  0.33927276010E-01  0.49414626364E-01  0.51100000000E-03 0.  1.
         11    1    4    4    0    0 -0.35828848314E-01  0.40556172995E-01  0.74554930942E-01  0.92126046199E-01  0.51100000000E-03 0. -1.
</event>
<event>
 8    1  0.2922807E+004  0.1043930E+01  0.7957747E-01            NaN
         13   -1    0    0    0    0  0.00000000000E+00  0.00000000000E+00  0.74505805969E-08  0.10566000000E+00  0.10566000000E+00 0.  1.
     999900   -1    0    0    0    0 -0.00000000000E+00 -0.00000000000E+00 -0.74505805969E-08  0.93827000000E+00  0.93827000000E+00 0.  1.
     999902    2    1    2    0    0  0.27043378083E-02  0.10166462622E-01  0.77815451699E-02  0.10308447850E+01  0.10307617319E+01 0.  0.
     999903    2    3    3    0    0 -0.66724233386E-01 -0.40104973332E-01 -0.10718071342E+00  0.13923732395E+00  0.42881171233E-01 0.  0.
         14    1    1    2    0    0 -0.27043378083E-02 -0.10166462622E-01 -0.77815451699E-02  0.13085214956E-01  0.00000000000E+00 0. -1.
     999901    1    3    3    0    0  0.69428571195E-01  0.50271435953E-01  0.11496225859E+00  0.89160746109E+00  0.88000000000E+00 0. -1.
        -11    1    4    4    0    0 -0.45936263889E-01 -0.42559375050E-01 -0.56275529256E-01  0.84194044081E-01  0.51100000000E-03 0. -1.
         11    1    4    4    0    0 -0.20787969498E-01  0.24544017185E-02 -0.50905184162E-01  0.55043279873E-01  0.51100000000E-03 0.  1.
</event>
<event>
 8    1  0.2922807E+004  0.1043930E+01  0.7957747E-01            NaN
         13   -1    0    0    0    0  0.00000000000E+00  0.00000000000E+00  0.74505805969E-08  0.10566000000E+00  0.10566000000E+00 0. -1.
     999900   -1    0    0    0    0 -0.00000000000E+00 -0.00000000000E+00 -0.74505805969E-08  0.93827000000E+00  0.93827000000E+00 0.  1.
     999902    2    1    2    0    0 -0.22301823930E-03 -0.98577532564E-02 -0.88338986527E-02  0.10306913142E+01  0.10306062887E+01 0.  0.
     999903    2    3    3    0    0 -0.60426546218E-01  0.72342725559E-01  0.92284075393E-01  0.13906009661E+00  0.44005936747E-01 0.  0.
         14    1    1    2    0    0  0.22301823930E-03  0.98577532564E-02  0.88338986527E-02  0.13238685804E-01  0.00000000000E+00 0. -1.
     999901    1    3    3    0    0  0.60203527979E-01 -0.82200478815E-01 -0.10111797405E+00  0.89163121759E+00  0.88000000000E+00 0.  1.
        -11    1    4    4    0    0 -0.26951332434E-01  0.59991828575E-01  0.44449508366E-01  0.79381444499E-01  0.51100000000E-03 0. -1.
         11    1    4    4    0    0 -0.33475213784E-01  0.12350896984E-01  0.47834567027E-01  0.59678652111E-01  0.51100000000E-03 0.  1.
</event>
<event>
 8    1  0.2922807E+004  0.1043930E+01  0.7957747E-01            NaN
         13   -1    0    0    0    0  0.00000000000E+00  0.00000000000E+00  0.74505805969E-08  0.10566000000E+00  0.10566000000E+00 0. -1.
     999900   -1    0    0    0    0 -0.00000000000E+00 -0.00000000000E+00 -0.74505805969E-08  0.93827000000E+00  0.93827000000E+00 0.  1.
     999902    2    1    2    0    0 -0.34253788000E-02 -0.14014105938E-01 -0.64590983816E-02  0.10281234084E+01  0.10280018943E+01 0.  0.
     999903    2    3    3    0    0  0.56085359948E-01 -0.57859000076E-01 -0.10479033990E+00  0.13956674967E+00  0.44773103377E-01 0.  0.
         14    1    1    2    0    0  0.34253788000E-02  0.14014105938E-01  0.64590983816E-02  0.15806591570E-01  0.00000000000E+00 0. -1.
     999901    1    3    3    0    0 -0.59510738748E-01  0.43844894139E-01  0.98331241521E-01  0.88855665876E+00  0.88000000000E+00 0. -1.
        -11    1    4    4    0    0  0.27604082500E-01 -0.56334172029E-01 -0.62505643010E-01  0.88559250437E-01  0.51100000000E-03 0. -1.
         11    1    4    4    0    0  0.28481277449E-01 -0.15248280478E-02 -0.42284696893E-01  0.51007499233E-01  0.51100000000E-03 0.  1.
</event>
<event>
 8    1  0.2922807E+004  0.1043930E+01  0.7957747E-01            NaN
         13   -1    0    0    0    0  0.00000000000E+00  0.00000000000E+00  0.74505805969E-08  0.10566000000E+00  0.10566000000E+00 0.  1.
     999900   -1    0    0    0    0 -0.00000000000E+00 -0.00000000000E+00 -0.74505805969E-08  0.93827000000E+00  0.93827000000E+00 0.  1.
     999902    2    1    2    0    0 -0.94065444312E-02  0.10901167590E-01  0.11000053184E-01  0.10258104056E+01  0.10256503636E+01 0.  0.
     999903    2    3    3    0    0 -0.12131315976E+00 -0.10424670713E-01  0.44235611821E-01  0.13784504345E+00  0.47105309267E-01 0.  0.
         14    1    1    2    0    0  0.94065444312E-02 -0.10901167590E-01 -0.11000053184E-01  0.18119594450E-01  0.00000000000E+00 0. -1.
     999901    1    3    3    0    0  0.11190661532E+00  0.21325838303E-01 -0.33235558637E-01  0.88796536210E+00  0.88000000000E+00 0.  1.
        -11    1    4    4    0    0 -0.34428048027E-01  0.84541860621E-02  0.32616107874E-01  0.48175049214E-01  0.51100000000E-03 0. -1.
         11    1    4    4    0    0 -0.86885111729E-01 -0.18878856775E-01  0.11619503947E-01  0.89669994236E-01  0.51100000000E-03 0.  1.
</event>
<event>
 8    1  0.2922807E+004  0.1043930E+01  0.7957747E-01            NaN
         13   -1    0    0    0    0  0.00000000000E+00  0.00000000000E+00  0.74505805969E-08  0.10566000000E+00  0.10566000000E+00 0. -1.
     999900   -1    0    0    0    0 -0.00000000000E+00 -0.00000000000E+00 -0.74505805969E-08  0.93827000000E+00  0.93827000000E+00 0. -1.
     999902    2    1    2    0    0 -0.12559855237E-01 -0.48611167876E-02  0.47249325728E-02  0.10296574597E+01  0.10295585359E+01 0.  0.
     999903    2    3    3    0    0 -0.30949471541E-01 -0.92854557295E-01 -0.89628805001E-01  0.14005999375E+00  0.44762043783E-01 0.  0.
         14    1    1    2    0    0  0.12559855237E-01  0.48611167876E-02 -0.47249325728E-02  0.14272540342E-01  0.00000000000E+00 0. -1.
     999901    1    3    3    0    0  0.18389616304E-01  0.87993440507E-01  0.94353737574E-01  0.88959746591E+00  0.88000000000E+00 0. -1.
        -11    1    4    4    0    0 -0.27539872646E-02 -0.67914537566E-01 -0.44287635744E-01  0.81127212817E-01  0.51100000000E-03 0. -1.
         11    1    4    4    0    0 -0.28195484276E-01 -0.24940019729E-01 -0.45341169257E-01  0.58932780930E-01  0.51100000000E-03 0.  1.
</event>
<event>
 8    1  0.2922807E+004  0.1043930E+01  0.7957747E-01            NaN
         13   -1    0    0    0    0  0.00000000000E+00  0.00000000000E+00  0.74505805969E-08  0.10566000000E+00  0.10566000000E+00 0.  1.
     999900   -1    0    0    0    0 -0.00000000000E+00 -0.00000000000E+00 -0.74505805969E-08  0.93827000000E+00  0.93827000000E+00 0. -1.
     999902    2    1    2    0    0 -0.13494917531E-01 -0.79712539114E-02 -0.40053403743E-03  0.10282515398E+01  0.10281320027E+01 0.  0.
     999903    2    3    3    0    0 -0.93941500680E-01  0.73890004346E-01 -0.55156746612E-01  0.13911085282E+00  0.44998048672E-01 0.  0.
         14    1    1    2    0    0  0.13494917531E-01  0.79712539114E-02  0.40053403743E-03  0.15678460243E-01  0.00000000000E+00 0.  1.
     999901    1    3    3    0    0  0.80446583149E-01 -0.81861258258E-01  0.54756212574E-01  0.88914068693E+00  0.88000000000E+00 0. -1.
        -11    1    4    4    0    0 -0.67896196855E-01  0.26197861928E-01 -0.24938209240E-01  0.76931118008E-01  0.51100000000E-03 0.  1.
         11    1    4    4    0    0 -0.26045303825E-01  0.47692142419E-01 -0.30218537372E-01  0.62179734816E-01  0.51100000000E-03 0. -1.
</event>
<event>
 8    1  0.2922807E+004  0.1043930E+01  0.7957747E-01            NaN
         13   -1    0    0    0    0  0.00000000000E+00  0.00000000000E+00  0.74505805969E-08  0.10566000000E+00  0.10566000000E+00 0.  1.
     999900   -1    0    0    0    0 -0.00000000000E+00 -0.00000000000E+00 -0.74505805969E-08  0.93827000000E+00  0.93827000000E+00 0. -1.
     999902    2    1    2    0    0 -0.47764414981E-02  0.10865314914E-01  0.79971470745E-02  0.10296183326E+01  0.10295188619E+01 0.  0.
     999903    2    3    3    0    0  0.58101292556E-01  0.11323541021E+00 -0.41028136019E-01  0.14010345123E+00  0.41804913346E-01 0.  0.
         14    1    1    2    0    0  0.47764414981E-02 -0.10865314914E-01 -0.79971470745E-02  0.14311667370E-01  0.00000000000E+00 0.  1.
     999901    1    3    3    0    0 -0.62877734054E-01 -0.10237009529E+00  0.49025283094E-01  0.88951488140E+00  0.88000000000E+00 0.  1.
        -11    1    4    4    0    0  0.29324696795E-01  0.86702335981E-01 -0.14143127974E-01  0.92614912927E-01  0.51100000000E-03 0.  1.
         11    1    4    4    0    0  0.28776595762E-01  0.26533074226E-01 -0.26885008045E-01  0.47488538303E-01  0.51100000000E-03 0. -1.
</event>
<event>
 8    1  0.2922807E+004  0.1043930E+01  0.7957747E-01            NaN
         13   -1    0    0    0    0  0.00000000000E+00  0.00000000000E+00  0.74505805969E-08  0.10566000000E+00  0.10566000000E+00 0.  1.
     999900   -1    0    0    0    0 -0.00000000000E+00 -0.00000000000E+00 -0.74505805969E-08  0.93827000000E+00  0.93827000000E+00 0.  1.
     999902    2    1    2    0    0  0.31448120311E-02 -0.96270101420E-02 -0.99917797237E-02  0.10297030949E+01  0.10296048071E+01 0.  0.
     999903    2    3    3    0    0  0.12295757609E+00 -0.13390585013E-01 -0.50280043982E-01  0.14066293429E+00  0.44273072807E-01 0.  0.
         14    1    1    2    0    0 -0.31448120311E-02  0.96270101420E-02  0.99917797237E-02  0.14226905111E-01  0.00000000000E+00 0.  1.
     999901    1    3    3    0    0 -0.11981276405E+00  0.37635748705E-02  0.40288264258E-01  0.88904016060E+00  0.88000000000E+00 0.  1.
        -11    1    4    4    0    0  0.58470451958E-01 -0.77015607097E-02 -0.47732356474E-01  0.75873228250E-01  0.51100000000E-03 0.  1.
         11    1    4    4    0    0  0.64487124127E-01 -0.56890243028E-02 -0.25476875075E-02  0.64789706037E-01  0.51100000000E-03 0. -1.
</event>
<event>
 8    1  0.2922807E+004  0.1043930E+01  0.7957747E-01            NaN
         13   -1    0    0    0    0  0.00000000000E+00  0.00000000000E+00  0.74505805969E-08  0.10566000000E+00  0.10566000000E+00 0. -1.
     999900   -1    0    0    0    0 -0.00000000000E+00 -0.00000000000E+00 -0.74505805969E-08  0.93827000000E+00  0.93827000000E+00 0. -1.
     999902    2    1    2    0    0  0.59295656291E-02  0.43587989321E-02 -0.11851619954E-01  0.10299793809E+01  0.10298848991E+01 0.  0.
     999903    2    3    3    0    0 -0.14116582069E-01 -0.11697516905E+00 -0.56958256567E-01  0.14028370910E+00  0.50525320230E-01 0.  0.
         14    1    1    2    0    0 -0.59295656291E-02 -0.43587989321E-02  0.11851619954E-01  0.13950619062E-01  0.00000000000E+00 0. -1.
     999901    1    3    3    0    0  0.20046147698E-01  0.12133396798E+00  0.45106636613E-01  0.88969567184E+00  0.88000000000E+00 0. -1.
        -11    1    4    4    0    0 -0.32924505903E-01 -0.75308692312E-01 -0.41081107253E-01  0.91887652711E-01  0.51100000000E-03 0. -1.
         11    1    4    4    0    0  0.18807923834E-01 -0.41666476736E-01 -0.15877149314E-01  0.48396056387E-01  0.51100000000E-03 0.  1.
</event>
<event>
 8    1  0.2922807E+004  0.1043930E+01  0.7957747E-01            NaN
         13   -1    0    0    0    0  0.00000000000E+00  0.00000000000E+00  0.74505805969E-08  0.10566000000E+00  0.10566000000E+00 0.  1.
     999900   -1    0    0    0    0 -0.00000000000E+00 -0.00000000000E+00 -0.74505805969E-08  0.93827000000E+00  0.93827000000E+00 0. -1.
     999902    2    1    2    0    0  0.13418412340E-01  0.44726951809E-02  0.43003924461E-03  0.10297792500E+01  0.10296820189E+01 0.  0.
     999903    2    3    3    0    0  0.58106799579E-01  0.10276153853E+00 -0.61185240491E-01  0.14104183581E+00  0.47040746547E-01 0.  0.
         14    1    1    2    0    0 -0.13418412340E-01 -0.44726951809E-02 -0.43003924461E-03  0.14150750003E-01  0.00000000000E+00 0.  1.
     999901    1    3    3    0    0 -0.44688387239E-01 -0.98288843350E-01  0.61615279736E-01  0.88873741419E+00  0.88000000000E+00 0.  1.
        -11    1    4    4    0    0  0.32521041364E-01  0.74951781625E-01 -0.63049833306E-01  0.10320334443E+00  0.51100000000E-03 0. -1.
         11    1    4    4    0    0  0.25585758215E-01  0.27809756906E-01  0.18645928149E-02  0.37838491381E-01  0.51100000000E-03 0.  1.
</event>
<event>
 8    1  0.2922807E+004  0.1043930E+01  0.7957747E-01            NaN
         13   -1    0    0    0    0  0.00000000000E+00  0.00000000000E+00  0.74505805969E-08  0.10566000000E+00  0.10566000000E+00 0. -1.
     999900   -1    0    0    0    0 -0.00000000000E+00 -0.00000000000E+00 -0.74505805969E-08  0.93827000000E+00  0.93827000000E+00 0.  1.
     999902    2    1    2    0    0  0.18291613486E-02  0.21824331368E-02  0.13321919188E-01  0.10303071377E+01  0.10302170721E+01 0.  0.
     999903    2    3    3    0    0 -0.39957533987E-01 -0.68057276864E-03 -0.12431668863E+00  0.13862406002E+00  0.46528735666E-01 0.  0.
         14    1    1    2    0    0 -0.18291613486E-02 -0.21824331368E-02 -0.13321919188E-01  0.13622862273E-01  0.00000000000E+00 0.  1.
     999901    1    3    3    0    0  0.41786695336E-01  0.28630059055E-02  0.13763860782E+00  0.89168307771E+00  0.88000000000E+00 0. -1.
        -11    1    4    4    0    0 -0.40176504488E-01 -0.17166339321E-01 -0.77249280833E-01  0.88749913965E-01  0.51100000000E-03 0. -1.
         11    1    4    4    0    0  0.21897050107E-03  0.16485766553E-01 -0.47067407797E-01  0.49874146054E-01  0.51100000000E-03 0.  1.
</event>
<event>
 8    1  0.2922807E+004  0.1043930E+01  0.7957747E-01            NaN
         13   -1    0    0    0    0  0.00000000000E+00  0.00000000000E+00  0.74505805969E-08  0.10566000000E+00  0.10566000000E+00 0. -1.
     999900   -1    0    0    0    0 -0.00000000000E+00 -0.00000000000E+00 -0.74505805969E-08  0.93827000000E+00  0.93827000000E+00 0.  1.
     999902    2    1    2    0    0 -0.47150377744E-02  0.13825616533E-01  0.40176105356E-02  0.10287800677E+01  0.10286685119E+01 0.  0.
     999903    2    3    3    0    0  0.73134017282E-01  0.53739674410E-01 -0.95140888009E-01  0.13890029200E+00  0.44776840648E-01 0.  0.
         14    1    1    2    0    0  0.47150377744E-02 -0.13825616533E-01 -0.40176105356E-02  0.15149932282E-01  0.00000000000E+00 0. -1.
     999901    1    3    3    0    0 -0.77849055056E-01 -0.39914057877E-01  0.99158498545E-01  0.88987977571E+00  0.88000000000E+00 0. -1.
        -11    1    4    4    0    0  0.59186741014E-01  0.51113636067E-01 -0.53106452365E-01  0.94531637602E-01  0.51100000000E-03 0. -1.
         11    1    4    4    0    0  0.13947276268E-01  0.26260383429E-02 -0.42034435644E-01  0.44368654403E-01  0.51100000000E-03 0.  1.
</event>
<event>
 8    1  0.2922807E+004  0.1043930E+01  0.7957747E-01            NaN
         13   -1    0    0    0    0  0.00000000000E+00  0.00000000000E+00  0.74505805969E-08  0.10566000000E+00  0.10566000000E+00 0.  1.
     999900   -1    0    0    0    0 -0.00000000000E+00 -0.00000000000E+00 -0.74505805969E-08  0.93827000000E+00  0.93827000000E+00 0. -1.
     999902    2    1    2    0    0 -0.12616677074E-01  0.14786399687E-02  0.11175507928E-01  0.10270108128E+01  0.10268714383E+01 0.  0.
     999903    2    3    3    0    0 -0.81848916528E-01 -0.89031971716E-01 -0.47455701740E-01  0.13772857837E+00  0.45729427586E-01 0.  0.
         14    1    1    2    0    0  0.12616677074E-01 -0.14786399687E-02 -0.11175507928E-01  0.16919187155E-01  0.00000000000E+00 0. -1.
     999901    1    3    3    0    0  0.69232239454E-01  0.90510611684E-01  0.58631209668E-01  0.88928223448E+00  0.88000000000E+00 0.  1.
        -11    1    4    4    0    0 -0.70987919135E-01 -0.48815758221E-01 -0.41556522498E-01  0.95652854621E-01  0.51100000000E-03 0. -1.
         11    1    4    4    0    0 -0.10860997393E-01 -0.40216213494E-01 -0.58991792420E-02  0.42075723748E-01  0.51100000000E-03 0.  1.
</event>
<event>
 8    1  0.2922807E+004  0.1043930E+01  0.7957747E-01            NaN
         13   -1    0    0    0    0  0.00000000000E+00  0.00000000000E+00  0.74505805969E-08  0.10566000000E+00  0.10566000000E+00 0.  1.
     999900   -1    0    0    0    0 -0.00000000000E+00 -0.00000000000E+00 -0.74505805969E-08  0.93827000000E+00  0.93827000000E+00 0.  1.
     999902    2    1    2    0    0 -0.34158246722E-02  0.80596932250E-02 -0.93599230372E-02  0.10311145924E+01  0.10310349499E+01 0.  0.
     999903    2    3    3    0    0 -0.11068670953E+00  0.75150377396E-01  0.10560103292E-01  0.14184241240E+00  0.45919791882E-01 0.  0.
         14    1    1    2    0    0  0.34158246722E-02 -0.80596932250E-02  0.93599230372E-02  0.12815407615E-01  0.00000000000E+00 0. -1.
     999901    1    3    3    0    0  0.10727088485E+00 -0.67090684171E-01 -0.19920026329E-01  0.88927217998E+00  0.88000000000E+00 0. -1.
        -11    1    4    4    0    0 -0.73313090354E-01  0.71003364681E-01 -0.23302016347E-02  0.10208808929E+00  0.51100000000E-03 0.  1.
         11    1    4    4    0    0 -0.37373619173E-01  0.41470127149E-02  0.12890304926E-01  0.39754323119E-01  0.51100000000E-03 0. -1.
</event>
<event>
 8    1  0.2922807E+004  0.1043930E+01  0.7957747E-01            NaN
         13   -1    0    0    0    0  0.00000000000E+00  0.00000000000E+00  0.74505805969E-08  0.10566000000E+00  0.10566000000E+00 0. -1.
     999900   -1    0    0    0    0 -0.00000000000E+00 -0.00000000000E+00 -0.74505805969E-08  0.93827000000E+00  0.93827000000E+00 0.  1.
     999902    2    1    2    0    0 -0.62744705801E-02  0.11845575457E-01 -0.22396206826E-02  0.10303394687E+01  0.10302498330E+01 0.  0.
     999903    2    3    3    0    0 -0.10512383198E+00  0.50791917488E-01  0.65901723064E-01  0.14133370019E+00  0.44736324974E-01 0.  0.
         14    1    1    2    0    0  0.62744705801E-02 -0.11845575457E-01  0.22396206826E-02  0.13590531254E-01  0.00000000000E+00 0.  1.
     999901    1    3    3    0    0  0.98849361403E-01 -0.38946342032E-01 -0.68141343746E-01  0.88900576856E+00  0.88000000000E+00 0.  1.
        -11    1    4    4    0    0 -0.72774349822E-01  0.12548853007E-01  0.48281550308E-01  0.88232357585E-01  0.51100000000E-03 0.  1.
         11    1    4    4    0    0 -0.32349482162E-01  0.38243064481E-01  0.17620172756E-01  0.53101342601E-01  0.51100000000E-03 0. -1.
</event>
<event>
 8    1  0.2922807E+004  0.1043930E+01  0.7957747E-01            NaN
         13   -1    0    0    0    0  0.00000000000E+00  0.00000000000E+00  0.74505805969E-08  0.10566000000E+00  0.10566000000E+00 0.  1.
     999900   -1    0    0    0    0 -0.00000000000E+00 -0.00000000000E+00 -0.74505805969E-08  0.93827000000E+00  0.93827000000E+00 0.  1.
     999902    2    1    2    0    0  0.13079660973E-01  0.16201620840E-02 -0.36935551634E-02  0.10302426041E+01  0.10301516774E+01 0.  0.
     999903    2    3    3    0    0 -0.84769537371E-01  0.29075062093E-01 -0.91754466008E-01  0.14002748339E+00  0.56192351526E-01 0.  0.
         14    1    1    2    0    0 -0.13079660973E-01 -0.16201620840E-02  0.36935551634E-02  0.13687395885E-01  0.00000000000E+00 0.  1.
     999901    1    3    3    0    0  0.97849198344E-01 -0.27454900009E-01  0.88060910845E-01  0.89021512073E+00  0.88000000000E+00 0. -1.
        -11    1    4    4    0    0 -0.11450001020E-01 -0.78929841918E-02 -0.41464879415E-01  0.43737844811E-01  0.51100000000E-03 0.  1.
         11    1    4    4    0    0 -0.73319536351E-01  0.36968046285E-01 -0.50289586594E-01  0.96289638578E-01  0.51100000000E-03 0. -1.
</event>
<event>
 8    1  0.2922807E+004  0.1043930E+01  0.7957747E-01            NaN
         13   -1    0    0    0    0  0.00000000000E+00  0.00000000000E+00  0.74505805969E-08  0.10566000000E+00  0.10566000000E+00 0. -1.
     999900   -1    0    0    0    0 -0.00000000000E+00 -0.00000000000E+00 -0.74505805969E-08  0.93827000000E+00  0.93827000000E+00 0. -1.
     999902    2    1    2    0    0 -0.37964267040E-02  0.34525869257E-03 -0.17581443942E-01  0.10259400242E+01  0.10257822839E+01 0.  0.
     999903    2    3    3    0    0 -0.46302558061E-01 -0.20731490550E-01  0.11545859081E+00  0.13467651016E+00  0.47258381413E-01 0.  0.
         14    1    1    2    0    0  0.37964267040E-02 -0.34525869257E-03  0.17581443942E-01  0.17989975831E-01  0.00000000000E+00 0. -1.
     999901    1    3    3    0    0  0.42506131357E-01  0.21076749243E-01 -0.13304003475E+00  0.89126351401E+00  0.88000000000E+00 0.  1.
        -11    1    4    4    0    0  0.80276739646E-03  0.10059864981E-01  0.35415077477E-01  0.36828442170E-01  0.51100000000E-03 0.  1.
         11    1    4    4    0    0 -0.47105325457E-01 -0.30791355531E-01  0.80043513330E-01  0.97848067988E-01  0.51100000000E-03 0. -1.
</event>
<event>
 8    1  0.2922807E+004  0.1043930E+01  0.7957747E-01            NaN
         13   -1    0    0    0    0  0.00000000000E+00  0.00000000000E+00  0.74505805969E-08  0.10566000000E+00  0.10566000000E+00 0.  1.
     999900   -1    0    0    0    0 -0.00000000000E+00 -0.00000000000E+00 -0.74505805969E-08  0.93827000000E+00  0.93827000000E+00 0. -1.
     999902    2    1    2    0    0  0.12978667608E-01  0.51220625948E-02 -0.10972078644E-02  0.10299341005E+01  0.10298390001E+01 0.  0.
     999903    2    3    3    0    0  0.67781592804E-01 -0.59646900618E-01  0.97454143359E-01  0.14037761097E+00  0.45348280328E-01 0.  0.
         14    1    1    2    0    0 -0.12978667608E-01 -0.51220625948E-02  0.10972078644E-02  0.13995899513E-01  0.00000000000E+00 0.  1.
     999901    1    3    3    0    0 -0.54802925196E-01  0.64768963212E-01 -0.98551351223E-01  0.88955648951E+00  0.88000000000E+00 0. -1.
        -11    1    4    4    0    0  0.23345883551E-01 -0.20874386793E-01  0.65189912385E-02  0.31992634629E-01  0.51100000000E-03 0.  1.
         11    1    4    4    0    0  0.44435709252E-01 -0.38772513825E-01  0.90935152121E-01  0.10838497634E+00  0.51100000000E-03 0. -1.
</event>
<event>
 8    1  0.2922807E+004  0.1043930E+01  0.7957747E-01            NaN
         13   -1    0    0    0    0  0.00000000000E+00  0.00000000000E+00  0.74505805969E-08  0.10566000000E+00  0.10566000000E+00 0.  1.
     999900   -1    0    0    0    0 -0.00000000000E+00 -0.00000000000E+00 -0.74505805969E-08  0.93827000000E+00  0.93827000000E+00 0.  1.
     999902    2    1    2    0    0  0.13264424386E-01  0.15907421389E-02  0.80533130499E-03  0.10305462795E+01  0.10304593686E+01 0.  0.
     999903    2    3    3    0    0  0.53503061114E-01 -0.12049355707E+00 -0.22120567842E-01  0.14091190473E+00  0.44559741105E-01 0.  0.
         14    1    1    2    0    0 -0.13264424386E-01 -0.15907421389E-02 -0.80533130499E-03  0.13383720460E-01  0.00000000000E+00 0. -1.
     999901    1    3    3    0    0 -0.40238636728E-01  0.12208429921E+00  0.22925899147E-01  0.88963437481E+00  0.88000000000E+00 0.  1.
        -11    1    4    4    0    0  0.18911856808E-01 -0.88486319927E-01 -0.24426415310E-01  0.93725119514E-01  0.51100000000E-03 0. -1.
         11    1    4    4    0    0  0.34591204307E-01 -0.32007237145E-01  0.23058474674E-02  0.47186785212E-01  0.51100000000E-03 0.  1.
</event>
<event>
 8    1  0.2922807E+004  0.1043930E+01  0.7957747E-01            NaN
         13   -1    0    0    0    0  0.00000000000E+00  0.00000000000E+00  0.74505805969E-08  0.10566000000E+00  0.10566000000E+00 0.  1.
     999900   -1    0    0    0    0 -0.00000000000E+00 -0.00000000000E+00 -0.74505805969E-08  0.93827000000E+00  0.93827000000E+00 0.  1.
     999902    2    1    2    0    0  0.13614115005E-01  0.25478634540E-03  0.12940698544E-02  0.10302521471E+01  0.10301613480E+01 0.  0.
     999903    2    3    3    0    0  0.24561089279E-01 -0.12538520068E+00  0.38249080080E-01  0.14049323853E+00  0.44166302645E-01 0.  0.
         14    1    1    2    0    0 -0.13614115005E-01 -0.25478634540E-03 -0.12940698544E-02  0.13677852910E-01  0.00000000000E+00 0.  1.
     999901    1    3    3    0    0 -0.10946974275E-01  0.12563998702E+00 -0.36955010226E-01  0.88975890856E+00  0.88000000000E+00 0.  1.
        -11    1    4    4    0    0  0.22074833997E-01 -0.20080194783E-01  0.89447078209E-02  0.31157365703E-01  0.51100000000E-03 0.  1.
         11    1    4    4    0    0  0.24862552823E-02 -0.10530500590E+00  0.29304372259E-01  0.10933587283E+00  0.51100000000E-03 0. -1.
</event>
<event>
 8    1  0.2922807E+004  0.1043930E+01  0.7957747E-01            NaN
         13   -1    0    0    0    0  0.00000000000E+00  0.00000000000E+00  0.74505805969E-08  0.10566000000E+00  0.10566000000E+00 0.  1.
     999900   -1    0    0    0    0 -0.00000000000E+00 -0.00000000000E+00 -0.74505805969E-08  0.93827000000E+00  0.93827000000E+00 0. -1.
     999902    2    1    2    0    0  0.65965286114E-02 -0.43340371067E-02  0.10759139668E-01  0.10305861942E+01  0.10304998042E+01 0.  0.
     999903    2    3    3    0    0  0.12144415799E+00  0.26356156950E-02  0.58109984104E-01  0.14183389095E+00  0.44547192815E-01 0.  0.
         14    1    1    2    0    0 -0.65965286114E-02  0.43340371067E-02 -0.10759139668E-01  0.13343805820E-01  0.00000000000E+00 0. -1.
     999901    1    3    3    0    0 -0.11484762938E+00 -0.69696528017E-02 -0.47350844436E-01  0.88875230323E+00  0.88000000000E+00 0.  1.
        -11    1    4    4    0    0  0.50645721275E-01  0.16005154819E-01  0.42701921668E-01  0.68153277980E-01  0.51100000000E-03 0.  1.
         11    1    4    4    0    0  0.70798436718E-01 -0.13369539124E-01  0.15408062436E-01  0.73680612966E-01  0.51100000000E-03 0. -1.
</event>
<event>
 8    1  0.2922807E+004  0.1043930E+01  0.7957747E-01            NaN
         13   -1    0    0    0    0  0.00000000000E+00  0.00000000000E+00  0.74505805969E-08  0.10566000000E+00  0.10566000000E+00 0.  1.
     999900   -1    0    0    0    0 -0.00000000000E+00 -0.00000000000E+00 -0.74505805969E-08  0.93827000000E+00  0.93827000000E+00 0. -1.
     999902    2    1    2    0    0 -0.10429079123E-01  0.18773059394E-02  0.90669043482E-02  0.10299837201E+01  0.10298892974E+01 0.  0.
     999903    2    3    3    0    0 -0.28465463946E-01 -0.10797388476E+00  0.75999260797E-01  0.14044870919E+00  0.38487788229E-01 0.  0.
         14    1    1    2    0    0  0.10429079123E-01 -0.18773059394E-02 -0.90669043482E-02  0.13946279913E-01  0.00000000000E+00 0.  1.
     999901    1    3    3    0    0  0.18036384824E-01  0.10985119070E+00 -0.66932356449E-01  0.88953501090E+00  0.88000000000E+00 0. -1.
        -11    1    4    4    0    0 -0.10161450661E-02 -0.31816273209E-01  0.39600446307E-02  0.32081939876E-01  0.51100000000E-03 0.  1.
         11    1    4    4    0    0 -0.27449318880E-01 -0.76157611552E-01  0.72039216166E-01  0.10836676931E+00  0.51100000000E-03 0. -1.
</event>
<event>
 8    1  0.2922807E+004  0.1043930E+01  0.7957747E-01            NaN
         13   -1    0    0    0    0  0.00000000000E+00  0.00000000000E+00  0.74505805969E-08  0.10566000000E+00  0.10566000000E+00 0. -1.
     999900   -1    0    0    0    0 -0.00000000000E+00 -0.00000000000E+00 -0.74505805969E-08  0.93827000000E+00  0.93827000000E+00 0. -1.
     999902    2    1    2    0    0  0.11254562605E-01  0.73089717271E-02 -0.26211764138E-02  0.10302567848E+01  0.10301660477E+01 0.  0.
     999903    2    3    3    0    0  0.30157846839E-01  0.11699491450E+00 -0.58302531906E-01  0.14149992633E+00  0.45008201230E-01 0.  0.
         14    1    1    2    0    0 -0.11254562605E-01 -0.73089717271E-02  0.26211764138E-02  0.13673215165E-01  0.00000000000E+00 0.  1.
     999901    1    3    3    0    0 -0.18903284234E-01 -0.10968594278E+00  0.55681355492E-01  0.88875685851E+00  0.88000000000E+00 0. -1.
        -11    1    4    4    0    0  0.41895443527E-01  0.92940899711E-01 -0.42826809303E-01  0.11057864054E+00  0.51100000000E-03 0.  1.
         11    1    4    4    0    0 -0.11737596688E-01  0.24054014792E-01 -0.15475722603E-01  0.30921285787E-01  0.51100000000E-03 0. -1.
</event>
<event>
 8    1  0.2922807E+004  0.1043930E+01  0.7957747E-01            NaN
         13   -1    0    0    0    0  0.00000000000E+00  0.00000000000E+00  0.74505805969E-08  0.10566000000E+00  0.10566000000E+00 0.  1.
     999900   -1    0    0    0    0 -0.00000000000E+00 -0.00000000000E+00 -0.74505805969E-08  0.93827000000E+00  0.93827000000E+00 0.  1.
     999902    2    1    2    0    0  0.73103869957E-02  0.83682789928E-03 -0.11797314957E-01  0.10300260912E+01  0.10299322453E+01 0.  0.
     999903    2    3    3    0    0  0.20194442744E-01  0.30827957776E-01 -0.12917271449E+00  0.14163290621E+00  0.44901129788E-01 0.  0.
         14    1    1    2    0    0 -0.73103869957E-02 -0.83682789928E-03  0.11797314957E-01  0.13903908773E-01  0.00000000000E+00 0.  1.
     999901    1    3    3    0    0 -0.12884055748E-01 -0.29991129877E-01  0.11737539953E+00  0.88839318501E+00  0.88000000000E+00 0. -1.
        -11    1    4    4    0    0  0.72649853589E-03  0.36929823686E-01 -0.71932645279E-01  0.80863503854E-01  0.51100000000E-03 0.  1.
         11    1    4    4    0    0  0.19467944208E-01 -0.61018659105E-02 -0.57240069208E-01  0.60769402360E-01  0.51100000000E-03 0. -1.
</event>
<event>
 8    1  0.2922807E+004  0.1043930E+01  0.7957747E-01            NaN
         13   -1    0    0    0    0  0.00000000000E+00  0.00000000000E+00  0.74505805969E-08  0.10566000000E+00  0.10566000000E+00 0.  1.
     999900   -1    0    0    0    0 -0.00000000000E+00 -0.00000000000E+00 -0.74505805969E-08  0.93827000000E+00  0.93827000000E+00 0. -1.
     999902    2    1    2    0    0 -0.88770881305E-02 -0.71725358305E-02  0.69435270942E-02  0.10305710879E+01  0.10304845009E+01 0.  0.
     999903    2    3    3    0    0  0.74552578468E-01 -0.97089431161E-01 -0.51676108329E-01  0.14013197208E+00  0.44520835872E-01 0.  0.
         14    1    1    2    0    0  0.88770881305E-02  0.71725358305E-02 -0.69435270942E-02  0.13358912097E-01  0.00000000000E+00 0. -1.
     999901    1    3    3    0    0 -0.83429666599E-01  0.89916895331E-01  0.58619635423E-01  0.89043911583E+00  0.88000000000E+00 0. -1.
        -11    1    4    4    0    0  0.70024824343E-01 -0.89213133835E-01 -0.59551373111E-01  0.12809795640E+00  0.51100000000E-03 0.  1.
         11    1    4    4    0    0  0.45277541251E-02 -0.78762973263E-02  0.78752647818E-02  0.12034015679E-01  0.51100000000E-03 0. -1.
</event>
<event>
 8    1  0.2922807E+004  0.1043930E+01  0.7957747E-01            NaN
         13   -1    0    0    0    0  0.00000000000E+00  0.00000000000E+00  0.74505805969E-08  0.10566000000E+00  0.10566000000E+00 0. -1.
     999900   -1    0    0    0    0 -0.00000000000E+00 -0.00000000000E+00 -0.74505805969E-08  0.93827000000E+00  0.93827000000E+00 0.  1.
     999902    2    1    2    0    0  0.97338144854E-03 -0.12137028688E-01  0.62633280368E-02  0.10302375125E+01  0.10301465177E+01 0.  0.
     999903    2    3    3    0    0  0.34764566309E-01 -0.10955536637E+00 -0.68277945295E-01  0.14108703132E+00  0.45085687548E-01 0.  0.
         14    1    1    2    0    0 -0.97338144854E-03  0.12137028688E-01 -0.62633280368E-02  0.13692487536E-01  0.00000000000E+00 0.  1.
     999901    1    3    3    0    0 -0.33791184860E-01  0.97418337681E-01  0.74541273332E-01  0.88915048115E+00  0.88000000000E+00 0. -1.
        -11    1    4    4    0    0 -0.40183361297E-02 -0.15459689615E-01 -0.26758662374E-01  0.31167870657E-01  0.51100000000E-03 0.  1.
         11    1    4    4    0    0  0.38782902438E-01 -0.94095676754E-01 -0.41519282922E-01  0.10991916066E+00  0.51100000000E-03 0. -1.
</event>
<event>
 8    1  0.2922807E+004  0.1043930E+01  0.7957747E-01            NaN
         13   -1    0    0    0    0  0.00000000000E+00  0.00000000000E+00  0.74505805969E-08  0.10566000000E+00  0.10566000000E+00 0. -1.
     999900   -1    0    0    0    0 -0.00000000000E+00 -0.00000000000E+00 -0.74505805969E-08  0.93827000000E+00  0.93827000000E+00 0. -1.
     999902    2    1    2    0    0  0.71518184451E-02 -0.11198957359E-01  0.75927204718E-03  0.10306205429E+01  0.10305346000E+01 0.  0.
     999903    2    3    3    0    0  0.13230991511E-02  0.10943805195E+00  0.73703244013E-01  0.13938090905E+00  0.44904697109E-01 0.  0.
         14    1    1    2    0    0 -0.71518184451E-02  0.11198957359E-01 -0.75927204718E-03  0.13309457053E-01  0.00000000000E+00 0.  1.
     999901    1    3    3    0    0  0.58287192940E-02 -0.12063700931E+00 -0.72943971966E-01  0.89123963390E+00  0.88000000000E+00 0. -1.
        -11    1    4    4    0    0 -0.17624103024E-01  0.82668812149E-01  0.44816683174E-01  0.95674122526E-01  0.51100000000E-03 0. -1.
         11    1    4    4    0    0  0.18947202175E-01  0.26769239805E-01  0.28886560840E-01  0.43706786523E-01  0.51100000000E-03 0.  1.
</event>
<event>
 8    1  0.2922807E+004  0.1043930E+01  0.7957747E-01            NaN
         13   -1    0    0    0    0  0.00000000000E+00  0.00000000000E+00  0.74505805969E-08  0.10566000000E+00  0.10566000000E+00 0. -1.
     999900   -1    0    0    0    0 -0.00000000000E+00 -0.00000000000E+00 -0.74505805969E-08  0.93827000000E+00  0.93827000000E+00 0.  1.
     999902    2    1    2    0    0 -0.45473400642E-02  0.10243009262E-01  0.94258957049E-02  0.10292860576E+01  0.10291818805E+01 0.  0.
     999903    2    3    3    0    0  0.32305518238E-01  0.23777446570E-01 -0.12434308097E+00  0.13831161725E+00  0.45385991311E-01 0.  0.
         14    1    1    2    0    0  0.45473400642E-02 -0.10243009262E-01 -0.94258957049E-02  0.14643942442E-01  0.00000000000E+00 0.  1.
     999901    1    3    3    0    0 -0.36852858302E-01 -0.13534437309E-01  0.13376897668E+00  0.89097444031E+00  0.88000000000E+00 0. -1.
        -11    1    4    4    0    0  0.31891608085E-01  0.10576870070E-01 -0.37031686505E-01  0.50005517427E-01  0.51100000000E-03 0.  1.
         11    1    4    4    0    0  0.41391015265E-03  0.13200576500E-01 -0.87311394466E-01  0.88306099825E-01  0.51100000000E-03 0. -1.
</event>
<event>
 8    1  0.2922807E+004  0.1043930E+01  0.7957747E-01            NaN
         13   -1    0    0    0    0  0.00000000000E+00  0.00000000000E+00  0.74505805969E-08  0.10566000000E+00  0.10566000000E+00 0. -1.
     999900   -1    0    0    0    0 -0.00000000000E+00 -0.00000000000E+00 -0.74505805969E-08  0.93827000000E+00  0.93827000000E+00 0. -1.
     999902    2    1    2    0    0 -0.75482957706E-02  0.60534762149E-02  0.84222442202E-02  0.10311020796E+01  0.10310222806E+01 0.  0.
     999903    2    3    3    0    0 -0.11833016944E+00 -0.51303554972E-01  0.37958274127E-01  0.14181313355E+00  0.45122616483E-01 0.  0.
         14    1    1    2    0    0  0.75482957706E-02 -0.60534762149E-02 -0.84222442202E-02  0.12827920370E-01  0.00000000000E+00 0.  1.
     999901    1    3    3    0    0  0.11078187367E+00  0.57357031187E-01 -0.29536029907E-01  0.88928894608E+00  0.88000000000E+00 0.  1.
        -11    1    4    4    0    0 -0.62147298940E-01 -0.50612358719E-01  0.17689089791E-01  0.82079611593E-01  0.51100000000E-03 0.  1.
         11    1    4    4    0    0 -0.56182870505E-01 -0.69119625280E-03  0.20269184336E-01  0.59733521954E-01  0.51100000000E-03 0. -1.
</event>
<event>
 8    1  0.2922807E+004  0.1043930E+01  0.7957747E-01            NaN
         13   -1    0    0    0    0  0.00000000000E+00  0.00000000000E+00  0.74505805969E-08  0.10566000000E+00  0.10566000000E+00 0. -1.
     999900   -1    0    0    0    0 -0.00000000000E+00 -0.00000000000E+00 -0.74505805969E-08  0.93827000000E+00  0.93827000000E+00 0.  1.
     999902    2    1    2    0    0  0.93456098186E-02  0.49825215302E-02  0.14743869951E-02  0.10332370228E+01  0.10331816905E+01 0.  0.
     999903    2    3    3    0    0  0.20535696887E-01  0.13466301608E+00  0.48533402050E-02  0.14365641039E+00  0.45362612233E-01 0.  0.
         14    1    1    2    0    0 -0.93456098186E-02 -0.49825215302E-02 -0.14743869951E-02  0.10692977167E-01  0.00000000000E+00 0. -1.
     999901    1    3    3    0    0 -0.11190087068E-01 -0.12968049455E+00 -0.33789532099E-02  0.88958061245E+00  0.88000000000E+00 0. -1.
        -11    1    4    4    0    0  0.18488563709E-01  0.22021600215E-01 -0.90308790838E-02  0.30142922255E-01  0.51100000000E-03 0.  1.
         11    1    4    4    0    0  0.20471331774E-02  0.11264141586E+00  0.13884219289E-01  0.11351348813E+00  0.51100000000E-03 0. -1.
</event>
<event>
 8    1  0.2922807E+004  0.1043930E+01  0.7957747E-01            NaN
         13   -1    0    0    0    0  0.00000000000E+00  0.00000000000E+00  0.74505805969E-08  0.10566000000E+00  0.10566000000E+00 0. -1.
     999900   -1    0    0    0    0 -0.00000000000E+00 -0.00000000000E+00 -0.74505805969E-08  0.93827000000E+00  0.93827000000E+00 0. -1.
     999902    2    1    2    0    0  0.39516706118E-02 -0.16675570401E-01  0.15063284610E-01  0.10211134952E+01  0.10208585490E+01 0.  0.
     999903    2    3    3    0    0  0.73186163718E-01  0.97373166879E-01 -0.14122763263E-01  0.13057862506E+00  0.44872894862E-01 0.  0.
         14    1    1    2    0    0 -0.39516706118E-02  0.16675570401E-01 -0.15063284610E-01  0.22816504817E-01  0.00000000000E+00 0.  1.
     999901    1    3    3    0    0 -0.69234493106E-01 -0.11404873728E+00  0.29186047873E-01  0.89053487012E+00  0.88000000000E+00 0.  1.
        -11    1    4    4    0    0  0.68519627121E-01  0.10195305057E+00 -0.11049348515E-01  0.12333577358E+00  0.51100000000E-03 0. -1.
         11    1    4    4    0    0  0.46665365967E-02 -0.45798836879E-02 -0.30734147477E-02  0.72428514837E-02  0.51100000000E-03 0.  1.
</event>
<event>
 8    1  0.2922807E+004  0.1043930E+01  0.7957747E-01            NaN
         13   -1    0    0    0    0  0.00000000000E+00  0.00000000000E+00  0.74505805969E-08  0.10566000000E+00  0.10566000000E+00 0. -1.
     999900   -1    0    0    0    0 -0.00000000000E+00 -0.00000000000E+00 -0.74505805969E-08  0.93827000000E+00  0.93827000000E+00 0. -1.
     999902    2    1    2    0    0  0.10694042764E-01 -0.60152828400E-02 -0.75132376497E-02  0.10295426820E+01  0.10294421495E+01 0.  0.
     999903    2    3    3    0    0 -0.31519265541E-01 -0.85327049919E-01 -0.97284471799E-01  0.14042447039E+00  0.44503863688E-01 0.  0.
         14    1    1    2    0    0 -0.10694042764E-01  0.60152828400E-02  0.75132376497E-02  0.14387317966E-01  0.00000000000E+00 0.  1.
     999901    1    3    3    0    0  0.42213308304E-01  0.79311767079E-01  0.89771234149E-01  0.88911821164E+00  0.88000000000E+00 0.  1.
        -11    1    4    4    0    0 -0.12008401957E-01  0.15563028154E-02 -0.13729823872E-01  0.18313737482E-01  0.51100000000E-03 0.  1.
         11    1    4    4    0    0 -0.19510863583E-01 -0.86883352735E-01 -0.83554647927E-01  0.12211073291E+00  0.51100000000E-03 0. -1.
</event>
<event>
 8    1  0.2922807E+004  0.1043930E+01  0.7957747E-01            NaN
         13   -1    0    0    0    0  0.00000000000E+00  0.00000000000E+00  0.74505805969E-08  0.10566000000E+00  0.10566000000E+00 0.  1.
     999900   -1    0    0    0    0 -0.00000000000E+00 -0.00000000000E+00 -0.74505805969E-08  0.93827000000E+00  0.93827000000E+00 0.  1.
     999902    2    1    2    0    0  0.42093574484E-02  0.56451779768E-02  0.12388291512E-01  0.10296802108E+01  0.10295816044E+01 0.  0.
     999903    2    3    3    0    0 -0.11242720388E+00 -0.90066027871E-02  0.69132645730E-01  0.14005181434E+00  0.45980353733E-01 0.  0.
         14    1    1    2    0    0 -0.42093574484E-02 -0.56451779768E-02 -0.12388291512E-01  0.14249789160E-01  0.00000000000E+00 0. -1.
     999901    1    3    3    0    0  0.11663656133E+00  0.14651780764E-01 -0.56744354217E-01  0.88962839650E+00  0.88000000000E+00 0.  1.
        -11    1    4    4    0    0 -0.81504284006E-01 -0.19673766532E-01  0.66891340389E-01  0.10726004821E+00  0.51100000000E-03 0.  1.
         11    1    4    4    0    0 -0.30922919872E-01  0.10667163745E-01  0.22413053406E-02  0.32791766138E-01  0.51100000000E-03 0. -1.
</event>
<event>
 8    1  0.2922807E+004  0.1043930E+01  0.7957747E-01            NaN
         13   -1    0    0    0    0  0.00000000000E+00  0.00000000000E+00  0.74505805969E-08  0.10566000000E+00  0.10566000000E+00 0.  1.
     999900   -1    0    0    0    0 -0.00000000000E+00 -0.00000000000E+00 -0.74505805969E-08  0.93827000000E+00  0.93827000000E+00 0. -1.
     999902    2    1    2    0    0  0.72574932954E-02 -0.10432703036E-01  0.54985874917E-02  0.10300827271E+01  0.10299896493E+01 0.  0.
     999903    2    3    3    0    0 -0.59336458828E-01 -0.91731399619E-01 -0.75086449641E-01  0.14017364147E+00  0.45554470925E-01 0.  0.
         14    1    1    2    0    0 -0.72574932954E-02  0.10432703036E-01 -0.54985874917E-02  0.13847272872E-01  0.00000000000E+00 0. -1.
     999901    1    3    3    0    0  0.66593952124E-01  0.81298696583E-01  0.80585037133E-01  0.88990908566E+00  0.88000000000E+00 0. -1.
        -11    1    4    4    0    0 -0.44609630041E-01 -0.51463455271E-01 -0.68845300378E-01  0.96842360701E-01  0.51100000000E-03 0.  1.
         11    1    4    4    0    0 -0.14726828787E-01 -0.40267944348E-01 -0.62411492627E-02  0.43331280771E-01  0.51100000000E-03 0. -1.
</event>
<event>
 8    1  0.2922807E+004  0.1043930E+01  0.7957747E-01            NaN
         13   -1    0    0    0    0  0.00000000000E+00  0.00000000000E+00  0.74505805969E-08  0.10566000000E+00  0.10566000000E+00 0. -1.
     999900   -1    0    0    0    0 -0.00000000000E+00 -0.00000000000E+00 -0.74505805969E-08  0.93827000000E+00  0.93827000000E+00 0.  1.
     999902    2    1    2    0    0  0.11621987269E-01 -0.59495953424E-02  0.75916031955E-02  0.10288269966E+01  0.10287161359E+01 0.  0.
     999903    2    3    3    0    0  0.90569836584E-01 -0.93035251055E-01  0.29097588183E-01  0.14075088402E+00  0.45887781329E-01 0.  0.
         14    1    1    2    0    0 -0.11621987269E-01  0.59495953424E-02 -0.75916031955E-02  0.15103003406E-01  0.00000000000E+00 0. -1.
     999901    1    3    3    0    0 -0.78947849316E-01  0.87085655712E-01 -0.21505984988E-01  0.88807611258E+00  0.88000000000E+00 0.  1.
        -11    1    4    4    0    0  0.85591215904E-01 -0.60585595113E-01  0.21375787314E-01  0.10702175470E+00  0.51100000000E-03 0. -1.
         11    1    4    4    0    0  0.49786206806E-02 -0.32449655941E-01  0.77218008697E-02  0.33729129314E-01  0.51100000000E-03 0.  1.
</event>
<event>
 8    1  0.2922807E+004  0.1043930E+01  0.7957747E-01            NaN
         13   -1    0    0    0    0  0.00000000000E+00  0.00000000000E+00  0.74505805969E-08  0.10566000000E+00  0.10566000000E+00 0.  1.
     999900   -1    0    0    0    0 -0.00000000000E+00 -0.00000000000E+00 -0.74505805969E-08  0.93827000000E+00  0.93827000000E+00 0. -1.
     999902    2    1    2    0    0  0.90321092708E-02  0.62704035544E-02  0.63481140564E-02  0.10312337206E+01  0.10311555610E+01 0.  0.
     999903    2    3    3    0    0  0.19785432190E-01  0.97925628431E-01  0.91315554826E-01  0.14233789982E+00  0.44052867577E-01 0.  0.
         14    1    1    2    0    0 -0.90321092708E-02 -0.62704035544E-02 -0.63481140564E-02  0.12696279403E-01  0.00000000000E+00 0. -1.
     999901    1    3    3    0    0 -0.10753322919E-01 -0.91655224877E-01 -0.84967440770E-01  0.88889582078E+00  0.88000000000E+00 0. -1.
        -11    1    4    4    0    0  0.13851620247E-01  0.91502569705E-01  0.61144752697E-01  0.11092127636E+00  0.51100000000E-03 0.  1.
         11    1    4    4    0    0  0.59338119431E-02  0.64230587263E-02  0.30170802129E-01  0.31416623461E-01  0.51100000000E-03 0. -1.
</event>
<event>
 8    1  0.2922807E+004  0.1043930E+01  0.7957747E-01            NaN
         13   -1    0    0    0    0  0.00000000000E+00  0.00000000000E+00  0.74505805969E-08  0.10566000000E+00  0.10566000000E+00 0. -1.
     999900   -1    0    0    0    0 -0.00000000000E+00 -0.00000000000E+00 -0.74505805969E-08  0.93827000000E+00  0.93827000000E+00 0. -1.
     999902    2    1    2    0    0  0.10713576809E-01  0.76171980551E-02  0.25790130663E-02  0.10305339654E+01  0.10304468934E+01 0.  0.
     999903    2    3    3    0    0 -0.16387559848E-01 -0.77019331715E-01 -0.10584184707E+00  0.13943750784E+00  0.45164061225E-01 0.  0.
         14    1    1    2    0    0 -0.10713576809E-01 -0.76171980551E-02 -0.25790130663E-02  0.13396034587E-01  0.00000000000E+00 0.  1.
     999901    1    3    3    0    0  0.27101136658E-01  0.84636529770E-01  0.10842086014E+00  0.89109645757E+00  0.88000000000E+00 0.  1.
        -11    1    4    4    0    0 -0.50218524452E-02 -0.75848410283E-01 -0.10232635959E+00  0.12747213551E+00  0.51100000000E-03 0.  1.
         11    1    4    4    0    0 -0.11365707403E-01 -0.11709214317E-02 -0.35154874840E-02  0.11965372331E-01  0.51100000000E-03 0. -1.
</event>
<event>
 7    1  0.2922807E+004  0.1043930E+01  0.7957747E-01            NaN
         13   -1    0    0    0    0  0.00000000000E+00  0.00000000000E+00  0.74505805969E-08  0.10566000000E+00  0.10566000000E+00 0. -1.
     999900   -1    0    0    0    0 -0.00000000000E+00 -0.00000000000E+00 -0.74505805969E-08  0.93827000000E+00  0.93827000000E+00 0. -1.
     999903    2    1    2    0    0  0.10134593328E+00 -0.33029246408E-01  0.47338211650E-01  0.12487617849E+00  0.44623137056E-01 0.  0.
         14    1    1    2    0    0 -0.16122444313E-01  0.28602786141E-01  0.57492294293E-02  0.33333260037E-01  0.00000000000E+00 0. -1.
     999901    1    1    2    0    0 -0.85223488965E-01  0.44264602674E-02 -0.53087441080E-01  0.88572056148E+00  0.88000000000E+00 0. -1.
        -11    1    3    3    0    0  0.79801252372E-01 -0.73158551000E-02  0.22824388452E-01  0.83324518872E-01  0.51100000000E-03 0. -1.
         11    1    3    3    0    0  0.21544680907E-01 -0.25713391308E-01  0.24513823198E-01  0.41551659615E-01  0.51100000000E-03 0.  1.
</event>
<event>
 8    1  0.2922807E+004  0.1043930E+01  0.7957747E-01            NaN
         13   -1    0    0    0    0  0.00000000000E+00  0.00000000000E+00  0.74505805969E-08  0.10566000000E+00  0.10566000000E+00 0. -1.
     999900   -1    0    0    0    0 -0.00000000000E+00 -0.00000000000E+00 -0.74505805969E-08  0.93827000000E+00  0.93827000000E+00 0. -1.
     999902    2    1    2    0    0 -0.11760606413E-01  0.46612174270E-02  0.36588821824E-02  0.10307608607E+01  0.10306767319E+01 0.  0.
     999903    2    3    3    0    0 -0.38848609211E-01 -0.17279688212E-01 -0.12521156932E+00  0.14069189904E+00  0.48046553497E-01 0.  0.
         14    1    1    2    0    0  0.11760606413E-01 -0.46612174270E-02 -0.36588821824E-02  0.13169139301E-01  0.00000000000E+00 0. -1.
     999901    1    3    3    0    0  0.27088002798E-01  0.21940905639E-01  0.12887045150E+00  0.89006896166E+00  0.88000000000E+00 0.  1.
        -11    1    4    4    0    0 -0.33206738694E-01  0.10666056011E-01 -0.79505833667E-01  0.86821028292E-01  0.51100000000E-03 0.  1.
         11    1    4    4    0    0 -0.56418705176E-02 -0.27945744224E-01 -0.45705735649E-01  0.53870870750E-01  0.51100000000E-03 0. -1.
</event>
<event>
 8    1  0.2922807E+004  0.1043930E+01  0.7957747E-01            NaN
         13   -1    0    0    0    0  0.00000000000E+00  0.00000000000E+00  0.74505805969E-08  0.10566000000E+00  0.10566000000E+00 0.  1.
     999900   -1    0    0    0    0 -0.00000000000E+00 -0.00000000000E+00 -0.74505805969E-08  0.93827000000E+00  0.93827000000E+00 0.  1.
     999902    2    1    2    0    0 -0.97994413997E-02  0.65853063295E-02 -0.70468491304E-02  0.10301803311E+01  0.10300885696E+01 0.  0.
     999903    2    3    3    0    0  0.32587668498E-01  0.12838671803E+00 -0.14436607002E-01  0.14074969331E+00  0.45353666238E-01 0.  0.
         14    1    1    2    0    0  0.97994413997E-02 -0.65853063295E-02  0.70468491304E-02  0.13749668864E-01  0.00000000000E+00 0.  1.
     999901    1    3    3    0    0 -0.42387109898E-01 -0.12180141170E+00  0.73897578712E-02  0.88943063782E+00  0.88000000000E+00 0.  1.
        -11    1    4    4    0    0  0.39294063624E-01  0.88631705874E-01  0.25770178997E-02  0.96987137624E-01  0.51100000000E-03 0. -1.
         11    1    4    4    0    0 -0.67063951261E-02  0.39755012156E-01 -0.17013624901E-01  0.43762555688E-01  0.51100000000E-03 0.  1.
</event>
<event>
 8    1  0.2922807E+004  0.1043930E+01  0.7957747E-01            NaN
         13   -1    0    0    0    0  0.00000000000E+00  0.00000000000E+00  0.74505805969E-08  0.10566000000E+00  0.10566000000E+00 0. -1.
     999900   -1    0    0    0    0 -0.00000000000E+00 -0.00000000000E+00 -0.74505805969E-08  0.93827000000E+00  0.93827000000E+00 0. -1.
     999902    2    1    2    0    0  0.30833330971E-02  0.12590080159E-02 -0.12552889257E-01  0.10309428112E+01  0.10308610056E+01 0.  0.
     999903    2    3    3    0    0  0.76405019886E-01 -0.29284209319E-01  0.10390474850E+00  0.13972379251E+00  0.45069384890E-01 0.  0.
         14    1    1    2    0    0 -0.30833330971E-02 -0.12590080159E-02  0.12552889257E-01  0.12987188798E-01  0.00000000000E+00 0. -1.
     999901    1    3    3    0    0 -0.73321686789E-01  0.30543217335E-01 -0.11645763776E+00  0.89121901869E+00  0.88000000000E+00 0. -1.
        -11    1    4    4    0    0  0.12000883165E-01 -0.24650383784E-01  0.42747493336E-01  0.50786532909E-01  0.51100000000E-03 0. -1.
         11    1    4    4    0    0  0.64404136720E-01 -0.46338255354E-02  0.61157255165E-01  0.88937259605E-01  0.51100000000E-03 0.  1.
</event>
<event>
 8    1  0.2922807E+004  0.1043930E+01  0.7957747E-01            NaN
         13   -1    0    0    0    0  0.00000000000E+00  0.00000000000E+00  0.74505805969E-08  0.10566000000E+00  0.10566000000E+00 0.  1.
     999900   -1    0    0    0    0 -0.00000000000E+00 -0.00000000000E+00 -0.74505805969E-08  0.93827000000E+00  0.93827000000E+00 0.  1.
     999902    2    1    2    0    0  0.28728032468E-02 -0.12426343065E-01 -0.53913052832E-02  0.10300832252E+01  0.10299901541E+01 0.  0.
     999903    2    3    3    0    0  0.36784583726E-01 -0.11231960728E+00  0.63560875847E-01  0.14110455480E+00  0.43608607734E-01 0.  0.
         14    1    1    2    0    0 -0.28728032468E-02  0.12426343065E-01  0.53913052832E-02  0.13846774828E-01  0.00000000000E+00 0. -1.
     999901    1    3    3    0    0 -0.33911780479E-01  0.99893264213E-01 -0.68952181131E-01  0.88897867037E+00  0.88000000000E+00 0.  1.
        -11    1    4    4    0    0  0.28124108327E-02 -0.76644501507E-01  0.39762387412E-01  0.86392116768E-01  0.51100000000E-03 0. -1.
         11    1    4    4    0    0  0.33972172893E-01 -0.35675105771E-01  0.23798488436E-01  0.54712438034E-01  0.51100000000E-03 0.  1.
</event>
<event>
 8    1  0.2922807E+004  0.1043930E+01  0.7957747E-01            NaN
         13   -1    0    0    0    0  0.00000000000E+00  0.00000000000E+00  0.74505805969E-08  0.10566000000E+00  0.10566000000E+00 0.  1.
     999900   -1    0    0    0    0 -0.00000000000E+00 -0.00000000000E+00 -0.74505805969E-08  0.93827000000E+00  0.93827000000E+00 0. -1.
     999902    2    1    2    0    0  0.10602357292E-01 -0.61359688155E-02 -0.61868894768E-02  0.10302063819E+01  0.10301149701E+01 0.  0.
     999903    2    3    3    0    0 -0.78261838533E-01  0.59571007818E-01  0.86377082642E-01  0.13847641095E+00  0.45178486495E-01 0.  0.
         14    1    1    2    0    0 -0.10602357292E-01  0.61359688155E-02  0.61868894768E-02  0.13723618140E-01  0.00000000000E+00 0.  1.
     999901    1    3    3    0    0  0.88864195825E-01 -0.65706976633E-01 -0.92563972119E-01  0.89172997091E+00  0.88000000000E+00 0. -1.
        -11    1    4    4    0    0 -0.62024443261E-01  0.19841864506E-01  0.56038907339E-01  0.85914791541E-01  0.51100000000E-03 0.  1.
         11    1    4    4    0    0 -0.16237395272E-01  0.39729143312E-01  0.30338175303E-01  0.52561619412E-01  0.51100000000E-03 0. -1.
</event>
<event>
 8    1  0.2922807E+004  0.1043930E+01  0.7957747E-01            NaN
         13   -1    0    0    0    0  0.00000000000E+00  0.00000000000E+00  0.74505805969E-08  0.10566000000E+00  0.10566000000E+00 0. -1.
     999900   -1    0    0    0    0 -0.00000000000E+00 -0.00000000000E+00 -0.74505805969E-08  0.93827000000E+00  0.93827000000E+00 0. -1.
     999902    2    1    2    0    0  0.19228724019E-01  0.30231211225E-02  0.55888532095E-02  0.10236786206E+01  0.10234782850E+01 0.  0.
     999903    2    3    3    0    0  0.77682444074E-01 -0.95156904770E-01 -0.35582508065E-01  0.13533677428E+00  0.44277860723E-01 0.  0.
         14    1    1    2    0    0 -0.19228724019E-01 -0.30231211225E-02 -0.55888532095E-02  0.20251379433E-01  0.00000000000E+00 0.  1.
     999901    1    3    3    0    0 -0.58453720054E-01  0.98180025892E-01  0.41171361275E-01  0.88834184629E+00  0.88000000000E+00 0.  1.
        -11    1    4    4    0    0 -0.28188243608E-02 -0.42118906698E-02 -0.99891219311E-02  0.11212915399E-01  0.51100000000E-03 0.  1.
         11    1    4    4    0    0  0.80501268434E-01 -0.90945014100E-01 -0.25593386134E-01  0.12412385888E+00  0.51100000000E-03 0. -1.
</event>
<event>
 8    1  0.2922807E+004  0.1043930E+01  0.7957747E-01            NaN
         13   -1    0    0    0    0  0.00000000000E+00  0.00000000000E+00  0.74505805969E-08  0.10566000000E+00  0.10566000000E+00 0.  1.
     999900   -1    0    0    0    0 -0.00000000000E+00 -0.00000000000E+00 -0.74505805969E-08  0.93827000000E+00  0.93827000000E+00 0.  1.
     999902    2    1    2    0    0 -0.13713544147E-01  0.13439195445E-02  0.20740283206E-02  0.10299955461E+01  0.10299012846E+01 0.  0.
     999903    2    3    3    0    0  0.48416779033E-01 -0.11724984938E+00 -0.39912392557E-01  0.13887966212E+00  0.40035606661E-01 0.  0.
         14    1    1    2    0    0  0.13713544147E-01 -0.13439195445E-02 -0.20740283206E-02  0.13934453929E-01  0.00000000000E+00 0.  1.
     999901    1    3    3    0    0 -0.62130323181E-01  0.11859376892E+00  0.41986420878E-01  0.89111588395E+00  0.88000000000E+00 0. -1.
        -11    1    4    4    0    0 -0.68368594283E-02 -0.83492343599E-02 -0.17918663161E-02  0.10950993888E-01  0.51100000000E-03 0. -1.
         11    1    4    4    0    0  0.55253638462E-01 -0.10890061502E+00 -0.38120526241E-01  0.12792866824E+00  0.51100000000E-03 0.  1.
</event>
<event>
 8    1  0.2922807E+004  0.1043930E+01  0.7957747E-01            NaN
         13   -1    0    0    0    0  0.00000000000E+00  0.00000000000E+00  0.74505805969E-08  0.10566000000E+00  0.10566000000E+00 0. -1.
     999900   -1    0    0    0    0 -0.00000000000E+00 -0.00000000000E+00 -0.74505805969E-08  0.93827000000E+00  0.93827000000E+00 0.  1.
     999902    2    1    2    0    0 -0.14626377337E-02  0.13947751128E-01  0.29734673653E-02  0.10295940111E+01  0.10294941996E+01 0.  0.
     999903    2    3    3    0    0 -0.96398369699E-02 -0.11355160891E-01  0.12858728631E+00  0.14027633135E+00  0.54045284725E-01 0.  0.
         14    1    1    2    0    0  0.14626377337E-02 -0.13947751128E-01 -0.29734673653E-02  0.14335988939E-01  0.00000000000E+00 0.  1.
     999901    1    3    3    0    0  0.81771992361E-02  0.25302912020E-01 -0.12561381894E+00  0.88931767971E+00  0.88000000000E+00 0.  1.
        -11    1    4    4    0    0 -0.23284414932E-01  0.80209215722E-02  0.29689413713E-01  0.38577474894E-01  0.51100000000E-03 0. -1.
         11    1    4    4    0    0  0.13644577962E-01 -0.19376082464E-01  0.98897872593E-01  0.10169885645E+00  0.51100000000E-03 0.  1.
</event>
<event>
 8    1  0.2922807E+004  0.1043930E+01  0.7957747E-01            NaN
         13   -1    0    0    0    0  0.00000000000E+00  0.00000000000E+00  0.74505805969E-08  0.10566000000E+00  0.10566000000E+00 0.  1.
     999900   -1    0    0    0    0 -0.00000000000E+00 -0.00000000000E+00 -0.74505805969E-08  0.93827000000E+00  0.93827000000E+00 0.  1.
     999902    2    1    2    0    0 -0.57885534050E-03 -0.10883795971E-02  0.13733570127E-01  0.10301412150E+01  0.10300489271E+01 0.  0.
     999903    2    3    3    0    0 -0.47684714239E-01  0.42848568642E-01 -0.11510455044E+00  0.13843011902E+00  0.42473621368E-01 0.  0.
         14    1    1    2    0    0  0.57885534050E-03  0.10883795971E-02 -0.13733570127E-01  0.13788785011E-01  0.00000000000E+00 0. -1.
     999901    1    3    3    0    0  0.47105858899E-01 -0.43936948239E-01  0.12883812057E+00  0.89171109597E+00  0.88000000000E+00 0. -1.
        -11    1    4    4    0    0 -0.12761312292E-01  0.24570310635E-01 -0.83290450204E-01  0.87773068035E-01  0.51100000000E-03 0.  1.
         11    1    4    4    0    0 -0.34923401947E-01  0.18278258007E-01 -0.31814100240E-01  0.50657050984E-01  0.51100000000E-03 0. -1.
</event>
<event>
 8    1  0.2922807E+004  0.1043930E+01  0.7957747E-01            NaN
         13   -1    0    0    0    0  0.00000000000E+00  0.00000000000E+00  0.74505805969E-08  0.10566000000E+00  0.10566000000E+00 0. -1.
     999900   -1    0    0    0    0 -0.00000000000E+00 -0.00000000000E+00 -0.74505805969E-08  0.93827000000E+00  0.93827000000E+00 0.  1.
     999902    2    1    2    0    0  0.14224280461E-01  0.14296965466E-02 -0.16590532619E-02  0.10295381049E+01  0.10294375080E+01 0.  0.
     999903    2    3    3    0    0 -0.19382730901E-01 -0.93046215796E-01  0.91084341719E-01  0.13900092626E+00  0.44627476558E-01 0.  0.
         14    1    1    2    0    0 -0.14224280461E-01 -0.14296965466E-02  0.16590532619E-02  0.14391895100E-01  0.00000000000E+00 0. -1.
     999901    1    3    3    0    0  0.33607011362E-01  0.94475912343E-01 -0.92743394981E-01  0.89053717864E+00  0.88000000000E+00 0.  1.
        -11    1    4    4    0    0 -0.12480893975E-01 -0.27834352631E-01  0.58035100762E-01  0.65565676557E-01  0.51100000000E-03 0. -1.
         11    1    4    4    0    0 -0.69018369269E-02 -0.65211863165E-01  0.33049240956E-01  0.73435249705E-01  0.51100000000E-03 0.  1.
</event>
<event>
 8    1  0.2922807E+004  0.1043930E+01  0.7957747E-01            NaN
         13   -1    0    0    0    0  0.00000000000E+00  0.00000000000E+00  0.74505805969E-08  0.10566000000E+00  0.10566000000E+00 0.  1.
     999900   -1    0    0    0    0 -0.00000000000E+00 -0.00000000000E+00 -0.74505805969E-08  0.93827000000E+00  0.93827000000E+00 0.  1.
     999902    2    1    2    0    0  0.32148597702E-02 -0.11284815173E-01  0.10132294464E-01  0.10284269110E+01  0.10283100532E+01 0.  0.
     999903    2    3    3    0    0  0.57033031421E-01  0.11678308358E+00  0.53374886021E-02  0.13751683000E+00  0.44624370753E-01 0.  0.
         14    1    1    2    0    0 -0.32148597702E-02  0.11284815173E-01 -0.10132294464E-01  0.15503088981E-01  0.00000000000E+00 0. -1.
     999901    1    3    3    0    0 -0.53818171651E-01 -0.12806789876E+00  0.47948058623E-02  0.89091008102E+00  0.88000000000E+00 0.  1.
        -11    1    4    4    0    0  0.17038659986E-01  0.76863888692E-01  0.15110143960E-01  0.80168266106E-01  0.51100000000E-03 0.  1.
         11    1    4    4    0    0  0.39994371435E-01  0.39919194892E-01 -0.97726553581E-02  0.57348563897E-01  0.51100000000E-03 0. -1.
</event>
<event>
 8    1  0.2922807E+004  0.1043930E+01  0.7957747E-01            NaN
         13   -1    0    0    0    0  0.00000000000E+00  0.00000000000E+00  0.74505805969E-08  0.10566000000E+00  0.10566000000E+00 0.  1.
     999900   -1    0    0    0    0 -0.00000000000E+00 -0.00000000000E+00 -0.74505805969E-08  0.93827000000E+00  0.93827000000E+00 0.  1.
     999902    2    1    2    0    0 -0.11696550611E-01  0.15239159378E-01 -0.10464179454E-01  0.10220544354E+01  0.10218203015E+01 0.  0.
     999903    2    3    3    0    0 -0.52755575252E-01  0.11259955036E+00  0.27515050412E-01  0.13492011010E+00  0.44548273238E-01 0.  0.
         14    1    1    2    0    0  0.11696550611E-01 -0.15239159378E-01  0.10464179454E-01  0.21875564596E-01  0.00000000000E+00 0.  1.
     999901    1    3    3    0    0  0.41059024640E-01 -0.97360390981E-01 -0.37979229866E-01  0.88713432531E+00  0.88000000000E+00 0. -1.
        -11    1    4    4    0    0 -0.25323878189E-01  0.74530429965E-01 -0.32917539153E-02  0.78785662161E-01  0.51100000000E-03 0.  1.
         11    1    4    4    0    0 -0.27431697063E-01  0.38069120393E-01  0.30806804327E-01  0.56134447936E-01  0.51100000000E-03 0. -1.
</event>
<event>
 8    1  0.2922807E+004  0.1043930E+01  0.7957747E-01            NaN
         13   -1    0    0    0    0  0.00000000000E+00  0.00000000000E+00  0.74505805969E-08  0.10566000000E+00  0.10566000000E+00 0. -1.
     999900   -1    0    0    0    0 -0.00000000000E+00 -0.00000000000E+00 -0.74505805969E-08  0.93827000000E+00  0.93827000000E+00 0.  1.
     999902    2    1    2    0    0 -0.77651426495E-02  0.58046418701E-02  0.88798185266E-02  0.10307830428E+01  0.10306991990E+01 0.  0.
     999903    2    3    3    0    0 -0.78327960605E-01 -0.73995008651E-01  0.80248870465E-01  0.14149083146E+00  0.44376158678E-01 0.  0.
         14    1    1    2    0    0  0.77651426495E-02 -0.58046418701E-02 -0.88798185266E-02  0.13146957240E-01  0.00000000000E+00 0.  1.
     999901    1    3    3    0    0  0.70562817956E-01  0.79799650521E-01 -0.71369051938E-01  0.88929221130E+00  0.88000000000E+00 0.  1.
        -11    1    4    4    0    0 -0.51376726804E-01 -0.37317536817E-01  0.70609043835E-01  0.94963491950E-01  0.51100000000E-03 0. -1.
         11    1    4    4    0    0 -0.26951233802E-01 -0.36677471834E-01  0.96398266301E-02  0.46527339511E-01  0.51100000000E-03 0.  1.
</event>
<event>
 8    1  0.2922807E+004  0.1043930E+01  0.7957747E-01            NaN
         13   -1    0    0    0    0  0.00000000000E+00  0.00000000000E+00  0.74505805969E-08  0.10566000000E+00  0.10566000000E+00 0.  1.
     999900   -1    0    0    0    0 -0.00000000000E+00 -0.00000000000E+00 -0.74505805969E-08  0.93827000000E+00  0.93827000000E+00 0. -1.
     999902    2    1    2    0    0 -0.74593125339E-02  0.11739938801E-01  0.49497254286E-02  0.10291662847E+01  0.10290603842E+01 0.  0.
     999903    2    3    3    0    0  0.52031703635E-01 -0.99181865632E-01 -0.65788547967E-01  0.13740021058E+00  0.44792233359E-01 0.  0.
         14    1    1    2    0    0  0.74593125339E-02 -0.11739938801E-01 -0.49497254286E-02  0.14763715262E-01  0.00000000000E+00 0.  1.
     999901    1    3    3    0    0 -0.59491016168E-01  0.11092180443E+00  0.70738273396E-01  0.89176607416E+00  0.88000000000E+00 0.  1.
        -11    1    4    4    0    0  0.34288171518E-01 -0.35047206310E-01 -0.47774852900E-01  0.68459353392E-01  0.51100000000E-03 0. -1.
         11    1    4    4    0    0  0.17743532116E-01 -0.64134659322E-01 -0.18013695067E-01  0.68940857184E-01  0.51100000000E-03 0.  1.
</event>
<event>
 8    1  0.2922807E+004  0.1043930E+01  0.7957747E-01            NaN
         13   -1    0    0    0    0  0.00000000000E+00  0.00000000000E+00  0.74505805969E-08  0.10566000000E+00  0.10566000000E+00 0. -1.
     999900   -1    0    0    0    0 -0.00000000000E+00 -0.00000000000E+00 -0.74505805969E-08  0.93827000000E+00  0.93827000000E+00 0.  1.
     999902    2    1    2    0    0 -0.14912000433E-01 -0.25601516189E-02  0.13405582844E-01  0.10237153572E+01  0.10235157550E+01 0.  0.
     999903    2    3    3    0    0  0.79055376537E-01 -0.35528127515E-01  0.92762219903E-01  0.13455045052E+00  0.44575709651E-01 0.  0.
         14    1    1    2    0    0  0.14912000433E-01  0.25601516189E-02 -0.13405582844E-01  0.20214642827E-01  0.00000000000E+00 0.  1.
     999901    1    3    3    0    0 -0.93967376970E-01  0.32967975896E-01 -0.79356637059E-01  0.88916490665E+00  0.88000000000E+00 0.  1.
        -11    1    4    4    0    0  0.29256194693E-02 -0.18333254782E-01  0.11333263984E-01  0.21757101684E-01  0.51100000000E-03 0. -1.
         11    1    4    4    0    0  0.76129757068E-01 -0.17194872733E-01  0.81428955920E-01  0.11279334884E+00  0.51100000000E-03 0.  1.
</event>
<event>
 8    1  0.2922807E+004  0.1043930E+01  0.7957747E-01            NaN
         13   -1    0    0    0    0  0.00000000000E+00  0.00000000000E+00  0.74505805969E-08  0.10566000000E+00  0.10566000000E+00 0.  1.
     999900   -1    0    0    0    0 -0.00000000000E+00 -0.00000000000E+00 -0.74505805969E-08  0.93827000000E+00  0.93827000000E+00 0.  1.
     999902    2    1    2    0    0 -0.43010052305E-02 -0.11793402209E-01 -0.56180678613E-02  0.10301769760E+01  0.10300851694E+01 0.  0.
     999903    2    3    3    0    0  0.45624681735E-01  0.11806272939E+00  0.34075368042E-01  0.13836379045E+00  0.44305622041E-01 0.  0.
         14    1    1    2    0    0  0.43010052305E-02  0.11793402209E-01  0.56180678613E-02  0.13753023964E-01  0.00000000000E+00 0.  1.
     999901    1    3    3    0    0 -0.49925686966E-01 -0.12985613160E+00 -0.39693435904E-01  0.89181318559E+00  0.88000000000E+00 0. -1.
        -11    1    4    4    0    0  0.18380836935E-01  0.77569238987E-02  0.81337357419E-03  0.19973675985E-01  0.51100000000E-03 0.  1.
         11    1    4    4    0    0  0.27243844801E-01  0.11030580550E+00  0.33261994468E-01  0.11839011446E+00  0.51100000000E-03 0. -1.
</event>
<event>
 6    1  0.2922807E+004  0.1043930E+01  0.7957747E-01            NaN
         13   -1    0    0    0    0  0.00000000000E+00  0.00000000000E+00  0.74505805969E-08  0.10566000000E+00  0.10566000000E+00 0. -1.
     999900   -1    0    0    0    0 -0.00000000000E+00 -0.00000000000E+00 -0.74505805969E-08  0.93827000000E+00  0.93827000000E+00 0. -1.
         14    1    1    2    0    0  0.28021501356E-01  0.42715920236E-01 -0.13411456637E-01  0.52817814693E-01  0.00000000000E+00 0. -1.
     999901    1    1    2    0    0  0.15558010031E-01 -0.72149937890E-01 -0.75082522719E-01  0.88627594486E+00  0.88000000000E+00 0. -1.
        -11    1    1    2    0    0 -0.57180590003E-02 -0.28241160604E-02  0.11814030886E-01  0.13435188017E-01  0.51100000000E-03 0. -1.
         11    1    1    2    0    0 -0.37861452386E-01  0.32258133715E-01  0.76679948470E-01  0.91401052434E-01  0.51100000000E-03 0.  1.
</event>
<event>
 8    1  0.2922807E+004  0.1043930E+01  0.7957747E-01            NaN
         13   -1    0    0    0    0  0.00000000000E+00  0.00000000000E+00  0.74505805969E-08  0.10566000000E+00  0.10566000000E+00 0.  1.
     999900   -1    0    0    0    0 -0.00000000000E+00 -0.00000000000E+00 -0.74505805969E-08  0.93827000000E+00  0.93827000000E+00 0. -1.
     999902    2    1    2    0    0  0.75560635183E-02  0.10942700220E-01 -0.45777653278E-03  0.10306241237E+01  0.10305382274E+01 0.  0.
     999903    2    3    3    0    0  0.78660976341E-01  0.10803658180E+00 -0.17688239538E-01  0.14226607692E+00  0.45467687644E-01 0.  0.
         14    1    1    2    0    0 -0.75560635183E-02 -0.10942700220E-01  0.45777653278E-03  0.13305876271E-01  0.00000000000E+00 0. -1.
     999901    1    3    3    0    0 -0.71104912823E-01 -0.97093881579E-01  0.17230463005E-01  0.88835804680E+00  0.88000000000E+00 0. -1.
        -11    1    4    4    0    0  0.62088324947E-01  0.55063806922E-01  0.29619766046E-02  0.83042262456E-01  0.51100000000E-03 0.  1.
         11    1    4    4    0    0  0.16572651394E-01  0.52972774876E-01 -0.20650216142E-01  0.59223814467E-01  0.51100000000E-03 0. -1.
</event>
<event>
 8    1  0.2922807E+004  0.1043930E+01  0.7957747E-01            NaN
         13   -1    0    0    0    0  0.00000000000E+00  0.00000000000E+00  0.74505805969E-08  0.10566000000E+00  0.10566000000E+00 0.  1.
     999900   -1    0    0    0    0 -0.00000000000E+00 -0.00000000000E+00 -0.74505805969E-08  0.93827000000E+00  0.93827000000E+00 0. -1.
     999902    2    1    2    0    0  0.79376793874E-02 -0.18560100151E-02 -0.10845548651E-01  0.10303624854E+01  0.10302731550E+01 0.  0.
     999903    2    3    3    0    0  0.11000224415E+00  0.74021207921E-01  0.15902051633E-01  0.14081767949E+00  0.44689044181E-01 0.  0.
         14    1    1    2    0    0 -0.79376793874E-02  0.18560100151E-02  0.10845548651E-01  0.13567514613E-01  0.00000000000E+00 0.  1.
     999901    1    3    3    0    0 -0.10206456476E+00 -0.75877217936E-01 -0.26747600284E-01  0.88954480590E+00  0.88000000000E+00 0. -1.
        -11    1    4    4    0    0  0.90983608947E-01  0.51292958331E-01  0.29020674434E-01  0.10840408358E+00  0.51100000000E-03 0.  1.
         11    1    4    4    0    0  0.19018635204E-01  0.22728249590E-01 -0.13118622800E-01  0.32413595907E-01  0.51100000000E-03 0. -1.
</event>
<event>
 7    1  0.2922807E+004  0.1043930E+01  0.7957747E-01            NaN
         13   -1    0    0    0    0  0.00000000000E+00  0.00000000000E+00  0.74505805969E-08  0.10566000000E+00  0.10566000000E+00 0. -1.
     999900   -1    0    0    0    0 -0.00000000000E+00 -0.00000000000E+00 -0.74505805969E-08  0.93827000000E+00  0.93827000000E+00 0.  1.
     999903    2    1    2    0    0 -0.35535494372E-01  0.35091152984E-02  0.94702936505E-01  0.11129451400E+00  0.46289711753E-01 0.  0.
         14    1    1    2    0    0  0.22581282789E-01  0.22492034432E-01 -0.39041025881E-01  0.50398488541E-01  0.00000000000E+00 0.  1.
     999901    1    1    2    0    0  0.12954211583E-01 -0.26001149731E-01 -0.55661910624E-01  0.88223699746E+00  0.88000000000E+00 0.  1.
        -11    1    3    3    0    0 -0.17416221885E-01 -0.17981909182E-01  0.68224471662E-01  0.72674022161E-01  0.51100000000E-03 0.  1.
         11    1    3    3    0    0 -0.18119272487E-01  0.21491024481E-01  0.26478464843E-01  0.38620491842E-01  0.51100000000E-03 0. -1.
</event>
<event>
 8    1  0.2922807E+004  0.1043930E+01  0.7957747E-01            NaN
         13   -1    0    0    0    0  0.00000000000E+00  0.00000000000E+00  0.74505805969E-08  0.10566000000E+00  0.10566000000E+00 0. -1.
     999900   -1    0    0    0    0 -0.00000000000E+00 -0.00000000000E+00 -0.74505805969E-08  0.93827000000E+00  0.93827000000E+00 0.  1.
     999902    2    1    2    0    0 -0.58864126956E-02 -0.12435105714E-01  0.13699569592E-02  0.10301039922E+01  0.10300112020E+01 0.  0.
     999903    2    3    3    0    0 -0.12049520535E+00 -0.56313702196E-02 -0.57306536196E-01  0.14070846885E+00  0.44317347306E-01 0.  0.
         14    1    1    2    0    0  0.58864126956E-02  0.12435105714E-01 -0.13699569592E-02  0.13826007761E-01  0.00000000000E+00 0. -1.
     999901    1    3    3    0    0  0.11460879266E+00 -0.68037354945E-02  0.58676493155E-01  0.88939552339E+00  0.88000000000E+00 0. -1.
        -11    1    4    4    0    0 -0.42393396104E-01 -0.28249735382E-02  0.20954903564E-02  0.42542128644E-01  0.51100000000E-03 0.  1.
         11    1    4    4    0    0 -0.78101809249E-01 -0.28063966814E-02 -0.59402026552E-01  0.98166340208E-01  0.51100000000E-03 0. -1.
</event>
<event>
 8    1  0.2922807E+004  0.1043930E+01  0.7957747E-01            NaN
         13   -1    0    0    0    0  0.00000000000E+00  0.00000000000E+00  0.74505805969E-08  0.10566000000E+00  0.10566000000E+00 0.  1.
     999900   -1    0    0    0    0 -0.00000000000E+00 -0.00000000000E+00 -0.74505805969E-08  0.93827000000E+00  0.93827000000E+00 0. -1.
     999902    2    1    2    0    0  0.11041138369E-01  0.28205973349E-02  0.90941834881E-02  0.10293503334E+01  0.10292470754E+01 0.  0.
     999903    2    3    3    0    0 -0.10718254058E+00  0.66995531333E-01 -0.32085074850E-01  0.13817639314E+00  0.45681127058E-01 0.  0.
         14    1    1    2    0    0 -0.11041138369E-01 -0.28205973349E-02 -0.90941834881E-02  0.14579666633E-01  0.00000000000E+00 0. -1.
     999901    1    3    3    0    0  0.11822367895E+00 -0.64174933998E-01  0.41179258338E-01  0.89117394022E+00  0.88000000000E+00 0.  1.
        -11    1    4    4    0    0 -0.58811609996E-01  0.62403578879E-01 -0.22415188406E-01  0.88632465381E-01  0.51100000000E-03 0.  1.
         11    1    4    4    0    0 -0.48370930587E-01  0.45919524539E-02 -0.96698864444E-02  0.49543927762E-01  0.51100000000E-03 0. -1.
</event>
<event>
 8    1  0.2922807E+004  0.1043930E+01  0.7957747E-01            NaN
         13   -1    0    0    0    0  0.00000000000E+00  0.00000000000E+00  0.74505805969E-08  0.10566000000E+00  0.10566000000E+00 0. -1.
     999900   -1    0    0    0    0 -0.00000000000E+00 -0.00000000000E+00 -0.74505805969E-08  0.93827000000E+00  0.93827000000E+00 0. -1.
     999902    2    1    2    0    0 -0.27653712193E-02  0.43879737574E-02 -0.12159148586E-01  0.10307108288E+01  0.10306260555E+01 0.  0.
     999903    2    3    3    0    0 -0.42366461901E-01 -0.29409314552E-01  0.12128875202E+00  0.13912861432E+00  0.44564392514E-01 0.  0.
         14    1    1    2    0    0  0.27653712193E-02 -0.43879737574E-02  0.12159148586E-01  0.13219171154E-01  0.00000000000E+00 0. -1.
     999901    1    3    3    0    0  0.39601090682E-01  0.33797288309E-01 -0.13344790061E+00  0.89158221452E+00  0.88000000000E+00 0. -1.
        -11    1    4    4    0    0 -0.50329486089E-01 -0.20782405275E-01  0.11044098315E+00  0.12313584944E+00  0.51100000000E-03 0. -1.
         11    1    4    4    0    0  0.79630241881E-02 -0.86269092770E-02  0.10847768873E-01  0.15992764877E-01  0.51100000000E-03 0.  1.
</event>
<event>
 8    1  0.2922807E+004  0.1043930E+01  0.7957747E-01            NaN
         13   -1    0    0    0    0  0.00000000000E+00  0.00000000000E+00  0.74505805969E-08  0.10566000000E+00  0.10566000000E+00 0.  1.
     999900   -1    0    0    0    0 -0.00000000000E+00 -0.00000000000E+00 -0.74505805969E-08  0.93827000000E+00  0.93827000000E+00 0. -1.
     999902    2    1    2    0    0  0.13953251750E-01 -0.26654613815E-02 -0.62118791215E-02  0.10284256341E+01  0.10283087569E+01 0.  0.
     999903    2    3    3    0    0 -0.66170533840E-01 -0.12954097556E-01 -0.10596978313E+00  0.13911280027E+00  0.59803244647E-01 0.  0.
         14    1    1    2    0    0 -0.13953251750E-01  0.26654613815E-02  0.62118791215E-02  0.15504365869E-01  0.00000000000E+00 0. -1.
     999901    1    3    3    0    0  0.80123785590E-01  0.10288636175E-01  0.99757904012E-01  0.88931283386E+00  0.88000000000E+00 0.  1.
        -11    1    4    4    0    0 -0.19770931310E-01  0.13126857368E-02 -0.83133487577E-01  0.85463739366E-01  0.51100000000E-03 0.  1.
         11    1    4    4    0    0 -0.46399602530E-01 -0.14266783293E-01 -0.22836295557E-01  0.53649060907E-01  0.51100000000E-03 0. -1.
</event>
<event>
 8    1  0.2922807E+004  0.1043930E+01  0.7957747E-01            NaN
         13   -1    0    0    0    0  0.00000000000E+00  0.00000000000E+00  0.74505805969E-08  0.10566000000E+00  0.10566000000E+00 0. -1.
     999900   -1    0    0    0    0 -0.00000000000E+00 -0.00000000000E+00 -0.74505805969E-08  0.93827000000E+00  0.93827000000E+00 0. -1.
     999902    2    1    2    0    0 -0.51549333208E-02  0.51908473532E-03 -0.12880813967E-01  0.10300462629E+01  0.10299526910E+01 0.  0.
     999903    2    3    3    0    0 -0.10343458323E+00 -0.75134655251E-01 -0.37864409659E-01  0.14099814387E+00  0.45856663946E-01 0.  0.
         14    1    1    2    0    0  0.51549333208E-02 -0.51908473532E-03  0.12880813967E-01  0.13883737068E-01  0.00000000000E+00 0. -1.
     999901    1    3    3    0    0  0.98279649906E-01  0.75653739986E-01  0.24983595691E-01  0.88904811907E+00  0.88000000000E+00 0.  1.
        -11    1    4    4    0    0 -0.55530384330E-01 -0.52763857513E-01 -0.11186703568E-02  0.76610448294E-01  0.51100000000E-03 0. -1.
         11    1    4    4    0    0 -0.47904198897E-01 -0.22370797738E-01 -0.36745739302E-01  0.64387695573E-01  0.51100000000E-03 0.  1.
</event>
<event>
 8    1  0.2922807E+004  0.1043930E+01  0.7957747E-01            NaN
         13   -1    0    0    0    0  0.00000000000E+00  0.00000000000E+00  0.74505805969E-08  0.10566000000E+00  0.10566000000E+00 0.  1.
     999900   -1    0    0    0    0 -0.00000000000E+00 -0.00000000000E+00 -0.74505805969E-08  0.93827000000E+00  0.93827000000E+00 0. -1.
     999902    2    1    2    0    0 -0.10505159156E-01 -0.71370054189E-02 -0.12237194367E-01  0.10262935564E+01  0.10261420076E+01 0.  0.
     999903    2    3    3    0    0  0.75171236656E-01 -0.45154969733E-01 -0.95493780403E-01  0.13740803540E+00  0.45521643034E-01 0.  0.
         14    1    1    2    0    0  0.10505159156E-01  0.71370054189E-02  0.12237194367E-01  0.17636443554E-01  0.00000000000E+00 0.  1.
     999901    1    3    3    0    0 -0.85676395812E-01  0.38017964314E-01  0.83256586036E-01  0.88888552105E+00  0.88000000000E+00 0.  1.
        -11    1    4    4    0    0  0.67252730182E-01 -0.26159176406E-01 -0.50949057276E-01  0.88336288045E-01  0.51100000000E-03 0. -1.
         11    1    4    4    0    0  0.79185064737E-02 -0.18995793327E-01 -0.44544723127E-01  0.49071747354E-01  0.51100000000E-03 0.  1.
</event>
<event>
 8    1  0.2922807E+004  0.1043930E+01  0.7957747E-01            NaN
         13   -1    0    0    0    0  0.00000000000E+00  0.00000000000E+00  0.74505805969E-08  0.10566000000E+00  0.10566000000E+00 0. -1.
     999900   -1    0    0    0    0 -0.00000000000E+00 -0.00000000000E+00 -0.74505805969E-08  0.93827000000E+00  0.93827000000E+00 0.  1.
     999902    2    1    2    0    0  0.12953233912E-01  0.22420051075E-02 -0.35271626017E-02  0.10303192053E+01  0.10302293003E+01 0.  0.
     999903    2    3    3    0    0  0.45482446233E-01 -0.28984732329E-01  0.12153064977E+00  0.14033453398E+00  0.44892259591E-01 0.  0.
         14    1    1    2    0    0 -0.12953233912E-01 -0.22420051075E-02  0.35271626017E-02  0.13610794676E-01  0.00000000000E+00 0. -1.
     999901    1    3    3    0    0 -0.32529212321E-01  0.31226737436E-01 -0.12505781237E+00  0.88998467134E+00  0.88000000000E+00 0.  1.
        -11    1    4    4    0    0  0.18966368369E-01 -0.37599074898E-01  0.77863277703E-01  0.88523243829E-01  0.51100000000E-03 0.  1.
         11    1    4    4    0    0  0.26516077865E-01  0.86143425696E-02  0.43667372068E-01  0.51811290155E-01  0.51100000000E-03 0. -1.
</event>
<event>
 8    1  0.2922807E+004  0.1043930E+01  0.7957747E-01            NaN
         13   -1    0    0    0    0  0.00000000000E+00  0.00000000000E+00  0.74505805969E-08  0.10566000000E+00  0.10566000000E+00 0.  1.
     999900   -1    0    0    0    0 -0.00000000000E+00 -0.00000000000E+00 -0.74505805969E-08  0.93827000000E+00  0.93827000000E+00 0.  1.
     999902    2    1    2    0    0 -0.33294045194E-02 -0.49506823734E-02 -0.17251466032E-01  0.10256760341E+01  0.10255135882E+01 0.  0.
     999903    2    3    3    0    0  0.43709913076E-01  0.11851349412E+00 -0.24436562658E-01  0.13578405983E+00  0.43406917881E-01 0.  0.
         14    1    1    2    0    0  0.33294045194E-02  0.49506823734E-02  0.17251466032E-01  0.18253965889E-01  0.00000000000E+00 0.  1.
     999901    1    3    3    0    0 -0.47039317596E-01 -0.12346417649E+00  0.71850966255E-02  0.88989197428E+00  0.88000000000E+00 0.  1.
        -11    1    4    4    0    0  0.38909275883E-01  0.88925249577E-01  0.64077119404E-04  0.97066456559E-01  0.51100000000E-03 0.  1.
         11    1    4    4    0    0  0.48006371938E-02  0.29588244541E-01 -0.24500639777E-01  0.38717603270E-01  0.51100000000E-03 0. -1.
</event>
<event>
 8    1  0.2922807E+004  0.1043930E+01  0.7957747E-01            NaN
         13   -1    0    0    0    0  0.00000000000E+00  0.00000000000E+00  0.74505805969E-08  0.10566000000E+00  0.10566000000E+00 0.  1.
     999900   -1    0    0    0    0 -0.00000000000E+00 -0.00000000000E+00 -0.74505805969E-08  0.93827000000E+00  0.93827000000E+00 0.  1.
     999902    2    1    2    0    0 -0.92321512825E-02 -0.11291094449E-01  0.11916972231E-02  0.10292964231E+01  0.10291923945E+01 0.  0.
     999903    2    3    3    0    0 -0.76898245590E-01  0.10813375252E+00 -0.12903369212E-01  0.13854412009E+00  0.37705804125E-01 0.  0.
         14    1    1    2    0    0  0.92321512825E-02  0.11291094449E-01 -0.11916972231E-02  0.14633576918E-01  0.00000000000E+00 0. -1.
     999901    1    3    3    0    0  0.67666094307E-01 -0.11942484697E+00  0.14095066435E-01  0.89075230299E+00  0.88000000000E+00 0. -1.
        -11    1    4    4    0    0 -0.45669932417E-01  0.32479403111E-01 -0.70835130597E-02  0.56489748022E-01  0.51100000000E-03 0.  1.
         11    1    4    4    0    0 -0.31228313173E-01  0.75654349410E-01 -0.58198561519E-02  0.82054372065E-01  0.51100000000E-03 0. -1.
</event>
<event>
 8    1  0.2922807E+004  0.1043930E+01  0.7957747E-01            NaN
         13   -1    0    0    0    0  0.00000000000E+00  0.00000000000E+00  0.74505805969E-08  0.10566000000E+00  0.10566000000E+00 0. -1.
     999900   -1    0    0    0    0 -0.00000000000E+00 -0.00000000000E+00 -0.74505805969E-08  0.93827000000E+00  0.93827000000E+00 0.  1.
     999902    2    1    2    0    0  0.10980397576E-02  0.13003513383E-01  0.22279112906E-02  0.10306913958E+01  0.10306063714E+01 0.  0.
     999903    2    3    3    0    0  0.13157567483E+00  0.18427956302E-01 -0.43796623689E-02  0.14102994457E+00  0.47101125711E-01 0.  0.
         14    1    1    2    0    0 -0.10980397576E-02 -0.13003513383E-01 -0.22279112906E-02  0.13238604169E-01  0.00000000000E+00 0.  1.
     999901    1    3    3    0    0 -0.13047763507E+00 -0.54244429183E-02  0.66075736594E-02  0.88966145126E+00  0.88000000000E+00 0. -1.
        -11    1    4    4    0    0  0.36640941152E-02  0.95295558350E-02  0.68686882618E-02  0.12315763051E-01  0.51100000000E-03 0.  1.
         11    1    4    4    0    0  0.12791158071E+00  0.88984004667E-02 -0.11248350631E-01  0.12871418152E+00  0.51100000000E-03 0. -1.
</event>
<event>
 8    1  0.2922807E+004  0.1043930E+01  0.7957747E-01            NaN
         13   -1    0    0    0    0  0.00000000000E+00  0.00000000000E+00  0.74505805969E-08  0.10566000000E+00  0.10566000000E+00 0. -1.
     999900   -1    0    0    0    0 -0.00000000000E+00 -0.00000000000E+00 -0.74505805969E-08  0.93827000000E+00  0.93827000000E+00 0. -1.
     999902    2    1    2    0    0  0.55986973987E-02 -0.93702353851E-02 -0.11138465398E-01  0.10283347400E+01  0.10282164778E+01 0.  0.
     999903    2    3    3    0    0 -0.66011206574E-01 -0.11194420262E+00  0.19557108670E-01  0.13895764596E+00  0.45141588112E-01 0.  0.
         14    1    1    2    0    0 -0.55986973987E-02  0.93702353851E-02  0.11138465398E-01  0.15595260022E-01  0.00000000000E+00 0. -1.
     999901    1    3    3    0    0  0.71609903972E-01  0.10257396723E+00 -0.30695574069E-01  0.88937709402E+00  0.88000000000E+00 0.  1.
        -11    1    4    4    0    0 -0.38843970146E-01 -0.80448019627E-01 -0.69926810256E-02  0.89609690255E-01  0.51100000000E-03 0. -1.
         11    1    4    4    0    0 -0.27167236427E-01 -0.31496182991E-01  0.26549789696E-01  0.49347955702E-01  0.51100000000E-03 0.  1.
</event>
<event>
 8    1  0.2922807E+004  0.1043930E+01  0.7957747E-01            NaN
         13   -1    0    0    0    0  0.00000000000E+00  0.00000000000E+00  0.74505805969E-08  0.10566000000E+00  0.10566000000E+00 0.  1.
     999900   -1    0    0    0    0 -0.00000000000E+00 -0.00000000000E+00 -0.74505805969E-08  0.93827000000E+00  0.93827000000E+00 0.  1.
     999902    2    1    2    0    0 -0.64404646321E-02  0.11483872489E-01 -0.19806409445E-02  0.10306152769E+01  0.10305292656E+01 0.  0.
     999903    2    3    3    0    0 -0.12824933723E+00  0.44170151806E-02 -0.45889970990E-01  0.14111239824E+00  0.36598046104E-01 0.  0.
         14    1    1    2    0    0  0.64404646321E-02 -0.11483872489E-01  0.19806409445E-02  0.13314723076E-01  0.00000000000E+00 0.  1.
     999901    1    3    3    0    0  0.12180887259E+00  0.70668573086E-02  0.43909330045E-01  0.88950287868E+00  0.88000000000E+00 0.  1.
        -11    1    4    4    0    0 -0.53114730829E-01  0.14125616466E-01 -0.33436159841E-01  0.64334637464E-01  0.51100000000E-03 0. -1.
         11    1    4    4    0    0 -0.75134606397E-01 -0.97086012858E-02 -0.12453811148E-01  0.76777760781E-01  0.51100000000E-03 0.  1.
</event>
<event>
 8    1  0.2922807E+004  0.1043930E+01  0.7957747E-01            NaN
         13   -1    0    0    0    0  0.00000000000E+00  0.00000000000E+00  0.74505805969E-08  0.10566000000E+00  0.10566000000E+00 0.  1.
     999900   -1    0    0    0    0 -0.00000000000E+00 -0.00000000000E+00 -0.74505805969E-08  0.93827000000E+00  0.93827000000E+00 0. -1.
     999902    2    1    2    0    0 -0.59196539689E-02  0.11278816661E-01 -0.71934197109E-02  0.10293012852E+01  0.10291973263E+01 0.  0.
     999903    2    3    3    0    0  0.95286194132E-01  0.69583399078E-02  0.88986257650E-01  0.13828398993E+00  0.45563478065E-01 0.  0.
         14    1    1    2    0    0  0.59196539689E-02 -0.11278816661E-01  0.71934197109E-02  0.14628714759E-01  0.00000000000E+00 0.  1.
     999901    1    3    3    0    0 -0.10120584810E+00  0.43204767528E-02 -0.96179677361E-01  0.89101729531E+00  0.88000000000E+00 0. -1.
        -11    1    4    4    0    0  0.79162052032E-01  0.91682475339E-02  0.45314038697E-01  0.91675026418E-01  0.51100000000E-03 0. -1.
         11    1    4    4    0    0  0.16124142100E-01 -0.22099076261E-02  0.43672218953E-01  0.46608963510E-01  0.51100000000E-03 0.  1.
</event>
<event>
 8    1  0.2922807E+004  0.1043930E+01  0.7957747E-01            NaN
         13   -1    0    0    0    0  0.00000000000E+00  0.00000000000E+00  0.74505805969E-08  0.10566000000E+00  0.10566000000E+00 0.  1.
     999900   -1    0    0    0    0 -0.00000000000E+00 -0.00000000000E+00 -0.74505805969E-08  0.93827000000E+00  0.93827000000E+00 0.  1.
     999902    2    1    2    0    0  0.16274783307E-02 -0.13695907037E-01  0.35429824178E-03  0.10301331858E+01  0.10300407897E+01 0.  0.
     999903    2    3    3    0    0  0.18308420715E-02 -0.13307550394E+00 -0.32664115003E-01  0.14145903564E+00  0.35089494519E-01 0.  0.
         14    1    1    2    0    0 -0.16274783307E-02  0.13695907037E-01 -0.35429824178E-03  0.13796814217E-01  0.00000000000E+00 0.  1.
     999901    1    3    3    0    0 -0.20336374078E-03  0.11937959690E+00  0.33018413244E-01  0.88867415014E+00  0.88000000000E+00 0.  1.
        -11    1    4    4    0    0 -0.15172046221E-01 -0.44294524543E-01 -0.59614322175E-02  0.47201649188E-01  0.51100000000E-03 0. -1.
         11    1    4    4    0    0  0.17002888293E-01 -0.88780979394E-01 -0.26702682785E-01  0.94257386456E-01  0.51100000000E-03 0.  1.
</event>
<event>
 8    1  0.2922807E+004  0.1043930E+01  0.7957747E-01            NaN
         13   -1    0    0    0    0  0.00000000000E+00  0.00000000000E+00  0.74505805969E-08  0.10566000000E+00  0.10566000000E+00 0.  1.
     999900   -1    0    0    0    0 -0.00000000000E+00 -0.00000000000E+00 -0.74505805969E-08  0.93827000000E+00  0.93827000000E+00 0.  1.
     999902    2    1    2    0    0 -0.13286958379E-02 -0.82695600645E-02 -0.84226762965E-02  0.10320517622E+01  0.10319834046E+01 0.  0.
     999903    2    3    3    0    0  0.55364524446E-01 -0.10524726643E+00  0.62250989661E-01  0.14210032322E+00  0.46637951134E-01 0.  0.
         14    1    1    2    0    0  0.13286958379E-02  0.82695600645E-02  0.84226762965E-02  0.11878237760E-01  0.00000000000E+00 0.  1.
     999901    1    3    3    0    0 -0.56693220283E-01  0.96977706369E-01 -0.70673665957E-01  0.88995143902E+00  0.88000000000E+00 0. -1.
        -11    1    4    4    0    0  0.32786852051E-01 -0.54684580380E-01  0.58604888809E-01  0.86603551382E-01  0.51100000000E-03 0. -1.
         11    1    4    4    0    0  0.22577672395E-01 -0.50562686053E-01  0.36461008518E-02  0.55496771835E-01  0.51100000000E-03 0.  1.
</event>
<event>
 8    1  0.2922807E+004  0.1043930E+01  0.7957747E-01            NaN
         13   -1    0    0    0    0  0.00000000000E+00  0.00000000000E+00  0.74505805969E-08  0.10566000000E+00  0.10566000000E+00 0.  1.
     999900   -1    0    0    0    0 -0.00000000000E+00 -0.00000000000E+00 -0.74505805969E-08  0.93827000000E+00  0.93827000000E+00 0.  1.
     999902    2    1    2    0    0 -0.11197055981E-01 -0.78446578421E-02  0.14156645431E-02  0.10301852983E+01  0.10300936035E+01 0.  0.
     999903    2    3    3    0    0  0.11477517261E+00 -0.50283728162E-01 -0.40664993174E-01  0.13920782448E+00  0.44982031523E-01 0.  0.
         14    1    1    2    0    0  0.11197055981E-01  0.78446578421E-02 -0.14156645431E-02  0.13744701721E-01  0.00000000000E+00 0. -1.
     999901    1    3    3    0    0 -0.12597222859E+00  0.42439070320E-01  0.42080657717E-01  0.89097747380E+00  0.88000000000E+00 0.  1.
        -11    1    4    4    0    0  0.54135359089E-01 -0.47160440226E-01 -0.15355704641E-01  0.73422088040E-01  0.51100000000E-03 0.  1.
         11    1    4    4    0    0  0.60639813524E-01 -0.31232879355E-02 -0.25309288533E-01  0.65785736439E-01  0.51100000000E-03 0. -1.
</event>
<event>
 8    1  0.2922807E+004  0.1043930E+01  0.7957747E-01            NaN
         13   -1    0    0    0    0  0.00000000000E+00  0.00000000000E+00  0.74505805969E-08  0.10566000000E+00  0.10566000000E+00 0. -1.
     999900   -1    0    0    0    0 -0.00000000000E+00 -0.00000000000E+00 -0.74505805969E-08  0.93827000000E+00  0.93827000000E+00 0. -1.
     999902    2    1    2    0    0 -0.11002121541E-02 -0.49221022993E-03 -0.12459520878E-01  0.10314123166E+01  0.10313363537E+01 0.  0.
     999903    2    3    3    0    0 -0.97266746477E-01  0.12543137063E-01  0.89567543258E-01  0.14021792453E+00  0.44950765256E-01 0.  0.
         14    1    1    2    0    0  0.11002121541E-02  0.49221022993E-03  0.12459520878E-01  0.12517683420E-01  0.00000000000E+00 0. -1.
     999901    1    3    3    0    0  0.96166534323E-01 -0.13035347293E-01 -0.10202706414E+00  0.89119439205E+00  0.88000000000E+00 0. -1.
        -11    1    4    4    0    0 -0.47889960677E-01 -0.16422810280E-01  0.42676946424E-01  0.66217368629E-01  0.51100000000E-03 0. -1.
         11    1    4    4    0    0 -0.49376785800E-01  0.28965947343E-01  0.46890596833E-01  0.74000555902E-01  0.51100000000E-03 0.  1.
</event>
<event>
 7    1  0.2922807E+004  0.1043930E+01  0.7957747E-01            NaN
         13   -1    0    0    0    0  0.00000000000E+00  0.00000000000E+00  0.74505805969E-08  0.10566000000E+00  0.10566000000E+00 0. -1.
     999900   -1    0    0    0    0 -0.00000000000E+00 -0.00000000000E+00 -0.74505805969E-08  0.93827000000E+00  0.93827000000E+00 0. -1.
     999902    2    1    2    0    0  0.82246479227E-02 -0.61530166567E-02 -0.93232313543E-02  0.10300581908E+01  0.10299647806E+01 0.  0.
         14    1    1    2    0    0 -0.82246479227E-02  0.61530166567E-02  0.93232313543E-02  0.13871809194E-01  0.00000000000E+00 0. -1.
     999901    1    3    3    0    0 -0.54132414957E-01 -0.96811863660E-01 -0.88476164923E-01  0.89136462071E+00  0.88000000000E+00 0. -1.
        -11    1    3    3    0    0  0.29983684665E-01  0.36360353263E-01  0.51140605811E-01  0.69546526292E-01  0.51100000000E-03 0.  1.
         11    1    3    3    0    0  0.32373378215E-01  0.54298493740E-01  0.28012327757E-01  0.69147043804E-01  0.51100000000E-03 0. -1.
</event>
<event>
 8    1  0.2922807E+004  0.1043930E+01  0.7957747E-01            NaN
         13   -1    0    0    0    0  0.00000000000E+00  0.00000000000E+00  0.74505805969E-08  0.10566000000E+00  0.10566000000E+00 0. -1.
     999900   -1    0    0    0    0 -0.00000000000E+00 -0.00000000000E+00 -0.74505805969E-08  0.93827000000E+00  0.93827000000E+00 0. -1.
     999902    2    1    2    0    0  0.74919742140E-02  0.49373376642E-02  0.14733947208E-01  0.10266790238E+01  0.10265340821E+01 0.  0.
     999903    2    3    3    0    0 -0.83290548849E-01 -0.77730294384E-01  0.61321993530E-01  0.13693420083E+00  0.44847232608E-01 0.  0.
         14    1    1    2    0    0 -0.74919742140E-02 -0.49373376642E-02 -0.14733947208E-01  0.17250976238E-01  0.00000000000E+00 0. -1.
     999901    1    3    3    0    0  0.90782523063E-01  0.82667632048E-01 -0.46588046323E-01  0.88974482294E+00  0.88000000000E+00 0. -1.
        -11    1    4    4    0    0 -0.13762172545E-01  0.38206580741E-02  0.13209948063E-01  0.19461723205E-01  0.51100000000E-03 0.  1.
         11    1    4    4    0    0 -0.69528376304E-01 -0.81550952458E-01  0.48112045467E-01  0.11747247762E+00  0.51100000000E-03 0. -1.
</event>
<event>
 8    1  0.2922807E+004  0.1043930E+01  0.7957747E-01            NaN
         13   -1    0    0    0    0  0.00000000000E+00  0.00000000000E+00  0.74505805969E-08  0.10566000000E+00  0.10566000000E+00 0.  1.
     999900   -1    0    0    0    0 -0.00000000000E+00 -0.00000000000E+00 -0.74505805969E-08  0.93827000000E+00  0.93827000000E+00 0. -1.
     999902    2    1    2    0    0  0.11625859343E-01  0.53964284320E-02  0.46108078745E-02  0.10303086346E+01  0.10302185889E+01 0.  0.
     999903    2    3    3    0    0 -0.74031325272E-01 -0.92883277504E-01 -0.56049602014E-01  0.13863843820E+00  0.44397278059E-01 0.  0.
         14    1    1    2    0    0 -0.11625859343E-01 -0.53964284320E-02 -0.46108078745E-02  0.13621365370E-01  0.00000000000E+00 0.  1.
     999901    1    3    3    0    0  0.85657184615E-01  0.98279705936E-01  0.60660409889E-01  0.89167019643E+00  0.88000000000E+00 0. -1.
        -11    1    4    4    0    0 -0.22452608422E-01 -0.40171013164E-02 -0.30321695884E-02  0.23015470913E-01  0.51100000000E-03 0. -1.
         11    1    4    4    0    0 -0.51578716850E-01 -0.88866176187E-01 -0.53017432426E-01  0.11562296729E+00  0.51100000000E-03 0.  1.
</event>
<event>
 8    1  0.2922807E+004  0.1043930E+01  0.7957747E-01            NaN
         13   -1    0    0    0    0  0.00000000000E+00  0.00000000000E+00  0.74505805969E-08  0.10566000000E+00  0.10566000000E+00 0.  1.
     999900   -1    0    0    0    0 -0.00000000000E+00 -0.00000000000E+00 -0.74505805969E-08  0.93827000000E+00  0.93827000000E+00 0. -1.
     999902    2    1    2    0    0 -0.15803406491E-02 -0.13346071953E-01 -0.38523603660E-02  0.10299494495E+01  0.10298545590E+01 0.  0.
     999903    2    3    3    0    0 -0.88354590145E-01 -0.95757122648E-01 -0.31438905163E-01  0.14142124557E+00  0.45117666185E-01 0.  0.
         14    1    1    2    0    0  0.15803406491E-02  0.13346071953E-01  0.38523603660E-02  0.13980550545E-01  0.00000000000E+00 0. -1.
     999901    1    3    3    0    0  0.86774249496E-01  0.82411050695E-01  0.27586544797E-01  0.88852820389E+00  0.88000000000E+00 0.  1.
        -11    1    4    4    0    0 -0.28514127029E-01 -0.42258306906E-01 -0.33711520953E-01  0.61119127192E-01  0.51100000000E-03 0. -1.
         11    1    4    4    0    0 -0.59840463116E-01 -0.53498815743E-01  0.22726157894E-02  0.80302118374E-01  0.51100000000E-03 0.  1.
</event>
<event>
 8    1  0.2922807E+004  0.1043930E+01  0.7957747E-01            NaN
         13   -1    0    0    0    0  0.00000000000E+00  0.00000000000E+00  0.74505805969E-08  0.10566000000E+00  0.10566000000E+00 0.  1.
     999900   -1    0    0    0    0 -0.00000000000E+00 -0.00000000000E+00 -0.74505805969E-08  0.93827000000E+00  0.93827000000E+00 0. -1.
     999902    2    1    2    0    0 -0.96100421076E-02  0.11071463100E-01  0.12771513408E-01  0.10244867040E+01  0.10243021844E+01 0.  0.
     999903    2    3    3    0    0  0.51823300282E-02 -0.86174176560E-02 -0.12498407807E+00  0.13342942791E+00  0.45621004265E-01 0.  0.
         14    1    1    2    0    0  0.96100421076E-02 -0.11071463100E-01 -0.12771513408E-01  0.19443295997E-01  0.00000000000E+00 0. -1.
     999901    1    3    3    0    0 -0.14792372136E-01  0.19688880756E-01  0.13775559147E+00  0.89105727609E+00  0.88000000000E+00 0.  1.
        -11    1    4    4    0    0 -0.12346673172E-01 -0.55595632591E-02 -0.94213017453E-02  0.16503670186E-01  0.51100000000E-03 0. -1.
         11    1    4    4    0    0  0.17529003200E-01 -0.30578543969E-02 -0.11556277632E+00  0.11692575772E+00  0.51100000000E-03 0.  1.
</event>
<event>
 8    1  0.2922807E+004  0.1043930E+01  0.7957747E-01            NaN
         13   -1    0    0    0    0  0.00000000000E+00  0.00000000000E+00  0.74505805969E-08  0.10566000000E+00  0.10566000000E+00 0. -1.
     999900   -1    0    0    0    0 -0.00000000000E+00 -0.00000000000E+00 -0.74505805969E-08  0.93827000000E+00  0.93827000000E+00 0.  1.
     999902    2    1    2    0    0  0.88508537877E-02  0.54838764587E-02 -0.11809278404E-01  0.10281861259E+01  0.10280655816E+01 0.  0.
     999903    2    3    3    0    0 -0.73281668563E-01 -0.86183810697E-01  0.61984372787E-01  0.13656164274E+00  0.44823739521E-01 0.  0.
         14    1    1    2    0    0 -0.88508537877E-02 -0.54838764587E-02  0.11809278404E-01  0.15743874053E-01  0.00000000000E+00 0. -1.
     999901    1    3    3    0    0  0.82132522351E-01  0.91667687156E-01 -0.73793651191E-01  0.89162448321E+00  0.88000000000E+00 0.  1.
        -11    1    4    4    0    0 -0.52273172133E-01 -0.28640525565E-01  0.38469176187E-01  0.70942955020E-01  0.51100000000E-03 0. -1.
         11    1    4    4    0    0 -0.21008496430E-01 -0.57543285132E-01  0.23515196600E-01  0.65618687721E-01  0.51100000000E-03 0.  1.
</event>
<event>
 8    1  0.2922807E+004  0.1043930E+01  0.7957747E-01            NaN
         13   -1    0    0    0    0  0.00000000000E+00  0.00000000000E+00  0.74505805969E-08  0.10566000000E+00  0.10566000000E+00 0. -1.
     999900   -1    0    0    0    0 -0.00000000000E+00 -0.00000000000E+00 -0.74505805969E-08  0.93827000000E+00  0.93827000000E+00 0.  1.
     999902    2    1    2    0    0 -0.42941092587E-02 -0.43241575651E-04 -0.11601096433E-01  0.10315596046E+01  0.10314854294E+01 0.  0.
     999903    2    3    3    0    0 -0.75370260680E-01 -0.94587661107E-01 -0.58578078276E-01  0.14240421694E+00  0.47117596700E-01 0.  0.
         14    1    1    2    0    0  0.42941092587E-02  0.43241575651E-04  0.11601096433E-01  0.12370395410E-01  0.00000000000E+00 0. -1.
     999901    1    3    3    0    0  0.71076151421E-01  0.94544419532E-01  0.46976981844E-01  0.88915538765E+00  0.88000000000E+00 0. -1.
        -11    1    4    4    0    0 -0.60079837402E-01 -0.38081823868E-01 -0.35221137379E-01  0.79376330292E-01  0.51100000000E-03 0. -1.
         11    1    4    4    0    0 -0.15290423278E-01 -0.56505837239E-01 -0.23356940898E-01  0.63027886647E-01  0.51100000000E-03 0.  1.
</event>
<event>
 8    1  0.2922807E+004  0.1043930E+01  0.7957747E-01            NaN
         13   -1    0    0    0    0  0.00000000000E+00  0.00000000000E+00  0.74505805969E-08  0.10566000000E+00  0.10566000000E+00 0. -1.
     999900   -1    0    0    0    0 -0.00000000000E+00 -0.00000000000E+00 -0.74505805969E-08  0.93827000000E+00  0.93827000000E+00 0.  1.
     999902    2    1    2    0    0 -0.70002014301E-02 -0.87659560775E-02 -0.81449545331E-02  0.10300669163E+01  0.10299736244E+01 0.  0.
     999903    2    3    3    0    0 -0.45344492255E-01  0.12262336770E+00  0.16574220414E-01  0.13914353200E+00  0.44649797649E-01 0.  0.
         14    1    1    2    0    0  0.70002014301E-02  0.87659560775E-02  0.81449545331E-02  0.13863083725E-01  0.00000000000E+00 0. -1.
     999901    1    3    3    0    0  0.38344290825E-01 -0.13138932378E+00 -0.24719174947E-01  0.89092338428E+00  0.88000000000E+00 0. -1.
        -11    1    4    4    0    0 -0.26152364378E-01  0.11322472294E+00  0.93611275722E-02  0.11658334305E+00  0.51100000000E-03 0. -1.
         11    1    4    4    0    0 -0.19192127878E-01  0.93986447627E-02  0.72130928418E-02  0.22560188944E-01  0.51100000000E-03 0.  1.
</event>
<event>
 8    1  0.2922807E+004  0.1043930E+01  0.7957747E-01            NaN
         13   -1    0    0    0    0  0.00000000000E+00  0.00000000000E+00  0.74505805969E-08  0.10566000000E+00  0.10566000000E+00 0.  1.
     999900   -1    0    0    0    0 -0.00000000000E+00 -0.00000000000E+00 -0.74505805969E-08  0.93827000000E+00  0.93827000000E+00 0.  1.
     999902    2    1    2    0    0  0.55733594955E-02 -0.11072188694E-01  0.59025716055E-02  0.10302006136E+01  0.10301091244E+01 0.  0.
     999903    2    3    3    0    0 -0.12800148877E+00 -0.23305407541E-01  0.24139919191E-01  0.13984984423E+00  0.45251741223E-01 0.  0.
         14    1    1    2    0    0 -0.55733594955E-02  0.11072188694E-01 -0.59025716055E-02  0.13729386370E-01  0.00000000000E+00 0.  1.
     999901    1    3    3    0    0  0.13357484826E+00  0.12233218847E-01 -0.18237347586E-01  0.89035076940E+00  0.88000000000E+00 0.  1.
        -11    1    4    4    0    0 -0.58799138861E-01 -0.12517417251E-01 -0.11584928889E-01  0.61224963567E-01  0.51100000000E-03 0. -1.
         11    1    4    4    0    0 -0.69202349907E-01 -0.10787990290E-01  0.35724848080E-01  0.78624880658E-01  0.51100000000E-03 0.  1.
</event>
<event>
 8    1  0.2922807E+004  0.1043930E+01  0.7957747E-01            NaN
         13   -1    0    0    0    0  0.00000000000E+00  0.00000000000E+00  0.74505805969E-08  0.10566000000E+00  0.10566000000E+00 0.  1.
     999900   -1    0    0    0    0 -0.00000000000E+00 -0.00000000000E+00 -0.74505805969E-08  0.93827000000E+00  0.93827000000E+00 0. -1.
     999902    2    1    2    0    0 -0.12282312095E-01  0.61485702424E-02  0.21702500523E-02  0.10300242425E+01  0.10299303715E+01 0.  0.
     999903    2    3    3    0    0 -0.10161640708E+00  0.52157419904E-01  0.72081704517E-01  0.14155082914E+00  0.42362418090E-01 0.  0.
         14    1    1    2    0    0  0.12282312095E-01 -0.61485702424E-02 -0.21702500523E-02  0.13905757502E-01  0.00000000000E+00 0. -1.
     999901    1    3    3    0    0  0.89334094983E-01 -0.46008849661E-01 -0.69911454465E-01  0.88847341336E+00  0.88000000000E+00 0. -1.
        -11    1    4    4    0    0 -0.52455200708E-01  0.10378090539E-01  0.15340525654E-01  0.55631337328E-01  0.51100000000E-03 0.  1.
         11    1    4    4    0    0 -0.49161206370E-01  0.41779329365E-01  0.56741178863E-01  0.85919491815E-01  0.51100000000E-03 0. -1.
</event>
<event>
 8    1  0.2922807E+004  0.1043930E+01  0.7957747E-01            NaN
         13   -1    0    0    0    0  0.00000000000E+00  0.00000000000E+00  0.74505805969E-08  0.10566000000E+00  0.10566000000E+00 0. -1.
     999900   -1    0    0    0    0 -0.00000000000E+00 -0.00000000000E+00 -0.74505805969E-08  0.93827000000E+00  0.93827000000E+00 0. -1.
     999902    2    1    2    0    0  0.29467272764E-02 -0.12971887199E-01  0.31816479221E-02  0.10302524292E+01  0.10301616339E+01 0.  0.
     999903    2    3    3    0    0 -0.16917045851E-01 -0.71656223542E-01  0.11230341479E+00  0.14135087065E+00  0.44127212081E-01 0.  0.
         14    1    1    2    0    0 -0.29467272764E-02  0.12971887199E-01 -0.31816479221E-02  0.13677570788E-01  0.00000000000E+00 0. -1.
     999901    1    3    3    0    0  0.19863773127E-01  0.58684336343E-01 -0.10912176687E+00  0.88890155857E+00  0.88000000000E+00 0. -1.
        -11    1    4    4    0    0 -0.22056460600E-02 -0.65514500741E-01  0.68867298825E-01  0.95078812836E-01  0.51100000000E-03 0.  1.
         11    1    4    4    0    0 -0.14711399791E-01 -0.61417228015E-02  0.43436115967E-01  0.46272057811E-01  0.51100000000E-03 0. -1.
</event>
<event>
 8    1  0.2922807E+004  0.1043930E+01  0.7957747E-01            NaN
         13   -1    0    0    0    0  0.00000000000E+00  0.00000000000E+00  0.74505805969E-08  0.10566000000E+00  0.10566000000E+00 0.  1.
     999900   -1    0    0    0    0 -0.00000000000E+00 -0.00000000000E+00 -0.74505805969E-08  0.93827000000E+00  0.93827000000E+00 0. -1.
     999902    2    1    2    0    0  0.15995720326E-02 -0.93747228786E-02  0.10416669378E-01  0.10298249987E+01  0.10297283996E+01 0.  0.
     999903    2    3    3    0    0 -0.11667194401E+00  0.29828447011E-01  0.55434146210E-01  0.13990836598E+00  0.44713840527E-01 0.  0.
         14    1    1    2    0    0 -0.15995720326E-02  0.93747228786E-02 -0.10416669378E-01  0.14105001264E-01  0.00000000000E+00 0. -1.
     999901    1    3    3    0    0  0.11827151604E+00 -0.39203169890E-01 -0.45017476832E-01  0.88991663276E+00  0.88000000000E+00 0. -1.
        -11    1    4    4    0    0 -0.68269284143E-01  0.18367635174E-01  0.55954116133E-01  0.90162017571E-01  0.51100000000E-03 0.  1.
         11    1    4    4    0    0 -0.48402659867E-01  0.11460811837E-01 -0.51996992339E-03  0.49746348408E-01  0.51100000000E-03 0. -1.
</event>
<event>
 8    1  0.2922807E+004  0.1043930E+01  0.7957747E-01            NaN
         13   -1    0    0    0    0  0.00000000000E+00  0.00000000000E+00  0.74505805969E-08  0.10566000000E+00  0.10566000000E+00 0.  1.
     999900   -1    0    0    0    0 -0.00000000000E+00 -0.00000000000E+00 -0.74505805969E-08  0.93827000000E+00  0.93827000000E+00 0. -1.
     999902    2    1    2    0    0  0.77147339592E-02 -0.49145031108E-02 -0.12203224179E-01  0.10286791593E+01  0.10285661013E+01 0.  0.
     999903    2    3    3    0    0  0.97394911861E-02  0.36490389699E-01 -0.12543487004E+00  0.14045628729E+00  0.50672041474E-01 0.  0.
         14    1    1    2    0    0 -0.77147339592E-02  0.49145031108E-02  0.12203224179E-01  0.15250840674E-01  0.00000000000E+00 0.  1.
     999901    1    3    3    0    0 -0.20247572268E-02 -0.41404892810E-01  0.11323164586E+00  0.88822287204E+00  0.88000000000E+00 0.  1.
        -11    1    4    4    0    0 -0.11765043745E-02 -0.12295021470E-01 -0.35050838879E-01  0.37166841978E-01  0.51100000000E-03 0.  1.
         11    1    4    4    0    0  0.10915995561E-01  0.48785411170E-01 -0.90384031161E-01  0.10328944531E+00  0.51100000000E-03 0. -1.
</event>
<event>
 8    1  0.2922807E+004  0.1043930E+01  0.7957747E-01            NaN
         13   -1    0    0    0    0  0.00000000000E+00  0.00000000000E+00  0.74505805969E-08  0.10566000000E+00  0.10566000000E+00 0. -1.
     999900   -1    0    0    0    0 -0.00000000000E+00 -0.00000000000E+00 -0.74505805969E-08  0.93827000000E+00  0.93827000000E+00 0. -1.
     999902    2    1    2    0    0 -0.52492031908E-02  0.80698679127E-02 -0.94169596018E-02  0.10304631507E+01  0.10303751496E+01 0.  0.
     999903    2    3    3    0    0  0.22982260107E-01  0.12986339871E+00 -0.23652980039E-01  0.14151245242E+00  0.45537063175E-01 0.  0.
         14    1    1    2    0    0  0.52492031908E-02 -0.80698679127E-02  0.94169596018E-02  0.13466849313E-01  0.00000000000E+00 0. -1.
     999901    1    3    3    0    0 -0.28231463297E-01 -0.12179353080E+00  0.14236020437E-01  0.88895069826E+00  0.88000000000E+00 0.  1.
        -11    1    4    4    0    0 -0.11548519174E-01  0.35171864010E-01  0.33254293334E-02  0.37171869933E-01  0.51100000000E-03 0.  1.
         11    1    4    4    0    0  0.34530779281E-01  0.94691534699E-01 -0.26978409373E-01  0.10434058249E+00  0.51100000000E-03 0. -1.
</event>
<event>
 8    1  0.2922807E+004  0.1043930E+01  0.7957747E-01            NaN
         13   -1    0    0    0    0  0.00000000000E+00  0.00000000000E+00  0.74505805969E-08  0.10566000000E+00  0.10566000000E+00 0.  1.
     999900   -1    0    0    0    0 -0.00000000000E+00 -0.00000000000E+00 -0.74505805969E-08  0.93827000000E+00  0.93827000000E+00 0.  1.
     999902    2    1    2    0    0  0.24092055197E-03 -0.70856836401E-02 -0.12054003089E-01  0.10299455820E+01  0.10298506387E+01 0.  0.
     999903    2    3    3    0    0  0.10327039216E+00 -0.15227601230E-01  0.80093788252E-01  0.13911867500E+00  0.45192223690E-01 0.  0.
         14    1    1    2    0    0 -0.24092055197E-03  0.70856836401E-02  0.12054003089E-01  0.13984417965E-01  0.00000000000E+00 0.  1.
     999901    1    3    3    0    0 -0.10302947161E+00  0.81419175903E-02 -0.92147791341E-01  0.89082690703E+00  0.88000000000E+00 0.  1.
        -11    1    4    4    0    0  0.13892464683E-01 -0.17198745988E-02  0.35825574251E-01  0.38466757532E-01  0.51100000000E-03 0.  1.
         11    1    4    4    0    0  0.89377927477E-01 -0.13507726632E-01  0.44268214001E-01  0.10065191747E+00  0.51100000000E-03 0. -1.
</event>
<event>
 8    1  0.2922807E+004  0.1043930E+01  0.7957747E-01            NaN
         13   -1    0    0    0    0  0.00000000000E+00  0.00000000000E+00  0.74505805969E-08  0.10566000000E+00  0.10566000000E+00 0. -1.
     999900   -1    0    0    0    0 -0.00000000000E+00 -0.00000000000E+00 -0.74505805969E-08  0.93827000000E+00  0.93827000000E+00 0. -1.
     999902    2    1    2    0    0  0.36820005903E-02 -0.27695748487E-02 -0.13179838912E-01  0.10299680579E+01  0.10298734216E+01 0.  0.
     999903    2    3    3    0    0 -0.93198486040E-01 -0.86792294543E-01 -0.37969553599E-01  0.14032758217E+00  0.45069758441E-01 0.  0.
         14    1    1    2    0    0 -0.36820005903E-02  0.27695748487E-02  0.13179838912E-01  0.13961942090E-01  0.00000000000E+00 0. -1.
     999901    1    3    3    0    0  0.96880486630E-01  0.84022719695E-01  0.24789714688E-01  0.88964047574E+00  0.88000000000E+00 0. -1.
        -11    1    4    4    0    0 -0.89180634280E-01 -0.63909358887E-01 -0.21394839981E-01  0.11178368388E+00  0.51100000000E-03 0. -1.
         11    1    4    4    0    0 -0.40178517598E-02 -0.22882935656E-01 -0.16574713618E-01  0.28543898289E-01  0.51100000000E-03 0.  1.
</event>
<event>
 8    1  0.2922807E+004  0.1043930E+01  0.7957747E-01            NaN
         13   -1    0    0    0    0  0.00000000000E+00  0.00000000000E+00  0.74505805969E-08  0.10566000000E+00  0.10566000000E+00 0. -1.
     999900   -1    0    0    0    0 -0.00000000000E+00 -0.00000000000E+00 -0.74505805969E-08  0.93827000000E+00  0.93827000000E+00 0.  1.
     999902    2    1    2    0    0 -0.13084285094E-01 -0.46812497736E-02  0.11465371152E-02  0.10299862859E+01  0.10298918982E+01 0.  0.
     999903    2    3    3    0    0 -0.95784186651E-02  0.12454814849E+00 -0.43504777077E-01  0.13942114603E+00  0.44063623720E-01 0.  0.
         14    1    1    2    0    0  0.13084285094E-01  0.46812497736E-02 -0.11465371152E-02  0.13943714112E-01  0.00000000000E+00 0. -1.
     999901    1    3    3    0    0 -0.35058664293E-02 -0.12922939826E+00  0.44651314193E-01  0.89056513986E+00  0.88000000000E+00 0. -1.
        -11    1    4    4    0    0  0.16630506554E-01  0.53297624686E-01 -0.11368346187E-01  0.56979917176E-01  0.51100000000E-03 0.  1.
         11    1    4    4    0    0 -0.26208925219E-01  0.71250523802E-01 -0.32136430891E-01  0.82441228852E-01  0.51100000000E-03 0. -1.
</event>
<event>
 8    1  0.2922807E+004  0.1043930E+01  0.7957747E-01            NaN
         13   -1    0    0    0    0  0.00000000000E+00  0.00000000000E+00  0.74505805969E-08  0.10566000000E+00  0.10566000000E+00 0.  1.
     999900   -1    0    0    0    0 -0.00000000000E+00 -0.00000000000E+00 -0.74505805969E-08  0.93827000000E+00  0.93827000000E+00 0.  1.
     999902    2    1    2    0    0 -0.31390019539E-02 -0.23987694386E-03 -0.13301773139E-01  0.10302607629E+01  0.10301700789E+01 0.  0.
     999903    2    3    3    0    0 -0.34084180967E-01  0.65568741766E-03 -0.13018885018E+00  0.14199222528E+00  0.45282380799E-01 0.  0.
         14    1    1    2    0    0  0.31390019539E-02  0.23987694386E-03  0.13301773139E-01  0.13669237099E-01  0.00000000000E+00 0.  1.
     999901    1    3    3    0    0  0.30945179013E-01 -0.89556436151E-03  0.11688707704E+00  0.88826853762E+00  0.88000000000E+00 0. -1.
        -11    1    4    4    0    0 -0.17267021697E-01  0.17657165058E-01 -0.10235123732E+00  0.10528989703E+00  0.51100000000E-03 0.  1.
         11    1    4    4    0    0 -0.16817159270E-01 -0.17001477641E-01 -0.27837612869E-01  0.36702328252E-01  0.51100000000E-03 0. -1.
</event>
<event>
 8    1  0.2922807E+004  0.1043930E+01  0.7957747E-01            NaN
         13   -1    0    0    0    0  0.00000000000E+00  0.00000000000E+00  0.74505805969E-08  0.10566000000E+00  0.10566000000E+00 0.  1.
     999900   -1    0    0    0    0 -0.00000000000E+00 -0.00000000000E+00 -0.74505805969E-08  0.93827000000E+00  0.93827000000E+00 0. -1.
     999902    2    1    2    0    0  0.13157754913E-01 -0.57895054476E-02 -0.23752563251E-02  0.10293599372E+01  0.10292568161E+01 0.  0.
     999903    2    3    3    0    0 -0.11783156731E+00  0.15443841464E-01  0.48197920641E-01  0.13797522575E+00  0.50905136026E-01 0.  0.
         14    1    1    2    0    0 -0.13157754913E-01  0.57895054476E-02  0.23752563251E-02  0.14570062810E-01  0.00000000000E+00 0.  1.
     999901    1    3    3    0    0  0.13098932222E+00 -0.21233346912E-01 -0.50573176966E-01  0.89138471144E+00  0.88000000000E+00 0. -1.
        -11    1    4    4    0    0 -0.86554365635E-01 -0.87307186897E-03  0.11931736853E-01  0.87378761323E-01  0.51100000000E-03 0. -1.
         11    1    4    4    0    0 -0.31277201672E-01  0.16316913333E-01  0.36266183788E-01  0.50596464429E-01  0.51100000000E-03 0.  1.
</event>
<event>
 8    1  0.2922807E+004  0.1043930E+01  0.7957747E-01            NaN
         13   -1    0    0    0    0  0.00000000000E+00  0.00000000000E+00  0.74505805969E-08  0.10566000000E+00  0.10566000000E+00 0.  1.
     999900   -1    0    0    0    0 -0.00000000000E+00 -0.00000000000E+00 -0.74505805969E-08  0.93827000000E+00  0.93827000000E+00 0.  1.
     999902    2    1    2    0    0  0.10359505819E-01  0.40336313449E-04  0.62367773074E-02  0.10318379208E+01  0.10317670650E+01 0.  0.
     999903    2    3    3    0    0 -0.10429576906E+00  0.59838020666E-01  0.57474746336E-01  0.14091316272E+00  0.45770916555E-01 0.  0.
         14    1    1    2    0    0 -0.10359505819E-01 -0.40336313449E-04 -0.62367773074E-02  0.12092079185E-01  0.00000000000E+00 0.  1.
     999901    1    3    3    0    0  0.11465527487E+00 -0.59797684352E-01 -0.51237969028E-01  0.89092475809E+00  0.88000000000E+00 0. -1.
        -11    1    4    4    0    0 -0.18915598349E-01  0.14466625611E-01  0.33833117649E-01  0.41376612818E-01  0.51100000000E-03 0.  1.
         11    1    4    4    0    0 -0.85380170707E-01  0.45371395055E-01  0.23641628687E-01  0.99536549905E-01  0.51100000000E-03 0. -1.
</event>
<event>
 8    1  0.2922807E+004  0.1043930E+01  0.7957747E-01            NaN
         13   -1    0    0    0    0  0.00000000000E+00  0.00000000000E+00  0.74505805969E-08  0.10566000000E+00  0.10566000000E+00 0. -1.
     999900   -1    0    0    0    0 -0.00000000000E+00 -0.00000000000E+00 -0.74505805969E-08  0.93827000000E+00  0.93827000000E+00 0. -1.
     999902    2    1    2    0    0 -0.96248621407E-02  0.83353087315E-02 -0.12576016823E-02  0.10311355909E+01  0.10310562108E+01 0.  0.
     999903    2    3    3    0    0  0.97860012784E-01 -0.52739018378E-02 -0.89063150744E-01  0.14015409646E+00  0.45896947506E-01 0.  0.
         14    1    1    2    0    0  0.96248621407E-02 -0.83353087315E-02  0.12576016823E-02  0.12794409125E-01  0.00000000000E+00 0. -1.
     999901    1    3    3    0    0 -0.10748487492E+00  0.13609210569E-01  0.87805549062E-01  0.89098149442E+00  0.88000000000E+00 0.  1.
        -11    1    4    4    0    0  0.83323972061E-01 -0.21197674083E-01 -0.64613528116E-01  0.10755182399E+00  0.51100000000E-03 0. -1.
         11    1    4    4    0    0  0.14536040723E-01  0.15923772246E-01 -0.24449622629E-01  0.32602272468E-01  0.51100000000E-03 0.  1.
</event>
<event>
 8    1  0.2922807E+004  0.1043930E+01  0.7957747E-01            NaN
         13   -1    0    0    0    0  0.00000000000E+00  0.00000000000E+00  0.74505805969E-08  0.10566000000E+00  0.10566000000E+00 0. -1.
     999900   -1    0    0    0    0 -0.00000000000E+00 -0.00000000000E+00 -0.74505805969E-08  0.93827000000E+00  0.93827000000E+00 0. -1.
     999902    2    1    2    0    0  0.50218256779E-02  0.11735675015E-01  0.27630109175E-02  0.10308694093E+01  0.10307866704E+01 0.  0.
     999903    2    3    3    0    0  0.11875115062E-01  0.13209751917E+00  0.25098042960E-01  0.14236910270E+00  0.45257891176E-01 0.  0.
         14    1    1    2    0    0 -0.50218256779E-02 -0.11735675015E-01 -0.27630109175E-02  0.13060590742E-01  0.00000000000E+00 0.  1.
     999901    1    3    3    0    0 -0.68532893844E-02 -0.12036184415E+00 -0.22335032042E-01  0.88850030656E+00  0.88000000000E+00 0. -1.
        -11    1    4    4    0    0 -0.15753764494E-01  0.48287586482E-01  0.65806463396E-03  0.50799274345E-01  0.51100000000E-03 0.  1.
         11    1    4    4    0    0  0.27628879556E-01  0.83809932688E-01  0.24439978326E-01  0.91569828351E-01  0.51100000000E-03 0. -1.
</event>
<event>
 8    1  0.2922807E+004  0.1043930E+01  0.7957747E-01            NaN
         13   -1    0    0    0    0  0.00000000000E+00  0.00000000000E+00  0.74505805969E-08  0.10566000000E+00  0.10566000000E+00 0.  1.
     999900   -1    0    0    0    0 -0.00000000000E+00 -0.00000000000E+00 -0.74505805969E-08  0.93827000000E+00  0.93827000000E+00 0.  1.
     999902    2    1    2    0    0  0.13646297644E-01  0.16329766308E-02  0.69524479694E-02  0.10285279032E+01  0.10284125744E+01 0.  0.
     999903    2    3    3    0    0  0.48792995323E-01  0.12269074944E+00 -0.68147481677E-02  0.13943858803E+00  0.44304657200E-01 0.  0.
         14    1    1    2    0    0 -0.13646297644E-01 -0.16329766308E-02 -0.69524479694E-02  0.15402096767E-01  0.00000000000E+00 0. -1.
     999901    1    3    3    0    0 -0.35146697679E-01 -0.12105777281E+00  0.13767196137E-01  0.88908931520E+00  0.88000000000E+00 0.  1.
        -11    1    4    4    0    0  0.83957931264E-02  0.69578159289E-01 -0.16517961689E-01  0.72004956577E-01  0.51100000000E-03 0. -1.
         11    1    4    4    0    0  0.40397202197E-01  0.53112590149E-01  0.97032135208E-02  0.67433631455E-01  0.51100000000E-03 0.  1.
</event>
<event>
 8    1  0.2922807E+004  0.1043930E+01  0.7957747E-01            NaN
         13   -1    0    0    0    0  0.00000000000E+00  0.00000000000E+00  0.74505805969E-08  0.10566000000E+00  0.10566000000E+00 0.  1.
     999900   -1    0    0    0    0 -0.00000000000E+00 -0.00000000000E+00 -0.74505805969E-08  0.93827000000E+00  0.93827000000E+00 0. -1.
     999902    2    1    2    0    0  0.55729047760E-02  0.12120061266E-01  0.29462859383E-02  0.10302686035E+01  0.10301780243E+01 0.  0.
     999903    2    3    3    0    0  0.46696298638E-01  0.29932965865E-01 -0.12089925385E+00  0.14046741741E+00  0.45143537968E-01 0.  0.
         14    1    1    2    0    0 -0.55729047760E-02 -0.12120061266E-01 -0.29462859383E-02  0.13661396472E-01  0.00000000000E+00 0. -1.
     999901    1    3    3    0    0 -0.41123393862E-01 -0.17812904599E-01  0.12384553979E+00  0.88980118612E+00  0.88000000000E+00 0.  1.
        -11    1    4    4    0    0  0.26172392498E-01 -0.87987110670E-02 -0.49610907386E-01  0.56779527104E-01  0.51100000000E-03 0.  1.
         11    1    4    4    0    0  0.20523906140E-01  0.38731676932E-01 -0.71288346464E-01  0.83687890305E-01  0.51100000000E-03 0. -1.
</event>
<event>
 8    1  0.2922807E+004  0.1043930E+01  0.7957747E-01            NaN
         13   -1    0    0    0    0  0.00000000000E+00  0.00000000000E+00  0.74505805969E-08  0.10566000000E+00  0.10566000000E+00 0.  1.
     999900   -1    0    0    0    0 -0.00000000000E+00 -0.00000000000E+00 -0.74505805969E-08  0.93827000000E+00  0.93827000000E+00 0. -1.
     999902    2    1    2    0    0 -0.87508890708E-02  0.69304589107E-02 -0.67026362051E-02  0.10309094527E+01  0.10308272236E+01 0.  0.
     999903    2    3    3    0    0 -0.80629754884E-01 -0.15367805549E-01  0.10518296883E+00  0.14063861044E+00  0.44479601986E-01 0.  0.
         14    1    1    2    0    0  0.87508890708E-02 -0.69304589107E-02  0.67026362051E-02  0.13020547313E-01  0.00000000000E+00 0.  1.
     999901    1    3    3    0    0  0.71878865813E-01  0.22298264460E-01 -0.11188560504E+00  0.89027084225E+00  0.88000000000E+00 0. -1.
        -11    1    4    4    0    0 -0.17414646438E-01  0.14721706621E-01  0.32646335698E-01  0.39825154261E-01  0.51100000000E-03 0. -1.
         11    1    4    4    0    0 -0.63215108445E-01 -0.30089512170E-01  0.72536633134E-01  0.10081345617E+00  0.51100000000E-03 0.  1.
</event>
<event>
 8    1  0.2922807E+004  0.1043930E+01  0.7957747E-01            NaN
         13   -1    0    0    0    0  0.00000000000E+00  0.00000000000E+00  0.74505805969E-08  0.10566000000E+00  0.10566000000E+00 0. -1.
     999900   -1    0    0    0    0 -0.00000000000E+00 -0.00000000000E+00 -0.74505805969E-08  0.93827000000E+00  0.93827000000E+00 0.  1.
     999902    2    1    2    0    0  0.12374080907E-01  0.42639956650E-02  0.47242695107E-02  0.10300153221E+01  0.10299213298E+01 0.  0.
     999903    2    3    3    0    0 -0.12711041479E+00 -0.29914090152E-01 -0.74953265611E-02  0.13829037318E+00  0.44901414861E-01 0.  0.
         14    1    1    2    0    0 -0.12374080907E-01 -0.42639956650E-02 -0.47242695107E-02  0.13914677853E-01  0.00000000000E+00 0. -1.
     999901    1    3    3    0    0  0.13948449569E+00  0.34178085817E-01  0.12219596072E-01  0.89172494897E+00  0.88000000000E+00 0.  1.
        -11    1    4    4    0    0 -0.92832379059E-01 -0.29939572787E-01  0.12913656177E-01  0.98393354741E-01  0.51100000000E-03 0.  1.
         11    1    4    4    0    0 -0.34278035726E-01  0.25482634543E-04 -0.20408982738E-01  0.39897018435E-01  0.51100000000E-03 0. -1.
</event>
<event>
 8    1  0.2922807E+004  0.1043930E+01  0.7957747E-01            NaN
         13   -1    0    0    0    0  0.00000000000E+00  0.00000000000E+00  0.74505805969E-08  0.10566000000E+00  0.10566000000E+00 0.  1.
     999900   -1    0    0    0    0 -0.00000000000E+00 -0.00000000000E+00 -0.74505805969E-08  0.93827000000E+00  0.93827000000E+00 0. -1.
     999902    2    1    2    0    0  0.88335409681E-02 -0.86661665411E-02 -0.67717044096E-02  0.10298236231E+01  0.10297270050E+01 0.  0.
     999903    2    3    3    0    0  0.87631888682E-01  0.94314485628E-01 -0.34426291362E-01  0.13989161980E+00  0.42543220846E-01 0.  0.
         14    1    1    2    0    0 -0.88335409681E-02  0.86661665411E-02  0.67717044096E-02  0.14106376897E-01  0.00000000000E+00 0.  1.
     999901    1    3    3    0    0 -0.78798347714E-01 -0.10298065217E+00  0.27654586952E-01  0.88993200330E+00  0.88000000000E+00 0.  1.
        -11    1    4    4    0    0  0.63866554946E-01  0.57096537333E-01 -0.41458854762E-01  0.95173784076E-01  0.51100000000E-03 0.  1.
         11    1    4    4    0    0  0.23765333736E-01  0.37217948295E-01  0.70325633996E-02  0.44717835724E-01  0.51100000000E-03 0. -1.
</event>
<event>
 8    1  0.2922807E+004  0.1043930E+01  0.7957747E-01            NaN
         13   -1    0    0    0    0  0.00000000000E+00  0.00000000000E+00  0.74505805969E-08  0.10566000000E+00  0.10566000000E+00 0. -1.
     999900   -1    0    0    0    0 -0.00000000000E+00 -0.00000000000E+00 -0.74505805969E-08  0.93827000000E+00  0.93827000000E+00 0.  1.
     999902    2    1    2    0    0 -0.99332487106E-02  0.13164253209E-01 -0.58089471853E-02  0.10264454108E+01  0.10262964827E+01 0.  0.
     999903    2    3    3    0    0 -0.18087410717E-01  0.76657928994E-01  0.10333644357E+00  0.13739498840E+00  0.44669561933E-01 0.  0.
         14    1    1    2    0    0  0.99332487106E-02 -0.13164253209E-01  0.58089471853E-02  0.17484589212E-01  0.00000000000E+00 0.  1.
     999901    1    3    3    0    0  0.81541620067E-02 -0.63493675784E-01 -0.10914539076E+00  0.88905042239E+00  0.88000000000E+00 0. -1.
        -11    1    4    4    0    0  0.64742997156E-02  0.46413108822E-02  0.32392161546E-01  0.33361228607E-01  0.51100000000E-03 0.  1.
         11    1    4    4    0    0 -0.24561710433E-01  0.72016618111E-01  0.70944282027E-01  0.10403375979E+00  0.51100000000E-03 0. -1.
</event>
<event>
 8    1  0.2922807E+004  0.1043930E+01  0.7957747E-01            NaN
         13   -1    0    0    0    0  0.00000000000E+00  0.00000000000E+00  0.74505805969E-08  0.10566000000E+00  0.10566000000E+00 0. -1.
     999900   -1    0    0    0    0 -0.00000000000E+00 -0.00000000000E+00 -0.74505805969E-08  0.93827000000E+00  0.93827000000E+00 0. -1.
     999902    2    1    2    0    0  0.39413302571E-02  0.28089603373E-02 -0.15380810308E-01  0.10278056808E+01  0.10276791931E+01 0.  0.
     999903    2    3    3    0    0  0.69055839876E-01 -0.49558667000E-01  0.96986282256E-01  0.13673406125E+00  0.45443306054E-01 0.  0.
         14    1    1    2    0    0 -0.39413302571E-02 -0.28089603373E-02  0.15380810308E-01  0.16124319152E-01  0.00000000000E+00 0. -1.
     999901    1    3    3    0    0 -0.65114509619E-01  0.52367627337E-01 -0.11236709256E+00  0.89107161959E+00  0.88000000000E+00 0.  1.
        -11    1    4    4    0    0  0.44547831159E-01 -0.71437359694E-02  0.31838032507E-01  0.55221949074E-01  0.51100000000E-03 0. -1.
         11    1    4    4    0    0  0.24508008717E-01 -0.42414931030E-01  0.65148249749E-01  0.81512112179E-01  0.51100000000E-03 0.  1.
</event>
<event>
 8    1  0.2922807E+004  0.1043930E+01  0.7957747E-01            NaN
         13   -1    0    0    0    0  0.00000000000E+00  0.00000000000E+00  0.74505805969E-08  0.10566000000E+00  0.10566000000E+00 0. -1.
     999900   -1    0    0    0    0 -0.00000000000E+00 -0.00000000000E+00 -0.74505805969E-08  0.93827000000E+00  0.93827000000E+00 0.  1.
     999902    2    1    2    0    0  0.84451313204E-02 -0.49149922456E-02  0.10974927039E-01  0.10292355652E+01  0.10291306633E+01 0.  0.
     999903    2    3    3    0    0 -0.42568739976E-01  0.35336043423E-02 -0.12286094536E+00  0.13761578376E+00  0.44930035171E-01 0.  0.
         14    1    1    2    0    0 -0.84451313204E-02  0.49149922456E-02 -0.10974927039E-01  0.14694434841E-01  0.00000000000E+00 0.  1.
     999901    1    3    3    0    0  0.51013871297E-01 -0.84485965879E-02  0.13383587240E+00  0.89161978140E+00  0.88000000000E+00 0. -1.
        -11    1    4    4    0    0 -0.48488867574E-02 -0.17794584213E-01 -0.31689364464E-01  0.36669276939E-01  0.51100000000E-03 0.  1.
         11    1    4    4    0    0 -0.37719853219E-01  0.21328188555E-01 -0.91171580899E-01  0.10094650682E+00  0.51100000000E-03 0. -1.
</event>
<event>
 8    1  0.2922807E+004  0.1043930E+01  0.7957747E-01            NaN
         13   -1    0    0    0    0  0.00000000000E+00  0.00000000000E+00  0.74505805969E-08  0.10566000000E+00  0.10566000000E+00 0.  1.
     999900   -1    0    0    0    0 -0.00000000000E+00 -0.00000000000E+00 -0.74505805969E-08  0.93827000000E+00  0.93827000000E+00 0.  1.
     999902    2    1    2    0    0  0.19950487382E-02  0.48982923136E-02 -0.12998350494E-01  0.10298968035E+01  0.10298011922E+01 0.  0.
     999903    2    3    3    0    0  0.50304433640E-01 -0.11473552197E+00 -0.42872143073E-01  0.13998754431E+00  0.45428139578E-01 0.  0.
         14    1    1    2    0    0 -0.19950487382E-02 -0.48982923136E-02  0.12998350494E-01  0.14033196451E-01  0.00000000000E+00 0.  1.
     999901    1    3    3    0    0 -0.48309384902E-01  0.11963381428E+00  0.29873792579E-01  0.88990925924E+00  0.88000000000E+00 0.  1.
        -11    1    4    4    0    0  0.14327537344E-01 -0.61332626071E-01 -0.65541390475E-03  0.62989364463E-01  0.51100000000E-03 0.  1.
         11    1    4    4    0    0  0.35976896296E-01 -0.53402895900E-01 -0.42216729169E-01  0.76998179850E-01  0.51100000000E-03 0. -1.
</event>
<event>
 8    1  0.2922807E+004  0.1043930E+01  0.7957747E-01            NaN
         13   -1    0    0    0    0  0.00000000000E+00  0.00000000000E+00  0.74505805969E-08  0.10566000000E+00  0.10566000000E+00 0. -1.
     999900   -1    0    0    0    0 -0.00000000000E+00 -0.00000000000E+00 -0.74505805969E-08  0.93827000000E+00  0.93827000000E+00 0.  1.
     999902    2    1    2    0    0 -0.91664982664E-02  0.74144873891E-02 -0.80013055317E-02  0.10296814842E+01  0.10295828954E+01 0.  0.
     999903    2    3    3    0    0 -0.94608700720E-01  0.94602491480E-01 -0.34890606283E-02  0.14124325986E+00  0.45133660023E-01 0.  0.
         14    1    1    2    0    0  0.91664982664E-02 -0.74144873891E-02  0.80013055317E-02  0.14248515850E-01  0.00000000000E+00 0. -1.
     999901    1    3    3    0    0  0.85442202453E-01 -0.87188004091E-01 -0.45122449034E-02  0.88843822429E+00  0.88000000000E+00 0.  1.
        -11    1    4    4    0    0 -0.73461947849E-03  0.18495025365E-01 -0.83106989307E-02  0.20296168770E-01  0.51100000000E-03 0.  1.
         11    1    4    4    0    0 -0.93874081241E-01  0.76107466115E-01  0.48216383023E-02  0.12094709109E+00  0.51100000000E-03 0. -1.
</event>
<event>
 8    1  0.2922807E+004  0.1043930E+01  0.7957747E-01            NaN
         13   -1    0    0    0    0  0.00000000000E+00  0.00000000000E+00  0.74505805969E-08  0.10566000000E+00  0.10566000000E+00 0.  1.
     999900   -1    0    0    0    0 -0.00000000000E+00 -0.00000000000E+00 -0.74505805969E-08  0.93827000000E+00  0.93827000000E+00 0. -1.
     999902    2    1    2    0    0  0.79482860748E-02  0.14869936153E-03  0.95857325244E-02  0.10314767422E+01  0.10314015639E+01 0.  0.
     999903    2    3    3    0    0 -0.89528335212E-01  0.62337005005E-01  0.77639492589E-01  0.14130799898E+00  0.45153457986E-01 0.  0.
         14    1    1    2    0    0 -0.79482860748E-02 -0.14869936153E-03 -0.95857325244E-02  0.12453257849E-01  0.00000000000E+00 0. -1.
     999901    1    3    3    0    0  0.97476621287E-01 -0.62188305643E-01 -0.68053760064E-01  0.89016874317E+00  0.88000000000E+00 0. -1.
        -11    1    4    4    0    0 -0.70722858468E-01  0.67469420826E-01  0.58130506793E-01  0.11372450219E+00  0.51100000000E-03 0. -1.
         11    1    4    4    0    0 -0.18805476744E-01 -0.51324158207E-02  0.19508985796E-01  0.27583496796E-01  0.51100000000E-03 0.  1.
</event>
<event>
 8    1  0.2922807E+004  0.1043930E+01  0.7957747E-01            NaN
         13   -1    0    0    0    0  0.00000000000E+00  0.00000000000E+00  0.74505805969E-08  0.10566000000E+00  0.10566000000E+00 0. -1.
     999900   -1    0    0    0    0 -0.00000000000E+00 -0.00000000000E+00 -0.74505805969E-08  0.93827000000E+00  0.93827000000E+00 0. -1.
     999902    2    1    2    0    0 -0.48625020844E-02  0.10842832707E-01 -0.78176944634E-02  0.10297058201E+01  0.10296075702E+01 0.  0.
     999903    2    3    3    0    0  0.60147150202E-02  0.10639281479E+00  0.79173744764E-01  0.14020279961E+00  0.45085866122E-01 0.  0.
         14    1    1    2    0    0  0.48625020844E-02 -0.10842832707E-01  0.78176944634E-02  0.14224179919E-01  0.00000000000E+00 0. -1.
     999901    1    3    3    0    0 -0.10877217105E-01 -0.95549982078E-01 -0.86991439228E-01  0.88950302047E+00  0.88000000000E+00 0. -1.
        -11    1    4    4    0    0  0.75217929953E-02  0.89956254782E-01  0.42076513391E-01  0.99596180873E-01  0.51100000000E-03 0.  1.
         11    1    4    4    0    0 -0.15070779751E-02  0.16436560003E-01  0.37097231374E-01  0.40606618738E-01  0.51100000000E-03 0. -1.
</event>
<event>
 8    1  0.2922807E+004  0.1043930E+01  0.7957747E-01            NaN
         13   -1    0    0    0    0  0.00000000000E+00  0.00000000000E+00  0.74505805969E-08  0.10566000000E+00  0.10566000000E+00 0. -1.
     999900   -1    0    0    0    0 -0.00000000000E+00 -0.00000000000E+00 -0.74505805969E-08  0.93827000000E+00  0.93827000000E+00 0. -1.
     999902    2    1    2    0    0  0.11262129287E-01  0.68414260919E-02 -0.34156080318E-02  0.10303172470E+01  0.10302273159E+01 0.  0.
     999903    2    3    3    0    0  0.11128406766E+00 -0.21167986272E-01  0.70498808353E-01  0.14113095811E+00  0.45996065045E-01 0.  0.
         14    1    1    2    0    0 -0.11262129287E-01 -0.68414260919E-02  0.34156080318E-02  0.13612753038E-01  0.00000000000E+00 0. -1.
     999901    1    3    3    0    0 -0.10002193837E+00  0.28009412364E-01 -0.73914416384E-01  0.88918628885E+00  0.88000000000E+00 0. -1.
        -11    1    4    4    0    0  0.53396152154E-01 -0.51376992402E-02  0.76412975034E-02  0.54186673332E-01  0.51100000000E-03 0.  1.
         11    1    4    4    0    0  0.57887915506E-01 -0.16030287032E-01  0.62857510849E-01  0.86944284776E-01  0.51100000000E-03 0. -1.
</event>
<event>
 8    1  0.2922807E+004  0.1043930E+01  0.7957747E-01            NaN
         13   -1    0    0    0    0  0.00000000000E+00  0.00000000000E+00  0.74505805969E-08  0.10566000000E+00  0.10566000000E+00 0.  1.
     999900   -1    0    0    0    0 -0.00000000000E+00 -0.00000000000E+00 -0.74505805969E-08  0.93827000000E+00  0.93827000000E+00 0. -1.
     999902    2    1    2    0    0 -0.10006943907E-01 -0.81303040160E-03  0.96664339099E-02  0.10299930029E+01  0.10298987067E+01 0.  0.
     999903    2    3    3    0    0  0.52792232313E-03  0.54251486934E-01 -0.12064349923E+00  0.13863237822E+00  0.41479872806E-01 0.  0.
         14    1    1    2    0    0  0.10006943907E-01  0.81303040160E-03 -0.96664339099E-02  0.13936997142E-01  0.00000000000E+00 0. -1.
     999901    1    3    3    0    0 -0.10534866230E-01 -0.55064517335E-01  0.13030993314E+00  0.89136062464E+00  0.88000000000E+00 0.  1.
        -11    1    4    4    0    0 -0.13414022295E-01  0.59077652276E-02 -0.48546224222E-01  0.50713259522E-01  0.51100000000E-03 0. -1.
         11    1    4    4    0    0  0.13941944618E-01  0.48343721706E-01 -0.72097275010E-01  0.87919118701E-01  0.51100000000E-03 0.  1.
</event>
<event>
 8    1  0.2922807E+004  0.1043930E+01  0.7957747E-01            NaN
         13   -1    0    0    0    0  0.00000000000E+00  0.00000000000E+00  0.74505805969E-08  0.10566000000E+00  0.10566000000E+00 0. -1.
     999900   -1    0    0    0    0 -0.00000000000E+00 -0.00000000000E+00 -0.74505805969E-08  0.93827000000E+00  0.93827000000E+00 0. -1.
     999902    2    1    2    0    0 -0.16079615131E-01  0.91078012454E-02  0.10154424778E-01  0.10228440234E+01  0.10226266561E+01 0.  0.
     999903    2    3    3    0    0 -0.77210836224E-01 -0.78211300564E-01 -0.58479338357E-01  0.13375896270E+00  0.48919385947E-01 0.  0.
         14    1    1    2    0    0  0.16079615131E-01 -0.91078012454E-02 -0.10154424778E-01  0.21085976592E-01  0.00000000000E+00 0.  1.
     999901    1    3    3    0    0  0.61131221094E-01  0.87319101809E-01  0.68633763135E-01  0.88908506071E+00  0.88000000000E+00 0.  1.
        -11    1    4    4    0    0 -0.28912893020E-01 -0.15511559939E-01  0.38171293282E-02  0.33036275090E-01  0.51100000000E-03 0.  1.
         11    1    4    4    0    0 -0.48297943204E-01 -0.62699740625E-01 -0.62296467685E-01  0.10072268761E+00  0.51100000000E-03 0. -1.
</event>
<event>
 8    1  0.2922807E+004  0.1043930E+01  0.7957747E-01            NaN
         13   -1    0    0    0    0  0.00000000000E+00  0.00000000000E+00  0.74505805969E-08  0.10566000000E+00  0.10566000000E+00 0. -1.
     999900   -1    0    0    0    0 -0.00000000000E+00 -0.00000000000E+00 -0.74505805969E-08  0.93827000000E+00  0.93827000000E+00 0. -1.
     999902    2    1    2    0    0 -0.13434846755E-01  0.17249001754E-02 -0.49729679962E-03  0.10303757500E+01  0.10302865954E+01 0.  0.
     999903    2    3    3    0    0 -0.94593567891E-02  0.12784272478E+00 -0.26889771694E-01  0.14098378193E+00  0.52154819872E-01 0.  0.
         14    1    1    2    0    0  0.13434846755E-01 -0.17249001754E-02  0.49729679962E-03  0.13554249963E-01  0.00000000000E+00 0. -1.
     999901    1    3    3    0    0 -0.39754899662E-02 -0.12611782460E+00  0.26392474894E-01  0.88939196811E+00  0.88000000000E+00 0. -1.
        -11    1    4    4    0    0  0.13227598528E-01  0.73128369225E-01 -0.33237913288E-01  0.81410980519E-01  0.51100000000E-03 0. -1.
         11    1    4    4    0    0 -0.22686955318E-01  0.54714355553E-01  0.63481415943E-02  0.59572801411E-01  0.51100000000E-03 0.  1.
</event>
<event>
 8    1  0.2922807E+004  0.1043930E+01  0.7957747E-01            NaN
         13   -1    0    0    0    0  0.00000000000E+00  0.00000000000E+00  0.74505805969E-08  0.10566000000E+00  0.10566000000E+00 0. -1.
     999900   -1    0    0    0    0 -0.00000000000E+00 -0.00000000000E+00 -0.74505805969E-08  0.93827000000E+00  0.93827000000E+00 0.  1.
     999902    2    1    2    0    0 -0.97478576271E-03  0.76240543555E-03  0.13736447236E-01  0.10301379207E+01  0.10300455884E+01 0.  0.
     999903    2    3    3    0    0 -0.45866355320E-03 -0.12112871034E+00  0.55622548259E-01  0.14074927900E+00  0.45211910212E-01 0.  0.
         14    1    1    2    0    0  0.97478576271E-03 -0.76240543555E-03 -0.13736447236E-01  0.13792079321E-01  0.00000000000E+00 0.  1.
     999901    1    3    3    0    0 -0.51612220951E-03  0.12189111577E+00 -0.41886101023E-01  0.88938864168E+00  0.88000000000E+00 0.  1.
        -11    1    4    4    0    0 -0.19520970564E-01 -0.60989026472E-01  0.40829707611E-01  0.75947717453E-01  0.51100000000E-03 0. -1.
         11    1    4    4    0    0  0.19062307010E-01 -0.60139683863E-01  0.14792840648E-01  0.64801561549E-01  0.51100000000E-03 0.  1.
</event>
<event>
 8    1  0.2922807E+004  0.1043930E+01  0.7957747E-01            NaN
         13   -1    0    0    0    0  0.00000000000E+00  0.00000000000E+00  0.74505805969E-08  0.10566000000E+00  0.10566000000E+00 0. -1.
     999900   -1    0    0    0    0 -0.00000000000E+00 -0.00000000000E+00 -0.74505805969E-08  0.93827000000E+00  0.93827000000E+00 0.  1.
     999902    2    1    2    0    0 -0.53437244288E-02  0.12513510281E-01  0.21072128650E-02  0.10301610612E+01  0.10300690405E+01 0.  0.
     999903    2    3    3    0    0  0.74886135319E-01 -0.70477561692E-01  0.82173926058E-01  0.13901852096E+00  0.44705425629E-01 0.  0.
         14    1    1    2    0    0  0.53437244288E-02 -0.12513510281E-01 -0.21072128650E-02  0.13768938825E-01  0.00000000000E+00 0.  1.
     999901    1    3    3    0    0 -0.80229859748E-01  0.82991071973E-01 -0.80066713193E-01  0.89114254022E+00  0.88000000000E+00 0.  1.
        -11    1    4    4    0    0  0.39837419317E-01 -0.42536694213E-01  0.72744284565E-01  0.93211492801E-01  0.51100000000E-03 0.  1.
         11    1    4    4    0    0  0.35048716002E-01 -0.27940867479E-01  0.94296414924E-02  0.45807028157E-01  0.51100000000E-03 0. -1.
</event>
<event>
 8    1  0.2922807E+004  0.1043930E+01  0.7957747E-01            NaN
         13   -1    0    0    0    0  0.00000000000E+00  0.00000000000E+00  0.74505805969E-08  0.10566000000E+00  0.10566000000E+00 0.  1.
     999900   -1    0    0    0    0 -0.00000000000E+00 -0.00000000000E+00 -0.74505805969E-08  0.93827000000E+00  0.93827000000E+00 0.  1.
     999902    2    1    2    0    0  0.13198923290E-01  0.47258823799E-02  0.49987675704E-03  0.10299016210E+01  0.10298060757E+01 0.  0.
     999903    2    3    3    0    0 -0.79779041227E-01  0.82632999364E-01  0.64726673944E-01  0.13926168128E+00  0.44848250254E-01 0.  0.
         14    1    1    2    0    0 -0.13198923290E-01 -0.47258823799E-02 -0.49987675704E-03  0.14028378989E-01  0.00000000000E+00 0.  1.
     999901    1    3    3    0    0  0.92977964517E-01 -0.77907116984E-01 -0.64226797187E-01  0.89063993973E+00  0.88000000000E+00 0.  1.
        -11    1    4    4    0    0 -0.49401127946E-01  0.36238138895E-01  0.11392524333E-01  0.62319538546E-01  0.51100000000E-03 0.  1.
         11    1    4    4    0    0 -0.30377913282E-01  0.46394860468E-01  0.53334149611E-01  0.76942142737E-01  0.51100000000E-03 0. -1.
</event>
<event>
 8    1  0.2922807E+004  0.1043930E+01  0.7957747E-01            NaN
         13   -1    0    0    0    0  0.00000000000E+00  0.00000000000E+00  0.74505805969E-08  0.10566000000E+00  0.10566000000E+00 0.  1.
     999900   -1    0    0    0    0 -0.00000000000E+00 -0.00000000000E+00 -0.74505805969E-08  0.93827000000E+00  0.93827000000E+00 0. -1.
     999902    2    1    2    0    0 -0.47962420115E-02  0.10288308489E-01  0.94706969413E-02  0.10291466536E+01  0.10290404693E+01 0.  0.
     999903    2    3    3    0    0  0.80809564540E-01  0.73481225601E-01  0.73753138293E-01  0.14040938585E+00  0.48431332739E-01 0.  0.
         14    1    1    2    0    0  0.47962420115E-02 -0.10288308489E-01 -0.94706969413E-02  0.14783346358E-01  0.00000000000E+00 0. -1.
     999901    1    3    3    0    0 -0.85605806551E-01 -0.63192917112E-01 -0.64282441352E-01  0.88873726779E+00  0.88000000000E+00 0. -1.
        -11    1    4    4    0    0  0.56422724257E-01  0.23303952584E-01  0.23802720157E-01  0.65524259832E-01  0.51100000000E-03 0. -1.
         11    1    4    4    0    0  0.24386840282E-01  0.50177273017E-01  0.49950418136E-01  0.74885126022E-01  0.51100000000E-03 0.  1.
</event>
<event>
 8    1  0.2922807E+004  0.1043930E+01  0.7957747E-01            NaN
         13   -1    0    0    0    0  0.00000000000E+00  0.00000000000E+00  0.74505805969E-08  0.10566000000E+00  0.10566000000E+00 0.  1.
     999900   -1    0    0    0    0 -0.00000000000E+00 -0.00000000000E+00 -0.74505805969E-08  0.93827000000E+00  0.93827000000E+00 0.  1.
     999902    2    1    2    0    0 -0.70282097331E-02  0.53202806113E-02  0.10163002465E-01  0.10304768317E+01  0.10303890105E+01 0.  0.
     999903    2    3    3    0    0 -0.10698809683E+00 -0.65615764822E-01  0.46972648065E-01  0.14121935967E+00  0.44548809449E-01 0.  0.
         14    1    1    2    0    0  0.70282097331E-02 -0.53202806113E-02 -0.10163002465E-01  0.13453168287E-01  0.00000000000E+00 0. -1.
     999901    1    3    3    0    0  0.99959887099E-01  0.70936045434E-01 -0.36809645599E-01  0.88925747204E+00  0.88000000000E+00 0.  1.
        -11    1    4    4    0    0 -0.46805688640E-01 -0.38941212157E-02  0.16772895434E-01  0.49875122169E-01  0.51100000000E-03 0.  1.
         11    1    4    4    0    0 -0.60182408191E-01 -0.61721643607E-01  0.30199752631E-01  0.91344237504E-01  0.51100000000E-03 0. -1.
</event>
<event>
 8    1  0.2922807E+004  0.1043930E+01  0.7957747E-01            NaN
         13   -1    0    0    0    0  0.00000000000E+00  0.00000000000E+00  0.74505805969E-08  0.10566000000E+00  0.10566000000E+00 0. -1.
     999900   -1    0    0    0    0 -0.00000000000E+00 -0.00000000000E+00 -0.74505805969E-08  0.93827000000E+00  0.93827000000E+00 0.  1.
     999902    2    1    2    0    0 -0.11576062097E-01 -0.47998825957E-03 -0.82852955194E-02  0.10296863444E+01  0.10295878234E+01 0.  0.
     999903    2    3    3    0    0  0.25503950730E-01 -0.12518449157E+00 -0.33918312799E-01  0.13975196927E+00  0.45371274398E-01 0.  0.
         14    1    1    2    0    0  0.11576062097E-01  0.47998825957E-03  0.82852955194E-02  0.14243655579E-01  0.00000000000E+00 0. -1.
     999901    1    3    3    0    0 -0.37080012827E-01  0.12470450331E+00  0.25633017280E-01  0.88993437515E+00  0.88000000000E+00 0. -1.
        -11    1    4    4    0    0  0.15475268559E-01 -0.47897958004E-01 -0.35837351939E-01  0.61792193949E-01  0.51100000000E-03 0.  1.
         11    1    4    4    0    0  0.10028682171E-01 -0.77286533563E-01  0.19190391402E-02  0.77959775324E-01  0.51100000000E-03 0. -1.
</event>
<event>
 8    1  0.2922807E+004  0.1043930E+01  0.7957747E-01            NaN
         13   -1    0    0    0    0  0.00000000000E+00  0.00000000000E+00  0.74505805969E-08  0.10566000000E+00  0.10566000000E+00 0. -1.
     999900   -1    0    0    0    0 -0.00000000000E+00 -0.00000000000E+00 -0.74505805969E-08  0.93827000000E+00  0.93827000000E+00 0. -1.
     999902    2    1    2    0    0  0.91407305936E-02  0.10650444796E-01  0.58155225750E-03  0.10298828247E+01  0.10297870214E+01 0.  0.
     999903    2    3    3    0    0  0.30084030697E-01  0.12155809532E+00 -0.48013403083E-01  0.14134436273E+00  0.44626478234E-01 0.  0.
         14    1    1    2    0    0 -0.91407305936E-02 -0.10650444796E-01 -0.58155225750E-03  0.14047175274E-01  0.00000000000E+00 0. -1.
     999901    1    3    3    0    0 -0.20943300103E-01 -0.11090765052E+00  0.48594955341E-01  0.88853846200E+00  0.88000000000E+00 0.  1.
        -11    1    4    4    0    0 -0.74817993904E-02  0.54467095270E-01 -0.11276148946E-01  0.56125345837E-01  0.51100000000E-03 0. -1.
         11    1    4    4    0    0  0.37565830088E-01  0.67091000047E-01 -0.36737254138E-01  0.85219016892E-01  0.51100000000E-03 0.  1.
</event>
<event>
 8    1  0.2922807E+004  0.1043930E+01  0.7957747E-01            NaN
         13   -1    0    0    0    0  0.00000000000E+00  0.00000000000E+00  0.74505805969E-08  0.10566000000E+00  0.10566000000E+00 0.  1.
     999900   -1    0    0    0    0 -0.00000000000E+00 -0.00000000000E+00 -0.74505805969E-08  0.93827000000E+00  0.93827000000E+00 0. -1.
     999902    2    1    2    0    0  0.81247649939E-02  0.38319389503E-02 -0.11731698133E-01  0.10291540634E+01  0.10290479862E+01 0.  0.
     999903    2    3    3    0    0  0.55337939318E-01 -0.10279469830E+00 -0.62685755300E-01  0.14000017368E+00  0.45183040927E-01 0.  0.
         14    1    1    2    0    0 -0.81247649939E-02 -0.38319389503E-02  0.11731698133E-01  0.14775936634E-01  0.00000000000E+00 0.  1.
     999901    1    3    3    0    0 -0.47213174324E-01  0.10662663725E+00  0.50954057168E-01  0.88915388969E+00  0.88000000000E+00 0.  1.
        -11    1    4    4    0    0  0.12888359257E-01 -0.69741099616E-01 -0.41521743483E-01  0.82184226484E-01  0.51100000000E-03 0.  1.
         11    1    4    4    0    0  0.42449580061E-01 -0.33053598680E-01 -0.21164011817E-01  0.57815947197E-01  0.51100000000E-03 0. -1.
</event>
<event>
 8    1  0.2922807E+004  0.1043930E+01  0.7957747E-01            NaN
         13   -1    0    0    0    0  0.00000000000E+00  0.00000000000E+00  0.74505805969E-08  0.10566000000E+00  0.10566000000E+00 0.  1.
     999900   -1    0    0    0    0 -0.00000000000E+00 -0.00000000000E+00 -0.74505805969E-08  0.93827000000E+00  0.93827000000E+00 0. -1.
     999902    2    1    2    0    0  0.25415516139E-03 -0.11318512753E-01 -0.84520626580E-02  0.10298016353E+01  0.10297047137E+01 0.  0.
     999903    2    3    3    0    0  0.95199601914E-01 -0.91081642524E-01  0.19644694944E-01  0.14066372558E+00  0.45183402306E-01 0.  0.
         14    1    1    2    0    0 -0.25415516139E-03  0.11318512753E-01  0.84520626580E-02  0.14128364695E-01  0.00000000000E+00 0.  1.
     999901    1    3    3    0    0 -0.94945446752E-01  0.79763129771E-01 -0.28096757602E-01  0.88913790973E+00  0.88000000000E+00 0. -1.
        -11    1    4    4    0    0  0.67347617577E-01 -0.47132351592E-01 -0.64442793931E-02  0.82455745814E-01  0.51100000000E-03 0. -1.
         11    1    4    4    0    0  0.27851984337E-01 -0.43949290933E-01  0.26088974337E-01  0.58207979762E-01  0.51100000000E-03 0.  1.
</event>
<event>
 8    1  0.2922807E+004  0.1043930E+01  0.7957747E-01            NaN
         13   -1    0    0    0    0  0.00000000000E+00  0.00000000000E+00  0.74505805969E-08  0.10566000000E+00  0.10566000000E+00 0.  1.
     999900   -1    0    0    0    0 -0.00000000000E+00 -0.00000000000E+00 -0.74505805969E-08  0.93827000000E+00  0.93827000000E+00 0.  1.
     999902    2    1    2    0    0  0.47687749403E-02  0.24015988342E-02  0.11038573074E-01  0.10316679045E+01  0.10315950301E+01 0.  0.
     999903    2    3    3    0    0  0.13164997665E+00  0.29351698279E-01  0.10307264258E-02  0.14210323329E+00  0.44710490602E-01 0.  0.
         14    1    1    2    0    0 -0.47687749403E-02 -0.24015988342E-02 -0.11038573074E-01  0.12262095535E-01  0.00000000000E+00 0. -1.
     999901    1    3    3    0    0 -0.12688120171E+00 -0.26950099445E-01  0.10007846648E-01  0.88956467118E+00  0.88000000000E+00 0. -1.
        -11    1    4    4    0    0  0.11254171874E+00  0.22284805967E-01  0.17301414701E-01  0.11602521754E+00  0.51100000000E-03 0. -1.
         11    1    4    4    0    0  0.19108257913E-01  0.70668923118E-02 -0.16270688275E-01  0.26078015748E-01  0.51100000000E-03 0.  1.
</event>
<event>
 8    1  0.2922807E+004  0.1043930E+01  0.7957747E-01            NaN
         13   -1    0    0    0    0  0.00000000000E+00  0.00000000000E+00  0.74505805969E-08  0.10566000000E+00  0.10566000000E+00 0. -1.
     999900   -1    0    0    0    0 -0.00000000000E+00 -0.00000000000E+00 -0.74505805969E-08  0.93827000000E+00  0.93827000000E+00 0.  1.
     999902    2    1    2    0    0  0.62326407318E-04  0.14380755171E-01 -0.34551285925E-02  0.10291398709E+01  0.10290335884E+01 0.  0.
     999903    2    3    3    0    0  0.18110420392E-02 -0.10609101907E+00 -0.75941274010E-01  0.13797728888E+00  0.44856113839E-01 0.  0.
         14    1    1    2    0    0 -0.62326407318E-04 -0.14380755171E-01  0.34551285925E-02  0.14790129055E-01  0.00000000000E+00 0. -1.
     999901    1    3    3    0    0 -0.17487156319E-02  0.12047177424E+00  0.72486145417E-01  0.89116258206E+00  0.88000000000E+00 0. -1.
        -11    1    4    4    0    0 -0.98623802620E-03 -0.48505775393E-01 -0.61877802637E-01  0.78631459938E-01  0.51100000000E-03 0.  1.
         11    1    4    4    0    0  0.27972800654E-02 -0.57585243674E-01 -0.14063471373E-01  0.59345828942E-01  0.51100000000E-03 0. -1.
</event>
<event>
 8    1  0.2922807E+004  0.1043930E+01  0.7957747E-01            NaN
         13   -1    0    0    0    0  0.00000000000E+00  0.00000000000E+00  0.74505805969E-08  0.10566000000E+00  0.10566000000E+00 0. -1.
     999900   -1    0    0    0    0 -0.00000000000E+00 -0.00000000000E+00 -0.74505805969E-08  0.93827000000E+00  0.93827000000E+00 0. -1.
     999902    2    1    2    0    0  0.14773901366E-01  0.53443569769E-02 -0.12369699516E-02  0.10281705454E+01  0.10280497605E+01 0.  0.
     999903    2    3    3    0    0 -0.10712929129E+00 -0.54703093759E-01  0.45911502773E-01  0.13649287768E+00  0.45313640904E-01 0.  0.
         14    1    1    2    0    0 -0.14773901366E-01 -0.53443569769E-02  0.12369699516E-02  0.15759454551E-01  0.00000000000E+00 0. -1.
     999901    1    3    3    0    0  0.12190319265E+00  0.60047450736E-01 -0.47148472725E-01  0.89167766777E+00  0.88000000000E+00 0. -1.
        -11    1    4    4    0    0 -0.87858414334E-01 -0.22546530086E-01  0.36953719504E-01  0.97945318900E-01  0.51100000000E-03 0. -1.
         11    1    4    4    0    0 -0.19270876953E-01 -0.32156563673E-01  0.89577832693E-02  0.38547558780E-01  0.51100000000E-03 0.  1.
</event>
<event>
 8    1  0.2922807E+004  0.1043930E+01  0.7957747E-01            NaN
         13   -1    0    0    0    0  0.00000000000E+00  0.00000000000E+00  0.74505805969E-08  0.10566000000E+00  0.10566000000E+00 0. -1.
     999900   -1    0    0    0    0 -0.00000000000E+00 -0.00000000000E+00 -0.74505805969E-08  0.93827000000E+00  0.93827000000E+00 0. -1.
     999902    2    1    2    0    0  0.10299428532E-01  0.67221767598E-02 -0.73257982664E-02  0.10296145116E+01  0.10295149874E+01 0.  0.
     999903    2    3    3    0    0 -0.85357063879E-01 -0.98846268406E-02 -0.99993901447E-01  0.13943850212E+00  0.45395829605E-01 0.  0.
         14    1    1    2    0    0 -0.10299428532E-01 -0.67221767598E-02  0.73257982664E-02  0.14315488421E-01  0.00000000000E+00 0. -1.
     999901    1    3    3    0    0  0.95656492412E-01  0.16606803600E-01  0.92668103181E-01  0.89017600946E+00  0.88000000000E+00 0.  1.
        -11    1    4    4    0    0 -0.63123743262E-01 -0.82948233277E-02 -0.39401557754E-01  0.74874260810E-01  0.51100000000E-03 0.  1.
         11    1    4    4    0    0 -0.22233320617E-01 -0.15898035129E-02 -0.60592343693E-01  0.64564241312E-01  0.51100000000E-03 0. -1.
</event>
<event>
 8    1  0.2922807E+004  0.1043930E+01  0.7957747E-01            NaN
         13   -1    0    0    0    0  0.00000000000E+00  0.00000000000E+00  0.74505805969E-08  0.10566000000E+00  0.10566000000E+00 0. -1.
     999900   -1    0    0    0    0 -0.00000000000E+00 -0.00000000000E+00 -0.74505805969E-08  0.93827000000E+00  0.93827000000E+00 0.  1.
     999902    2    1    2    0    0 -0.11911199560E-01 -0.72316233442E-05 -0.64712601632E-02  0.10303744131E+01  0.10302852407E+01 0.  0.
     999903    2    3    3    0    0 -0.44266727595E-01 -0.11712651963E+00 -0.46714214677E-01  0.14111443809E+00  0.45308961740E-01 0.  0.
         14    1    1    2    0    0  0.11911199560E-01  0.72316233442E-05  0.64712601632E-02  0.13555586869E-01  0.00000000000E+00 0. -1.
     999901    1    3    3    0    0  0.32355528036E-01  0.11711928800E+00  0.40242954514E-01  0.88925997504E+00  0.88000000000E+00 0. -1.
        -11    1    4    4    0    0  0.52943805001E-02 -0.40316210856E-01 -0.22815912250E-01  0.46628899788E-01  0.51100000000E-03 0.  1.
         11    1    4    4    0    0 -0.49561108095E-01 -0.76810308770E-01 -0.23898302428E-01  0.94485538305E-01  0.51100000000E-03 0. -1.
</event>
<event>
 8    1  0.2922807E+004  0.1043930E+01  0.7957747E-01            NaN
         13   -1    0    0    0    0  0.00000000000E+00  0.00000000000E+00  0.74505805969E-08  0.10566000000E+00  0.10566000000E+00 0. -1.
     999900   -1    0    0    0    0 -0.00000000000E+00 -0.00000000000E+00 -0.74505805969E-08  0.93827000000E+00  0.93827000000E+00 0.  1.
     999902    2    1    2    0    0 -0.13730377023E-01  0.34610092511E-02 -0.55321956358E-02  0.10287277953E+01  0.10286154626E+01 0.  0.
     999903    2    3    3    0    0 -0.47310392310E-01  0.10311911572E+00 -0.68973598421E-01  0.14019857961E+00  0.45016210388E-01 0.  0.
         14    1    1    2    0    0  0.13730377023E-01 -0.34610092511E-02  0.55321956358E-02  0.15202204668E-01  0.00000000000E+00 0. -1.
     999901    1    3    3    0    0  0.33580015287E-01 -0.99658106465E-01  0.63441402786E-01  0.88852921573E+00  0.88000000000E+00 0.  1.
        -11    1    4    4    0    0 -0.30628923427E-01  0.18649429498E-01 -0.22787882566E-01  0.42490950610E-01  0.51100000000E-03 0. -1.
         11    1    4    4    0    0 -0.16681468883E-01  0.84469686219E-01 -0.46185715855E-01  0.97707628996E-01  0.51100000000E-03 0.  1.
</event>
<event>
 8    1  0.2922807E+004  0.1043930E+01  0.7957747E-01            NaN
         13   -1    0    0    0    0  0.00000000000E+00  0.00000000000E+00  0.74505805969E-08  0.10566000000E+00  0.10566000000E+00 0.  1.
     999900   -1    0    0    0    0 -0.00000000000E+00 -0.00000000000E+00 -0.74505805969E-08  0.93827000000E+00  0.93827000000E+00 0. -1.
     999902    2    1    2    0    0 -0.77751435063E-02 -0.11004210459E-03  0.11747414937E-01  0.10298421782E+01  0.10297458158E+01 0.  0.
     999903    2    3    3    0    0 -0.75209921297E-01 -0.57590039863E-01 -0.91475182580E-01  0.13938931361E+00  0.45700402256E-01 0.  0.
         14    1    1    2    0    0  0.77751435063E-02  0.11004210459E-03 -0.11747414937E-01  0.14087821816E-01  0.00000000000E+00 0. -1.
     999901    1    3    3    0    0  0.67434777791E-01  0.57479997759E-01  0.10322259752E+00  0.89045286458E+00  0.88000000000E+00 0.  1.
        -11    1    4    4    0    0 -0.36089987816E-01 -0.13459822191E-02 -0.38450957425E-01  0.52754489255E-01  0.51100000000E-03 0. -1.
         11    1    4    4    0    0 -0.39119933481E-01 -0.56244057644E-01 -0.53024225155E-01  0.86634824350E-01  0.51100000000E-03 0.  1.
</event>
<event>
 8    1  0.2922807E+004  0.1043930E+01  0.7957747E-01            NaN
         13   -1    0    0    0    0  0.00000000000E+00  0.00000000000E+00  0.74505805969E-08  0.10566000000E+00  0.10566000000E+00 0. -1.
     999900   -1    0    0    0    0 -0.00000000000E+00 -0.00000000000E+00 -0.74505805969E-08  0.93827000000E+00  0.93827000000E+00 0.  1.
     999902    2    1    2    0    0 -0.39148749901E-02 -0.16433902020E-01  0.10150981984E-01  0.10242210727E+01  0.10240314272E+01 0.  0.
     999903    2    3    3    0    0 -0.64159104509E-01  0.10070412365E+00  0.44547982148E-01  0.13375274763E+00  0.40590190618E-01 0.  0.
         14    1    1    2    0    0  0.39148749901E-02  0.16433902020E-01 -0.10150981984E-01  0.19708927343E-01  0.00000000000E+00 0.  1.
     999901    1    3    3    0    0  0.60244229519E-01 -0.11713802567E+00 -0.34397000164E-01  0.89046832502E+00  0.88000000000E+00 0.  1.
        -11    1    4    4    0    0 -0.23105413989E-01  0.69212773096E-01  0.35788299889E-01  0.81273191429E-01  0.51100000000E-03 0. -1.
         11    1    4    4    0    0 -0.41053690520E-01  0.31491350556E-01  0.87596822595E-02  0.52479556205E-01  0.51100000000E-03 0.  1.
</event>
<event>
 8    1  0.2922807E+004  0.1043930E+01  0.7957747E-01            NaN
         13   -1    0    0    0    0  0.00000000000E+00  0.00000000000E+00  0.74505805969E-08  0.10566000000E+00  0.10566000000E+00 0.  1.
     999900   -1    0    0    0    0 -0.00000000000E+00 -0.00000000000E+00 -0.74505805969E-08  0.93827000000E+00  0.93827000000E+00 0.  1.
     999902    2    1    2    0    0 -0.33271335941E-02 -0.27471307619E-02 -0.11735249762E-01  0.10314266951E+01  0.10313509077E+01 0.  0.
     999903    2    3    3    0    0 -0.95842332366E-01 -0.92429417533E-01 -0.23564206900E-01  0.14196511711E+00  0.43242025060E-01 0.  0.
         14    1    1    2    0    0  0.33271335941E-02  0.27471307619E-02  0.11735249762E-01  0.12503304858E-01  0.00000000000E+00 0.  1.
     999901    1    3    3    0    0  0.92515198771E-01  0.89682286771E-01  0.11828957138E-01  0.88946157803E+00  0.88000000000E+00 0.  1.
        -11    1    4    4    0    0 -0.28016057281E-01 -0.56859401370E-01 -0.95445918850E-02  0.64103442536E-01  0.51100000000E-03 0. -1.
         11    1    4    4    0    0 -0.67826275085E-01 -0.35570016162E-01 -0.14019615015E-01  0.77861674577E-01  0.51100000000E-03 0.  1.
</event>
<event>
 8    1  0.2922807E+004  0.1043930E+01  0.7957747E-01            NaN
         13   -1    0    0    0    0  0.00000000000E+00  0.00000000000E+00  0.74505805969E-08  0.10566000000E+00  0.10566000000E+00 0.  1.
     999900   -1    0    0    0    0 -0.00000000000E+00 -0.00000000000E+00 -0.74505805969E-08  0.93827000000E+00  0.93827000000E+00 0.  1.
     999902    2    1    2    0    0  0.66020319679E-02  0.36097898486E-02  0.14337175639E-01  0.10277382733E+01  0.10276107173E+01 0.  0.
     999903    2    3    3    0    0 -0.11623858267E+00  0.37320931031E-02 -0.53208042659E-01  0.13664221332E+00  0.48110934698E-01 0.  0.
         14    1    1    2    0    0 -0.66020319679E-02 -0.36097898486E-02 -0.14337175639E-01  0.16191726720E-01  0.00000000000E+00 0. -1.
     999901    1    3    3    0    0  0.12284061464E+00 -0.12230325449E-03  0.67545218298E-01  0.89109605996E+00  0.88000000000E+00 0. -1.
        -11    1    4    4    0    0 -0.48135223450E-01  0.24136372661E-01 -0.31112371995E-01  0.62191679781E-01  0.51100000000E-03 0.  1.
         11    1    4    4    0    0 -0.68103359219E-01 -0.20404279558E-01 -0.22095670664E-01  0.74450533539E-01  0.51100000000E-03 0. -1.
</event>
<event>
 8    1  0.2922807E+004  0.1043930E+01  0.7957747E-01            NaN
         13   -1    0    0    0    0  0.00000000000E+00  0.00000000000E+00  0.74505805969E-08  0.10566000000E+00  0.10566000000E+00 0.  1.
     999900   -1    0    0    0    0 -0.00000000000E+00 -0.00000000000E+00 -0.74505805969E-08  0.93827000000E+00  0.93827000000E+00 0. -1.
     999902    2    1    2    0    0 -0.28038876528E-02 -0.11778115339E-01  0.68214586479E-02  0.10300333067E+01  0.10299395588E+01 0.  0.
     999903    2    3    3    0    0  0.43726038217E-01  0.35425664393E-01 -0.11854138102E+00  0.13868092273E+00  0.44870872499E-01 0.  0.
         14    1    1    2    0    0  0.28038876528E-02  0.11778115339E-01 -0.68214586479E-02  0.13896693311E-01  0.00000000000E+00 0. -1.
     999901    1    3    3    0    0 -0.46529925870E-01 -0.47203779732E-01  0.12536283967E+00  0.89135238396E+00  0.88000000000E+00 0.  1.
        -11    1    4    4    0    0  0.23064533145E-01  0.23247378577E-01 -0.22616053517E-01  0.39801511248E-01  0.51100000000E-03 0.  1.
         11    1    4    4    0    0  0.20661505073E-01  0.12178285816E-01 -0.95925327503E-01  0.98879411481E-01  0.51100000000E-03 0. -1.
</event>
<event>
 8    1  0.2922807E+004  0.1043930E+01  0.7957747E-01            NaN
         13   -1    0    0    0    0  0.00000000000E+00  0.00000000000E+00  0.74505805969E-08  0.10566000000E+00  0.10566000000E+00 0.  1.
     999900   -1    0    0    0    0 -0.00000000000E+00 -0.00000000000E+00 -0.74505805969E-08  0.93827000000E+00  0.93827000000E+00 0.  1.
     999902    2    1    2    0    0 -0.19815042331E-02 -0.14536576861E-01  0.21429239483E-02  0.10291033163E+01  0.10289965039E+01 0.  0.
     999903    2    3    3    0    0 -0.71031861364E-01  0.89351379706E-01  0.63837274610E-01  0.13816737460E+00  0.44562668132E-01 0.  0.
         14    1    1    2    0    0  0.19815042331E-02  0.14536576861E-01 -0.21429239483E-02  0.14826683679E-01  0.00000000000E+00 0. -1.
     999901    1    3    3    0    0  0.69050357131E-01 -0.10388795657E+00 -0.61694350662E-01  0.89093594172E+00  0.88000000000E+00 0.  1.
        -11    1    4    4    0    0 -0.76301322511E-01  0.74254086267E-01  0.57016606943E-01  0.12077547654E+00  0.51100000000E-03 0. -1.
         11    1    4    4    0    0  0.52694611471E-02  0.15097293439E-01  0.68206676672E-02  0.17391898067E-01  0.51100000000E-03 0.  1.
</event>
<event>
 8    1  0.2922807E+004  0.1043930E+01  0.7957747E-01            NaN
         13   -1    0    0    0    0  0.00000000000E+00  0.00000000000E+00  0.74505805969E-08  0.10566000000E+00  0.10566000000E+00 0. -1.
     999900   -1    0    0    0    0 -0.00000000000E+00 -0.00000000000E+00 -0.74505805969E-08  0.93827000000E+00  0.93827000000E+00 0.  1.
     999902    2    1    2    0    0  0.17356074057E-01  0.11441233692E-01 -0.16658251178E-02  0.10230755015E+01  0.10228629291E+01 0.  0.
     999903    2    3    3    0    0  0.12196867525E+00 -0.91061757559E-02 -0.38294635667E-01  0.13588461891E+00  0.45153852065E-01 0.  0.
         14    1    1    2    0    0 -0.17356074057E-01 -0.11441233692E-01  0.16658251178E-02  0.20854498517E-01  0.00000000000E+00 0. -1.
     999901    1    3    3    0    0 -0.10461260119E+00  0.20547409447E-01  0.36628810550E-01  0.88719088258E+00  0.88000000000E+00 0. -1.
        -11    1    4    4    0    0  0.32833497270E-01 -0.21435168976E-01 -0.33673929988E-02  0.39358677170E-01  0.51100000000E-03 0.  1.
         11    1    4    4    0    0  0.89135177977E-01  0.12328993220E-01 -0.34927242669E-01  0.96525941737E-01  0.51100000000E-03 0. -1.
</event>
<event>
 8    1  0.2922807E+004  0.1043930E+01  0.7957747E-01            NaN
         13   -1    0    0    0    0  0.00000000000E+00  0.00000000000E+00  0.74505805969E-08  0.10566000000E+00  0.10566000000E+00 0.  1.
     999900   -1    0    0    0    0 -0.00000000000E+00 -0.00000000000E+00 -0.74505805969E-08  0.93827000000E+00  0.93827000000E+00 0.  1.
     999902    2    1    2    0    0 -0.14095289006E-01 -0.68901541440E-03  0.42518565958E-03  0.10298114768E+01  0.10297146911E+01 0.  0.
     999903    2    3    3    0    0  0.12508462086E-01  0.61492712169E-01  0.11678306297E+00  0.13957921361E+00  0.43660712326E-01 0.  0.
         14    1    1    2    0    0  0.14095289006E-01  0.68901541440E-03 -0.42518565958E-03  0.14118523197E-01  0.00000000000E+00 0. -1.
     999901    1    3    3    0    0 -0.26603751092E-01 -0.62181727583E-01 -0.11635787731E+00  0.89023226319E+00  0.88000000000E+00 0.  1.
        -11    1    4    4    0    0 -0.48638949969E-02  0.11872788924E-01  0.63271496215E-01  0.64561319269E-01  0.51100000000E-03 0. -1.
         11    1    4    4    0    0  0.17372357083E-01  0.49619923245E-01  0.53511566758E-01  0.75017894341E-01  0.51100000000E-03 0.  1.
</event>
<event>
 8    1  0.2922807E+004  0.1043930E+01  0.7957747E-01            NaN
         13   -1    0    0    0    0  0.00000000000E+00  0.00000000000E+00  0.74505805969E-08  0.10566000000E+00  0.10566000000E+00 0. -1.
     999900   -1    0    0    0    0 -0.00000000000E+00 -0.00000000000E+00 -0.74505805969E-08  0.93827000000E+00  0.93827000000E+00 0. -1.
     999902    2    1    2    0    0  0.90301937619E-02 -0.10945043690E-01 -0.12969982602E-01  0.10247060870E+01  0.10245257469E+01 0.  0.
     999903    2    3    3    0    0 -0.52222185466E-01  0.73976506418E-01  0.86455757346E-01  0.13293873992E+00  0.44703807843E-01 0.  0.
         14    1    1    2    0    0 -0.90301937619E-02  0.10945043690E-01  0.12969982602E-01  0.19223912959E-01  0.00000000000E+00 0.  1.
     999901    1    3    3    0    0  0.61252379228E-01 -0.84921550108E-01 -0.99425739948E-01  0.89176734712E+00  0.88000000000E+00 0. -1.
        -11    1    4    4    0    0 -0.46462103660E-01  0.34929189007E-01  0.67713168181E-01  0.89241860062E-01  0.51100000000E-03 0.  1.
         11    1    4    4    0    0 -0.57600818061E-02  0.39047317411E-01  0.18742589165E-01  0.43696879854E-01  0.51100000000E-03 0. -1.
</event>
<event>
 8    1  0.2922807E+004  0.1043930E+01  0.7957747E-01            NaN
         13   -1    0    0    0    0  0.00000000000E+00  0.00000000000E+00  0.74505805969E-08  0.10566000000E+00  0.10566000000E+00 0. -1.
     999900   -1    0    0    0    0 -0.00000000000E+00 -0.00000000000E+00 -0.74505805969E-08  0.93827000000E+00  0.93827000000E+00 0.  1.
     999902    2    1    2    0    0 -0.29195201753E-02  0.89718240622E-02 -0.10737381241E-01  0.10296363447E+01  0.10295371260E+01 0.  0.
     999903    2    3    3    0    0  0.11601616743E-01 -0.12727212569E+00  0.27394415453E-01  0.13821763774E+00  0.44954086521E-01 0.  0.
         14    1    1    2    0    0  0.29195201753E-02 -0.89718240622E-02  0.10737381241E-01  0.14293655270E-01  0.00000000000E+00 0. -1.
     999901    1    3    3    0    0 -0.14521136918E-01  0.13624394975E+00 -0.38131796694E-01  0.89141870699E+00  0.88000000000E+00 0. -1.
        -11    1    4    4    0    0  0.78292322583E-02 -0.11833374526E+00  0.10924330505E-01  0.11909565173E+00  0.51100000000E-03 0. -1.
         11    1    4    4    0    0  0.37723844847E-02 -0.89383804320E-02  0.16470084947E-01  0.19121986001E-01  0.51100000000E-03 0.  1.
</event>
<event>
 8    1  0.2922807E+004  0.1043930E+01  0.7957747E-01            NaN
         13   -1    0    0    0    0  0.00000000000E+00  0.00000000000E+00  0.74505805969E-08  0.10566000000E+00  0.10566000000E+00 0. -1.
     999900   -1    0    0    0    0 -0.00000000000E+00 -0.00000000000E+00 -0.74505805969E-08  0.93827000000E+00  0.93827000000E+00 0.  1.
     999902    2    1    2    0    0 -0.29395523396E-02 -0.51797839483E-02 -0.12313421104E-01  0.10302518616E+01  0.10301610587E+01 0.  0.
     999903    2    3    3    0    0  0.81921399276E-01  0.83658769019E-01  0.58757492100E-01  0.13887946791E+00  0.46099440729E-01 0.  0.
         14    1    1    2    0    0  0.29395523396E-02  0.51797839483E-02  0.12313421104E-01  0.13678138360E-01  0.00000000000E+00 0. -1.
     999901    1    3    3    0    0 -0.84860951616E-01 -0.88838552967E-01 -0.71070913204E-01  0.89137239373E+00  0.88000000000E+00 0.  1.
        -11    1    4    4    0    0  0.83973753797E-01  0.67095976251E-01  0.42531877459E-01  0.11559707209E+00  0.51100000000E-03 0.  1.
         11    1    4    4    0    0 -0.20523545201E-02  0.16562792768E-01  0.16225614641E-01  0.23282395814E-01  0.51100000000E-03 0. -1.
</event>
<event>
 8    1  0.2922807E+004  0.1043930E+01  0.7957747E-01            NaN
         13   -1    0    0    0    0  0.00000000000E+00  0.00000000000E+00  0.74505805969E-08  0.10566000000E+00  0.10566000000E+00 0.  1.
     999900   -1    0    0    0    0 -0.00000000000E+00 -0.00000000000E+00 -0.74505805969E-08  0.93827000000E+00  0.93827000000E+00 0.  1.
     999902    2    1    2    0    0  0.56292212848E-02 -0.67882476038E-02  0.10787916506E-01  0.10299963149E+01  0.10299020639E+01 0.  0.
     999903    2    3    3    0    0  0.74506615232E-01 -0.86922593771E-01 -0.67187807628E-01  0.14025150745E+00  0.45271523362E-01 0.  0.
         14    1    1    2    0    0 -0.56292212848E-02  0.67882476038E-02 -0.10787916506E-01  0.13933685096E-01  0.00000000000E+00 0. -1.
     999901    1    3    3    0    0 -0.68877393948E-01  0.80134346168E-01  0.77975724134E-01  0.88974480745E+00  0.88000000000E+00 0.  1.
        -11    1    4    4    0    0  0.27524437522E-01 -0.10625688928E-01 -0.22562705725E-02  0.29594793528E-01  0.51100000000E-03 0. -1.
         11    1    4    4    0    0  0.46982177711E-01 -0.76296904843E-01 -0.64931537056E-01  0.11065671392E+00  0.51100000000E-03 0.  1.
</event>
<event>
 8    1  0.2922807E+004  0.1043930E+01  0.7957747E-01            NaN
         13   -1    0    0    0    0  0.00000000000E+00  0.00000000000E+00  0.74505805969E-08  0.10566000000E+00  0.10566000000E+00 0. -1.
     999900   -1    0    0    0    0 -0.00000000000E+00 -0.00000000000E+00 -0.74505805969E-08  0.93827000000E+00  0.93827000000E+00 0.  1.
     999902    2    1    2    0    0  0.24679163762E-02  0.34811237858E-03  0.13798572746E-01  0.10299081455E+01  0.10298126897E+01 0.  0.
     999903    2    3    3    0    0 -0.19860879927E-01 -0.78400527899E-01  0.10687562246E+00  0.14122189004E+00  0.44498609226E-01 0.  0.
         14    1    1    2    0    0 -0.24679163762E-02 -0.34811237858E-03 -0.13798572746E-01  0.14021854488E-01  0.00000000000E+00 0.  1.
     999901    1    3    3    0    0  0.22328796304E-01  0.78748640277E-01 -0.93077049713E-01  0.88868625548E+00  0.88000000000E+00 0.  1.
        -11    1    4    4    0    0 -0.27268013566E-01 -0.45577823004E-01  0.87588077877E-01  0.10243444255E+00  0.51100000000E-03 0.  1.
         11    1    4    4    0    0  0.74071336382E-02 -0.32822704895E-01  0.19287544581E-01  0.38787447484E-01  0.51100000000E-03 0. -1.
</event>
<event>
 8    1  0.2922807E+004  0.1043930E+01  0.7957747E-01            NaN
         13   -1    0    0    0    0  0.00000000000E+00  0.00000000000E+00  0.74505805969E-08  0.10566000000E+00  0.10566000000E+00 0.  1.
     999900   -1    0    0    0    0 -0.00000000000E+00 -0.00000000000E+00 -0.74505805969E-08  0.93827000000E+00  0.93827000000E+00 0. -1.
     999902    2    1    2    0    0  0.60165225178E-02  0.57706128238E-02  0.10753074679E-01  0.10303238569E+01  0.10302340137E+01 0.  0.
     999903    2    3    3    0    0  0.89745866391E-01  0.96818258325E-01 -0.21802024886E-01  0.14107692195E+00  0.44713241193E-01 0.  0.
         14    1    1    2    0    0 -0.60165225178E-02 -0.57706128238E-02 -0.10753074679E-01  0.13606143121E-01  0.00000000000E+00 0. -1.
     999901    1    3    3    0    0 -0.83729343873E-01 -0.91047645501E-01  0.32555099565E-01  0.88924693493E+00  0.88000000000E+00 0. -1.
        -11    1    4    4    0    0  0.80438739227E-01  0.61040942697E-01 -0.24814671688E-01  0.10398277023E+00  0.51100000000E-03 0. -1.
         11    1    4    4    0    0  0.93071271640E-02  0.35777315627E-01  0.30126468022E-02  0.37094151713E-01  0.51100000000E-03 0.  1.
</event>
<event>
 8    1  0.2922807E+004  0.1043930E+01  0.7957747E-01            NaN
         13   -1    0    0    0    0  0.00000000000E+00  0.00000000000E+00  0.74505805969E-08  0.10566000000E+00  0.10566000000E+00 0.  1.
     999900   -1    0    0    0    0 -0.00000000000E+00 -0.00000000000E+00 -0.74505805969E-08  0.93827000000E+00  0.93827000000E+00 0. -1.
     999902    2    1    2    0    0  0.50464965777E-02  0.85507560350E-02  0.77953194456E-02  0.10313066264E+01  0.10312293673E+01 0.  0.
     999903    2    3    3    0    0  0.11242434424E+00 -0.55101937588E-01  0.48024798963E-01  0.14158752542E+00  0.45444354292E-01 0.  0.
         14    1    1    2    0    0 -0.50464965777E-02 -0.85507560350E-02 -0.77953194456E-02  0.12623373627E-01  0.00000000000E+00 0. -1.
     999901    1    3    3    0    0 -0.10737784766E+00  0.63652693623E-01 -0.40229479517E-01  0.88971910095E+00  0.88000000000E+00 0. -1.
        -11    1    4    4    0    0  0.25584405732E-01 -0.35942118075E-01  0.12853160293E-01  0.45955005373E-01  0.51100000000E-03 0. -1.
         11    1    4    4    0    0  0.86839938504E-01 -0.19159819513E-01  0.35171638670E-01  0.95632520049E-01  0.51100000000E-03 0.  1.
</event>
<event>
 8    1  0.2922807E+004  0.1043930E+01  0.7957747E-01            NaN
         13   -1    0    0    0    0  0.00000000000E+00  0.00000000000E+00  0.74505805969E-08  0.10566000000E+00  0.10566000000E+00 0.  1.
     999900   -1    0    0    0    0 -0.00000000000E+00 -0.00000000000E+00 -0.74505805969E-08  0.93827000000E+00  0.93827000000E+00 0. -1.
     999902    2    1    2    0    0 -0.13668353154E-01  0.52803286433E-02  0.39392687402E-02  0.10287568795E+01  0.10286449793E+01 0.  0.
     999903    2    3    3    0    0 -0.12802914263E-01 -0.30175158357E-01 -0.12613934230E+00  0.13848822024E+00  0.46833734360E-01 0.  0.
         14    1    1    2    0    0  0.13668353154E-01 -0.52803286433E-02 -0.39392687402E-02  0.15173120533E-01  0.00000000000E+00 0.  1.
     999901    1    3    3    0    0 -0.86543889037E-03  0.35455487001E-01  0.13007861104E+00  0.89026865922E+00  0.88000000000E+00 0.  1.
        -11    1    4    4    0    0  0.11994682373E-01 -0.28919640550E-01 -0.57164195832E-01  0.65178404559E-01  0.51100000000E-03 0. -1.
         11    1    4    4    0    0 -0.24797596637E-01 -0.12555178069E-02 -0.68975146472E-01  0.73309815685E-01  0.51100000000E-03 0.  1.
</event>
<event>
 8    1  0.2922807E+004  0.1043930E+01  0.7957747E-01            NaN
         13   -1    0    0    0    0  0.00000000000E+00  0.00000000000E+00  0.74505805969E-08  0.10566000000E+00  0.10566000000E+00 0.  1.
     999900   -1    0    0    0    0 -0.00000000000E+00 -0.00000000000E+00 -0.74505805969E-08  0.93827000000E+00  0.93827000000E+00 0. -1.
     999902    2    1    2    0    0 -0.23704188438E-02  0.13076248883E-01 -0.19164872196E-02  0.10305031577E+01  0.10304156821E+01 0.  0.
     999903    2    3    3    0    0  0.12251398211E-01 -0.10968598786E+00 -0.70058737316E-01  0.13925250243E+00  0.47978329151E-01 0.  0.
         14    1    1    2    0    0  0.23704188438E-02 -0.13076248883E-01  0.19164872196E-02  0.13426842280E-01  0.00000000000E+00 0.  1.
     999901    1    3    3    0    0 -0.14621817055E-01  0.12276223674E+00  0.68142250097E-01  0.89125065529E+00  0.88000000000E+00 0.  1.
        -11    1    4    4    0    0 -0.18178642357E-01 -0.52573325230E-01 -0.32458775429E-01  0.64406915677E-01  0.51100000000E-03 0.  1.
         11    1    4    4    0    0  0.30430040569E-01 -0.57112662630E-01 -0.37599961887E-01  0.74845586754E-01  0.51100000000E-03 0. -1.
</event>
<event>
 8    1  0.2922807E+004  0.1043930E+01  0.7957747E-01            NaN
         13   -1    0    0    0    0  0.00000000000E+00  0.00000000000E+00  0.74505805969E-08  0.10566000000E+00  0.10566000000E+00 0.  1.
     999900   -1    0    0    0    0 -0.00000000000E+00 -0.00000000000E+00 -0.74505805969E-08  0.93827000000E+00  0.93827000000E+00 0. -1.
     999902    2    1    2    0    0  0.12057251588E-01  0.64278541130E-02  0.17746281808E-02  0.10301516137E+01  0.10300594659E+01 0.  0.
     999903    2    3    3    0    0 -0.70826339124E-01  0.10753442146E+00 -0.31372589658E-01  0.13987583303E+00  0.44732395100E-01 0.  0.
         14    1    1    2    0    0 -0.12057251588E-01 -0.64278541130E-02 -0.17746281808E-02  0.13778386318E-01  0.00000000000E+00 0. -1.
     999901    1    3    3    0    0  0.82883590712E-01 -0.10110656734E+00  0.33147217839E-01  0.89027578065E+00  0.88000000000E+00 0.  1.
        -11    1    4    4    0    0 -0.32076474040E-01  0.19131557118E-01  0.28595702875E-02  0.37461379150E-01  0.51100000000E-03 0. -1.
         11    1    4    4    0    0 -0.38749865085E-01  0.88402864340E-01 -0.34232159946E-01  0.10241445388E+00  0.51100000000E-03 0.  1.
</event>
<event>
 8    1  0.2922807E+004  0.1043930E+01  0.7957747E-01            NaN
         13   -1    0    0    0    0  0.00000000000E+00  0.00000000000E+00  0.74505805969E-08  0.10566000000E+00  0.10566000000E+00 0. -1.
     999900   -1    0    0    0    0 -0.00000000000E+00 -0.00000000000E+00 -0.74505805969E-08  0.93827000000E+00  0.93827000000E+00 0. -1.
     999902    2    1    2    0    0  0.11918219134E-01 -0.57164579218E-02  0.94855289089E-02  0.10276604857E+01  0.10275316913E+01 0.  0.
     999903    2    3    3    0    0  0.29810371479E-01 -0.39201558965E-01  0.12261225698E+00  0.13960697504E+00  0.45065745800E-01 0.  0.
         14    1    1    2    0    0 -0.11918219134E-01  0.57164579218E-02 -0.94855289089E-02  0.16269514349E-01  0.00000000000E+00 0. -1.
     999901    1    3    3    0    0 -0.17892152345E-01  0.33485101043E-01 -0.11312672807E+00  0.88805351061E+00  0.88000000000E+00 0. -1.
        -11    1    4    4    0    0  0.33369668413E-01 -0.72387575766E-02  0.55103138833E-01  0.64827088562E-01  0.51100000000E-03 0.  1.
         11    1    4    4    0    0 -0.35592969341E-02 -0.31962801388E-01  0.67509118147E-01  0.74779886476E-01  0.51100000000E-03 0. -1.
</event>
<event>
 8    1  0.2922807E+004  0.1043930E+01  0.7957747E-01            NaN
         13   -1    0    0    0    0  0.00000000000E+00  0.00000000000E+00  0.74505805969E-08  0.10566000000E+00  0.10566000000E+00 0.  1.
     999900   -1    0    0    0    0 -0.00000000000E+00 -0.00000000000E+00 -0.74505805969E-08  0.93827000000E+00  0.93827000000E+00 0.  1.
     999902    2    1    2    0    0 -0.79955740238E-02  0.54707181903E-02  0.10388151812E-01  0.10297253649E+01  0.10296273867E+01 0.  0.
     999903    2    3    3    0    0  0.31271557154E-01  0.45298927299E-01 -0.11808106533E+00  0.13864033323E+00  0.47414142503E-01 0.  0.
         14    1    1    2    0    0  0.79955740238E-02 -0.54707181903E-02 -0.10388151812E-01  0.14204635144E-01  0.00000000000E+00 0. -1.
     999901    1    3    3    0    0 -0.39267131178E-01 -0.39828209109E-01  0.12846921714E+00  0.89108503162E+00  0.88000000000E+00 0. -1.
        -11    1    4    4    0    0  0.27220614686E-02  0.89353819343E-02 -0.74559677091E-01  0.75144242879E-01  0.51100000000E-03 0.  1.
         11    1    4    4    0    0  0.28549495685E-01  0.36363545365E-01 -0.43521388235E-01  0.63496090354E-01  0.51100000000E-03 0. -1.
</event>
<event>
 7    1  0.2922807E+004  0.1043930E+01  0.7957747E-01            NaN
         13   -1    0    0    0    0  0.00000000000E+00  0.00000000000E+00  0.74505805969E-08  0.10566000000E+00  0.10566000000E+00 0.  1.
     999900   -1    0    0    0    0 -0.00000000000E+00 -0.00000000000E+00 -0.74505805969E-08  0.93827000000E+00  0.93827000000E+00 0. -1.
     999903    2    1    2    0    0  0.81224352256E-01 -0.70399144894E-01 -0.79099790115E-03  0.11671845030E+00  0.45487756160E-01 0.  0.
         14    1    1    2    0    0 -0.35876959670E-01  0.22800320263E-01  0.13708637154E-01  0.44664724021E-01  0.00000000000E+00 0.  1.
     999901    1    1    2    0    0 -0.45347392586E-01  0.47598824631E-01 -0.12917639253E-01  0.88254682568E+00  0.88000000000E+00 0. -1.
        -11    1    3    3    0    0  0.59048601668E-01 -0.69676790212E-01  0.10291648752E-01  0.91911759902E-01  0.51100000000E-03 0.  1.
         11    1    3    3    0    0  0.22175750588E-01 -0.72235468137E-03 -0.11082646653E-01  0.24806690393E-01  0.51100000000E-03 0. -1.
</event>
<event>
 8    1  0.2922807E+004  0.1043930E+01  0.7957747E-01            NaN
         13   -1    0    0    0    0  0.00000000000E+00  0.00000000000E+00  0.74505805969E-08  0.10566000000E+00  0.10566000000E+00 0.  1.
     999900   -1    0    0    0    0 -0.00000000000E+00 -0.00000000000E+00 -0.74505805969E-08  0.93827000000E+00  0.93827000000E+00 0.  1.
     999902    2    1    2    0    0 -0.13494647514E-01 -0.43167258805E-02 -0.31301097382E-02  0.10294200992E+01  0.10293178340E+01 0.  0.
     999903    2    3    3    0    0  0.61660133346E-01 -0.51404267114E-01 -0.10441546315E+00  0.13918181626E+00  0.44995758795E-01 0.  0.
         14    1    1    2    0    0  0.13494647514E-01  0.43167258805E-02  0.31301097382E-02  0.14509900786E-01  0.00000000000E+00 0.  1.
     999901    1    3    3    0    0 -0.75154780860E-01  0.47087541233E-01  0.10128535341E+00  0.89023828296E+00  0.88000000000E+00 0. -1.
        -11    1    4    4    0    0  0.58599351742E-01 -0.30745902271E-01 -0.96134326612E-01  0.11671017267E+00  0.51100000000E-03 0. -1.
         11    1    4    4    0    0  0.30607816042E-02 -0.20658364843E-01 -0.82811365404E-02  0.22471643585E-01  0.51100000000E-03 0.  1.
</event>
<event>
 8    1  0.2922807E+004  0.1043930E+01  0.7957747E-01            NaN
         13   -1    0    0    0    0  0.00000000000E+00  0.00000000000E+00  0.74505805969E-08  0.10566000000E+00  0.10566000000E+00 0.  1.
     999900   -1    0    0    0    0 -0.00000000000E+00 -0.00000000000E+00 -0.74505805969E-08  0.93827000000E+00  0.93827000000E+00 0.  1.
     999902    2    1    2    0    0 -0.10178127208E-01 -0.82549961099E-02  0.45687884670E-02  0.10300514892E+01  0.10299579881E+01 0.  0.
     999903    2    3    3    0    0  0.36531447247E-01 -0.31967098246E-01 -0.12275729529E+00  0.13934616208E+00  0.44626867838E-01 0.  0.
         14    1    1    2    0    0  0.10178127208E-01  0.82549961099E-02 -0.45687884670E-02  0.13878510810E-01  0.00000000000E+00 0. -1.
     999901    1    3    3    0    0 -0.46709574455E-01  0.23712102136E-01  0.12732608375E+00  0.89070532711E+00  0.88000000000E+00 0. -1.
        -11    1    4    4    0    0  0.42945622836E-01 -0.18273404908E-01 -0.67575129552E-01  0.82127359039E-01  0.51100000000E-03 0. -1.
         11    1    4    4    0    0 -0.64141755887E-02 -0.13693693337E-01 -0.55182165734E-01  0.57218803044E-01  0.51100000000E-03 0.  1.
</event>
<event>
 8    1  0.2922807E+004  0.1043930E+01  0.7957747E-01            NaN
         13   -1    0    0    0    0  0.00000000000E+00  0.00000000000E+00  0.74505805969E-08  0.10566000000E+00  0.10566000000E+00 0. -1.
     999900   -1    0    0    0    0 -0.00000000000E+00 -0.00000000000E+00 -0.74505805969E-08  0.93827000000E+00  0.93827000000E+00 0.  1.
     999902    2    1    2    0    0  0.17341585518E-02 -0.12939076438E-01 -0.28504335218E-02  0.10305676658E+01  0.10304810342E+01 0.  0.
     999903    2    3    3    0    0 -0.72195762655E-01 -0.82792607592E-01 -0.77290623391E-01  0.14158707490E+00  0.44790794786E-01 0.  0.
         14    1    1    2    0    0 -0.17341585518E-02  0.12939076438E-01  0.28504335218E-02  0.13362334236E-01  0.00000000000E+00 0.  1.
     999901    1    3    3    0    0  0.73929921207E-01  0.69853531154E-01  0.74440189870E-01  0.88898059086E+00  0.88000000000E+00 0. -1.
        -11    1    4    4    0    0 -0.57330746278E-01 -0.84365175427E-01 -0.58559228150E-01  0.11761692742E+00  0.51100000000E-03 0. -1.
         11    1    4    4    0    0 -0.14865016377E-01  0.15725678353E-02 -0.18731395241E-01  0.23970147479E-01  0.51100000000E-03 0.  1.
</event>
<event>
 8    1  0.2922807E+004  0.1043930E+01  0.7957747E-01            NaN
         13   -1    0    0    0    0  0.00000000000E+00  0.00000000000E+00  0.74505805969E-08  0.10566000000E+00  0.10566000000E+00 0. -1.
     999900   -1    0    0    0    0 -0.00000000000E+00 -0.00000000000E+00 -0.74505805969E-08  0.93827000000E+00  0.93827000000E+00 0.  1.
     999902    2    1    2    0    0  0.86613860637E-02 -0.11721941241E-01 -0.22702709564E-02  0.10291794866E+01  0.10290737768E+01 0.  0.
     999903    2    3    3    0    0  0.87964211036E-01  0.18081008551E-01 -0.97312222325E-01  0.14001688822E+00  0.45502033789E-01 0.  0.
         14    1    1    2    0    0 -0.86613860637E-02  0.11721941241E-01  0.22702709564E-02  0.14750513388E-01  0.00000000000E+00 0.  1.
     999901    1    3    3    0    0 -0.79302824972E-01 -0.29802949792E-01  0.95041951368E-01  0.88916259840E+00  0.88000000000E+00 0. -1.
        -11    1    4    4    0    0  0.59291522136E-01  0.32996023400E-01 -0.72217599020E-01  0.99095231402E-01  0.51100000000E-03 0. -1.
         11    1    4    4    0    0  0.28672688900E-01 -0.14915014849E-01 -0.25094623304E-01  0.40921656815E-01  0.51100000000E-03 0.  1.
</event>
<event>
 8    1  0.2922807E+004  0.1043930E+01  0.7957747E-01            NaN
         13   -1    0    0    0    0  0.00000000000E+00  0.00000000000E+00  0.74505805969E-08  0.10566000000E+00  0.10566000000E+00 0. -1.
     999900   -1    0    0    0    0 -0.00000000000E+00 -0.00000000000E+00 -0.74505805969E-08  0.93827000000E+00  0.93827000000E+00 0. -1.
     999902    2    1    2    0    0 -0.16311528197E-02 -0.67226020337E-02 -0.11762469940E-01  0.10302841311E+01  0.10301937590E+01 0.  0.
     999903    2    3    3    0    0 -0.32606747969E-01 -0.17319302335E-01 -0.12570095508E+00  0.14233494569E+00  0.55635855442E-01 0.  0.
         14    1    1    2    0    0  0.16311528197E-02  0.67226020337E-02  0.11762469940E-01  0.13645868852E-01  0.00000000000E+00 0. -1.
     999901    1    3    3    0    0  0.30975595149E-01  0.10596700301E-01  0.11393848514E+00  0.88794918545E+00  0.88000000000E+00 0.  1.
        -11    1    4    4    0    0 -0.72376841100E-02 -0.33131407442E-01 -0.87374505930E-01  0.93726408434E-01  0.51100000000E-03 0. -1.
         11    1    4    4    0    0 -0.25369063859E-01  0.15812105107E-01 -0.38326449152E-01  0.48608537261E-01  0.51100000000E-03 0.  1.
</event>
<event>
 8    1  0.2922807E+004  0.1043930E+01  0.7957747E-01            NaN
         13   -1    0    0    0    0  0.00000000000E+00  0.00000000000E+00  0.74505805969E-08  0.10566000000E+00  0.10566000000E+00 0.  1.
     999900   -1    0    0    0    0 -0.00000000000E+00 -0.00000000000E+00 -0.74505805969E-08  0.93827000000E+00  0.93827000000E+00 0.  1.
     999902    2    1    2    0    0  0.76265558200E-02 -0.10074826527E-01 -0.64917412723E-02  0.10297240439E+01  0.10296260474E+01 0.  0.
     999903    2    3    3    0    0  0.10212953760E+00 -0.63490696741E-01  0.58040294452E-01  0.14070860402E+00  0.44370310363E-01 0.  0.
         14    1    1    2    0    0 -0.76265558200E-02  0.10074826527E-01  0.64917412723E-02  0.14205956074E-01  0.00000000000E+00 0. -1.
     999901    1    3    3    0    0 -0.94502981783E-01  0.53415870214E-01 -0.64532035724E-01  0.88901543991E+00  0.88000000000E+00 0.  1.
        -11    1    4    4    0    0  0.54952893901E-01 -0.28991160061E-01  0.59505693747E-02  0.62417772362E-01  0.51100000000E-03 0. -1.
         11    1    4    4    0    0  0.47176643702E-01 -0.34499536680E-01  0.52089725077E-01  0.78290831658E-01  0.51100000000E-03 0.  1.
</event>
<event>
 8    1  0.2922807E+004  0.1043930E+01  0.7957747E-01            NaN
         13   -1    0    0    0    0  0.00000000000E+00  0.00000000000E+00  0.74505805969E-08  0.10566000000E+00  0.10566000000E+00 0.  1.
     999900   -1    0    0    0    0 -0.00000000000E+00 -0.00000000000E+00 -0.74505805969E-08  0.93827000000E+00  0.93827000000E+00 0.  1.
     999902    2    1    2    0    0  0.83679675000E-03  0.11615085362E-01  0.73197860034E-02  0.10301753752E+01  0.10300835471E+01 0.  0.
     999903    2    3    3    0    0 -0.82266305393E-01 -0.45722543021E-01  0.93714359558E-01  0.14019911058E+00  0.44890015334E-01 0.  0.
         14    1    1    2    0    0 -0.83679675000E-03 -0.11615085362E-01 -0.73197860034E-02  0.13754624819E-01  0.00000000000E+00 0. -1.
     999901    1    3    3    0    0  0.83103102143E-01  0.57337628383E-01 -0.86394573554E-01  0.88997626460E+00  0.88000000000E+00 0. -1.
        -11    1    4    4    0    0 -0.30611334274E-01 -0.15643906166E-01  0.73371344883E-02  0.35155088531E-01  0.51100000000E-03 0. -1.
         11    1    4    4    0    0 -0.51654971119E-01 -0.30078636855E-01  0.86377225069E-01  0.10504402205E+00  0.51100000000E-03 0.  1.
</event>
<event>
 8    1  0.2922807E+004  0.1043930E+01  0.7957747E-01            NaN
         13   -1    0    0    0    0  0.00000000000E+00  0.00000000000E+00  0.74505805969E-08  0.10566000000E+00  0.10566000000E+00 0.  1.
     999900   -1    0    0    0    0 -0.00000000000E+00 -0.00000000000E+00 -0.74505805969E-08  0.93827000000E+00  0.93827000000E+00 0. -1.
     999902    2    1    2    0    0 -0.80567837038E-02  0.78104413271E-02  0.81300256735E-02  0.10300731578E+01  0.10299799505E+01 0.  0.
     999903    2    3    3    0    0 -0.10352205484E+00  0.83613693041E-01 -0.12161104963E-01  0.14143854173E+00  0.46356262902E-01 0.  0.
         14    1    1    2    0    0  0.80567837038E-02 -0.78104413271E-02 -0.81300256735E-02  0.13856842166E-01  0.00000000000E+00 0. -1.
     999901    1    3    3    0    0  0.95465271132E-01 -0.75803251714E-01  0.20291130636E-01  0.88863461611E+00  0.88000000000E+00 0.  1.
        -11    1    4    4    0    0 -0.28600597912E-01  0.48488430870E-01  0.63221707353E-02  0.56651152618E-01  0.51100000000E-03 0. -1.
         11    1    4    4    0    0 -0.74921456924E-01  0.35125262171E-01 -0.18483275698E-01  0.84787389108E-01  0.51100000000E-03 0.  1.
</event>
<event>
 8    1  0.2922807E+004  0.1043930E+01  0.7957747E-01            NaN
         13   -1    0    0    0    0  0.00000000000E+00  0.00000000000E+00  0.74505805969E-08  0.10566000000E+00  0.10566000000E+00 0.  1.
     999900   -1    0    0    0    0 -0.00000000000E+00 -0.00000000000E+00 -0.74505805969E-08  0.93827000000E+00  0.93827000000E+00 0. -1.
     999902    2    1    2    0    0  0.13298118361E-02  0.35348842876E-02  0.13391351110E-01  0.10300162625E+01  0.10299222830E+01 0.  0.
     999903    2    3    3    0    0  0.80000691686E-01  0.34090933367E-01 -0.97541679015E-01  0.13904549046E+00  0.47507545339E-01 0.  0.
         14    1    1    2    0    0 -0.13298118361E-02 -0.35348842876E-02 -0.13391351110E-01  0.13913737492E-01  0.00000000000E+00 0. -1.
     999901    1    3    3    0    0 -0.78670879850E-01 -0.30556049079E-01  0.11093303012E+00  0.89097077205E+00  0.88000000000E+00 0.  1.
        -11    1    4    4    0    0  0.68856765214E-01  0.43415656066E-01 -0.67799402537E-01  0.10593957435E+00  0.51100000000E-03 0. -1.
         11    1    4    4    0    0  0.11143926472E-01 -0.93247226988E-02 -0.29742276477E-01  0.33105916113E-01  0.51100000000E-03 0.  1.
</event>
<event>
 8    1  0.2922807E+004  0.1043930E+01  0.7957747E-01            NaN
         13   -1    0    0    0    0  0.00000000000E+00  0.00000000000E+00  0.74505805969E-08  0.10566000000E+00  0.10566000000E+00 0. -1.
     999900   -1    0    0    0    0 -0.00000000000E+00 -0.00000000000E+00 -0.74505805969E-08  0.93827000000E+00  0.93827000000E+00 0. -1.
     999902    2    1    2    0    0  0.13434338249E-03  0.12734417566E-01 -0.55601364695E-02  0.10300340093E+01  0.10299402710E+01 0.  0.
     999903    2    3    3    0    0  0.28244858330E-01 -0.71549172037E-01 -0.10801895392E+00  0.13964547965E+00  0.43768819256E-01 0.  0.
         14    1    1    2    0    0 -0.13434338249E-03 -0.12734417566E-01  0.55601364695E-02  0.13895990661E-01  0.00000000000E+00 0. -1.
     999901    1    3    3    0    0 -0.28110514947E-01  0.84283589604E-01  0.10245881745E+00  0.89038852969E+00  0.88000000000E+00 0.  1.
        -11    1    4    4    0    0  0.15539712148E-01 -0.13750750462E-01 -0.59826207904E-01  0.63324577101E-01  0.51100000000E-03 0.  1.
         11    1    4    4    0    0  0.12705146181E-01 -0.57798421575E-01 -0.48192746019E-01  0.76320902549E-01  0.51100000000E-03 0. -1.
</event>
<event>
 8    1  0.2922807E+004  0.1043930E+01  0.7957747E-01            NaN
         13   -1    0    0    0    0  0.00000000000E+00  0.00000000000E+00  0.74505805969E-08  0.10566000000E+00  0.10566000000E+00 0.  1.
     999900   -1    0    0    0    0 -0.00000000000E+00 -0.00000000000E+00 -0.74505805969E-08  0.93827000000E+00  0.93827000000E+00 0.  1.
     999902    2    1    2    0    0  0.24661617288E-02 -0.11517676432E-01 -0.17851444402E-01  0.10225427867E+01  0.10223190978E+01 0.  0.
     999903    2    3    3    0    0 -0.32284411070E-01 -0.10174235321E+00 -0.70699021766E-01  0.13567134112E+00  0.44883978080E-01 0.  0.
         14    1    1    2    0    0 -0.24661617288E-02  0.11517676432E-01  0.17851444402E-01  0.21387213267E-01  0.00000000000E+00 0.  1.
     999901    1    3    3    0    0  0.34750572799E-01  0.90224676777E-01  0.52847577364E-01  0.88687144561E+00  0.88000000000E+00 0.  1.
        -11    1    4    4    0    0 -0.32541765426E-01 -0.33395635358E-01 -0.20880010670E-01  0.51092767831E-01  0.51100000000E-03 0.  1.
         11    1    4    4    0    0  0.25735435603E-03 -0.68346717851E-01 -0.49819011096E-01  0.84578573290E-01  0.51100000000E-03 0. -1.
</event>
<event>
 8    1  0.2922807E+004  0.1043930E+01  0.7957747E-01            NaN
         13   -1    0    0    0    0  0.00000000000E+00  0.00000000000E+00  0.74505805969E-08  0.10566000000E+00  0.10566000000E+00 0. -1.
     999900   -1    0    0    0    0 -0.00000000000E+00 -0.00000000000E+00 -0.74505805969E-08  0.93827000000E+00  0.93827000000E+00 0.  1.
     999902    2    1    2    0    0  0.13506703808E-01 -0.22181609218E-02  0.34351819957E-03  0.10302380575E+01  0.10301470700E+01 0.  0.
     999903    2    3    3    0    0  0.12716659563E+00  0.19405687384E-01 -0.39969058661E-01  0.14174986639E+00  0.44131340607E-01 0.  0.
         14    1    1    2    0    0 -0.13506703808E-01  0.22181609218E-02 -0.34351819957E-03  0.13691942535E-01  0.00000000000E+00 0. -1.
     999901    1    3    3    0    0 -0.11365989183E+00 -0.21623848306E-01  0.40312576860E-01  0.88848819107E+00  0.88000000000E+00 0. -1.
        -11    1    4    4    0    0  0.48495618337E-01  0.28174415458E-01 -0.23939176212E-01  0.60983341685E-01  0.51100000000E-03 0.  1.
         11    1    4    4    0    0  0.78670977296E-01 -0.87687280741E-02 -0.16029882449E-01  0.80766524706E-01  0.51100000000E-03 0. -1.
</event>
<event>
 8    1  0.2922807E+004  0.1043930E+01  0.7957747E-01            NaN
         13   -1    0    0    0    0  0.00000000000E+00  0.00000000000E+00  0.74505805969E-08  0.10566000000E+00  0.10566000000E+00 0. -1.
     999900   -1    0    0    0    0 -0.00000000000E+00 -0.00000000000E+00 -0.74505805969E-08  0.93827000000E+00  0.93827000000E+00 0.  1.
     999902    2    1    2    0    0  0.76525616310E-02  0.88054947349E-02 -0.24785863663E-02  0.10320034822E+01  0.10319345645E+01 0.  0.
     999903    2    3    3    0    0  0.51749197231E-01  0.39258716853E-01  0.12069310360E+00  0.14181070686E+00  0.36389903299E-01 0.  0.
         14    1    1    2    0    0 -0.76525616310E-02 -0.88054947349E-02  0.24785863663E-02  0.11926517824E-01  0.00000000000E+00 0. -1.
     999901    1    3    3    0    0 -0.44096635600E-01 -0.30453222118E-01 -0.12317168996E+00  0.89019277531E+00  0.88000000000E+00 0.  1.
        -11    1    4    4    0    0  0.50124759001E-01  0.30686740035E-01  0.74983113108E-01  0.95272744535E-01  0.51100000000E-03 0. -1.
         11    1    4    4    0    0  0.16244382305E-02  0.85719768181E-02  0.45709990490E-01  0.46537962329E-01  0.51100000000E-03 0.  1.
</event>
<event>
 8    1  0.2922807E+004  0.1043930E+01  0.7957747E-01            NaN
         13   -1    0    0    0    0  0.00000000000E+00  0.00000000000E+00  0.74505805969E-08  0.10566000000E+00  0.10566000000E+00 0.  1.
     999900   -1    0    0    0    0 -0.00000000000E+00 -0.00000000000E+00 -0.74505805969E-08  0.93827000000E+00  0.93827000000E+00 0.  1.
     999902    2    1    2    0    0 -0.21773565950E-02  0.12846964848E-01 -0.52794430443E-03  0.10308891368E+01  0.10308066493E+01 0.  0.
     999903    2    3    3    0    0  0.66382242561E-01  0.99575985696E-01  0.61230777927E-01  0.14182418898E+00  0.45198599079E-01 0.  0.
         14    1    1    2    0    0  0.21773565950E-02 -0.12846964848E-01  0.52794430443E-03  0.13040863190E-01  0.00000000000E+00 0. -1.
     999901    1    3    3    0    0 -0.68559599156E-01 -0.86729020848E-01 -0.61758722231E-01  0.88906494783E+00  0.88000000000E+00 0.  1.
        -11    1    4    4    0    0  0.15363178447E-01  0.12744998537E-01 -0.58619530769E-02  0.20810714898E-01  0.51100000000E-03 0.  1.
         11    1    4    4    0    0  0.51019064114E-01  0.86830987159E-01  0.67092731004E-01  0.12101347408E+00  0.51100000000E-03 0. -1.
</event>
<event>
 8    1  0.2922807E+004  0.1043930E+01  0.7957747E-01            NaN
         13   -1    0    0    0    0  0.00000000000E+00  0.00000000000E+00  0.74505805969E-08  0.10566000000E+00  0.10566000000E+00 0.  1.
     999900   -1    0    0    0    0 -0.00000000000E+00 -0.00000000000E+00 -0.74505805969E-08  0.93827000000E+00  0.93827000000E+00 0.  1.
     999902    2    1    2    0    0  0.45549452806E-02 -0.11888620936E-02 -0.12241195679E-01  0.10308148259E+01  0.10307313896E+01 0.  0.
     999903    2    3    3    0    0 -0.96456160750E-01 -0.85675879574E-01  0.30836857934E-01  0.13997420136E+00  0.44695838181E-01 0.  0.
         14    1    1    2    0    0 -0.45549452806E-02  0.11888620936E-02  0.12241195679E-01  0.13115174083E-01  0.00000000000E+00 0.  1.
     999901    1    3    3    0    0  0.10101110603E+00  0.84487017480E-01 -0.43078053612E-01  0.89084062456E+00  0.88000000000E+00 0.  1.
        -11    1    4    4    0    0 -0.24654377210E-01 -0.50824111241E-01  0.16788093048E-01  0.58932417126E-01  0.51100000000E-03 0.  1.
         11    1    4    4    0    0 -0.71801783540E-01 -0.34851768333E-01  0.14048764885E-01  0.81041784231E-01  0.51100000000E-03 0. -1.
</event>
<event>
 8    1  0.2922807E+004  0.1043930E+01  0.7957747E-01            NaN
         13   -1    0    0    0    0  0.00000000000E+00  0.00000000000E+00  0.74505805969E-08  0.10566000000E+00  0.10566000000E+00 0. -1.
     999900   -1    0    0    0    0 -0.00000000000E+00 -0.00000000000E+00 -0.74505805969E-08  0.93827000000E+00  0.93827000000E+00 0. -1.
     999902    2    1    2    0    0 -0.10099773519E-01  0.41457642246E-02 -0.36775256710E-02  0.10324097144E+01  0.10323454370E+01 0.  0.
     999903    2    3    3    0    0 -0.11398189345E+00  0.52435432844E-01  0.52185929222E-01  0.14322800485E+00  0.45271884338E-01 0.  0.
         14    1    1    2    0    0  0.10099773519E-01 -0.41457642246E-02  0.36775256710E-02  0.11520285639E-01  0.00000000000E+00 0. -1.
     999901    1    3    3    0    0  0.10388211993E+00 -0.48289668619E-01 -0.55863454893E-01  0.88918170951E+00  0.88000000000E+00 0. -1.
        -11    1    4    4    0    0 -0.38113519498E-01 -0.45876732437E-02  0.12790350642E-01  0.40466545501E-01  0.51100000000E-03 0.  1.
         11    1    4    4    0    0 -0.75868373956E-01  0.57023106087E-01  0.39395578581E-01  0.10276145935E+00  0.51100000000E-03 0. -1.
</event>
<event>
 8    1  0.2922807E+004  0.1043930E+01  0.7957747E-01            NaN
         13   -1    0    0    0    0  0.00000000000E+00  0.00000000000E+00  0.74505805969E-08  0.10566000000E+00  0.10566000000E+00 0. -1.
     999900   -1    0    0    0    0 -0.00000000000E+00 -0.00000000000E+00 -0.74505805969E-08  0.93827000000E+00  0.93827000000E+00 0.  1.
     999902    2    1    2    0    0 -0.79551684369E-02  0.54228981774E-02  0.12106352528E-01  0.10284620880E+01  0.10283457639E+01 0.  0.
     999903    2    3    3    0    0 -0.50515383094E-01  0.10672181445E+00 -0.58051345523E-01  0.13885827457E+00  0.44388197655E-01 0.  0.
         14    1    1    2    0    0  0.79551684369E-02 -0.54228981774E-02 -0.12106352528E-01  0.15467911980E-01  0.00000000000E+00 0. -1.
     999901    1    3    3    0    0  0.42560214657E-01 -0.10129891627E+00  0.70157698051E-01  0.88960381345E+00  0.88000000000E+00 0. -1.
        -11    1    4    4    0    0  0.67477204441E-02  0.27925603240E-01 -0.13369752368E-01  0.31691993420E-01  0.51100000000E-03 0.  1.
         11    1    4    4    0    0 -0.57263103538E-01  0.78796211208E-01 -0.44681593154E-01  0.10716628115E+00  0.51100000000E-03 0. -1.
</event>
<event>
 8    1  0.2922807E+004  0.1043930E+01  0.7957747E-01            NaN
         13   -1    0    0    0    0  0.00000000000E+00  0.00000000000E+00  0.74505805969E-08  0.10566000000E+00  0.10566000000E+00 0. -1.
     999900   -1    0    0    0    0 -0.00000000000E+00 -0.00000000000E+00 -0.74505805969E-08  0.93827000000E+00  0.93827000000E+00 0. -1.
     999902    2    1    2    0    0 -0.74003271255E-02  0.10904978173E-01  0.24641116617E-02  0.10305227170E+01  0.10304354978E+01 0.  0.
     999903    2    3    3    0    0  0.10871740007E-01  0.82884967288E-01  0.10502383698E+00  0.14145945464E+00  0.44639202949E-01 0.  0.
         14    1    1    2    0    0  0.74003271255E-02 -0.10904978173E-01 -0.24641116617E-02  0.13407282976E-01  0.00000000000E+00 0.  1.
     999901    1    3    3    0    0 -0.18272067133E-01 -0.71979989115E-01 -0.10255972531E+00  0.88906326239E+00  0.88000000000E+00 0. -1.
        -11    1    4    4    0    0  0.87561150060E-02  0.26420280686E-01  0.76374639378E-02  0.28866810664E-01  0.51100000000E-03 0.  1.
         11    1    4    4    0    0  0.21156250014E-02  0.56464686602E-01  0.97386373039E-01  0.11259264397E+00  0.51100000000E-03 0. -1.
</event>
<event>
 8    1  0.2922807E+004  0.1043930E+01  0.7957747E-01            NaN
         13   -1    0    0    0    0  0.00000000000E+00  0.00000000000E+00  0.74505805969E-08  0.10566000000E+00  0.10566000000E+00 0. -1.
     999900   -1    0    0    0    0 -0.00000000000E+00 -0.00000000000E+00 -0.74505805969E-08  0.93827000000E+00  0.93827000000E+00 0.  1.
     999902    2    1    2    0    0 -0.70092275513E-02  0.11842169934E-01  0.49376303997E-02  0.10293099298E+01  0.10292060946E+01 0.  0.
     999903    2    3    3    0    0 -0.78546144237E-02  0.50720586386E-01  0.12301959446E+00  0.14057172524E+00  0.44635372374E-01 0.  0.
         14    1    1    2    0    0  0.70092275513E-02 -0.11842169934E-01 -0.49376303997E-02  0.14620070231E-01  0.00000000000E+00 0. -1.
     999901    1    3    3    0    0  0.84538687239E-03 -0.38878416452E-01 -0.11808196406E+00  0.88873820452E+00  0.88000000000E+00 0.  1.
        -11    1    4    4    0    0  0.45426485700E-02  0.54775014760E-01  0.99540577970E-01  0.11370807219E+00  0.51100000000E-03 0.  1.
         11    1    4    4    0    0 -0.12397262994E-01 -0.40544283741E-02  0.23479016487E-01  0.26863653053E-01  0.51100000000E-03 0. -1.
</event>
<event>
 8    1  0.2922807E+004  0.1043930E+01  0.7957747E-01            NaN
         13   -1    0    0    0    0  0.00000000000E+00  0.00000000000E+00  0.74505805969E-08  0.10566000000E+00  0.10566000000E+00 0. -1.
     999900   -1    0    0    0    0 -0.00000000000E+00 -0.00000000000E+00 -0.74505805969E-08  0.93827000000E+00  0.93827000000E+00 0. -1.
     999902    2    1    2    0    0 -0.11264953779E-01 -0.62556888544E-02  0.24773496838E-02  0.10308086400E+01  0.10307251245E+01 0.  0.
     999903    2    3    3    0    0 -0.45418081215E-01 -0.11712601288E+00  0.47322366422E-01  0.14206247805E+00  0.46486947762E-01 0.  0.
         14    1    1    2    0    0  0.11264953779E-01  0.62556888544E-02 -0.24773496838E-02  0.13121359996E-01  0.00000000000E+00 0. -1.
     999901    1    3    3    0    0  0.34153127436E-01  0.11087032402E+00 -0.44845016739E-01  0.88874616195E+00  0.88000000000E+00 0.  1.
        -11    1    4    4    0    0 -0.57604863845E-02 -0.22890484629E-01 -0.90798325376E-02  0.25295493074E-01  0.51100000000E-03 0. -1.
         11    1    4    4    0    0 -0.39657594831E-01 -0.94235528247E-01  0.56402198960E-01  0.11676698498E+00  0.51100000000E-03 0.  1.
</event>
<event>
 8    1  0.2922807E+004  0.1043930E+01  0.7957747E-01            NaN
         13   -1    0    0    0    0  0.00000000000E+00  0.00000000000E+00  0.74505805969E-08  0.10566000000E+00  0.10566000000E+00 0.  1.
     999900   -1    0    0    0    0 -0.00000000000E+00 -0.00000000000E+00 -0.74505805969E-08  0.93827000000E+00  0.93827000000E+00 0. -1.
     999902    2    1    2    0    0 -0.26229074452E-02  0.18412064270E-01  0.32626558748E-02  0.10250480330E+01  0.10248741100E+01 0.  0.
     999903    2    3    3    0    0  0.64847397658E-01 -0.82937946728E-01 -0.68025725619E-01  0.13380951267E+00  0.46835866001E-01 0.  0.
         14    1    1    2    0    0  0.26229074452E-02 -0.18412064270E-01 -0.32626558748E-02  0.18881966993E-01  0.00000000000E+00 0. -1.
     999901    1    3    3    0    0 -0.67470305103E-01  0.10135001100E+00  0.71288381494E-01  0.89123852034E+00  0.88000000000E+00 0.  1.
        -11    1    4    4    0    0  0.13632709643E-01 -0.51239155199E-01 -0.19624499954E-01  0.56539224589E-01  0.51100000000E-03 0.  1.
         11    1    4    4    0    0  0.51214688016E-01 -0.31698791529E-01 -0.48401225665E-01  0.77270288079E-01  0.51100000000E-03 0. -1.
</event>
<event>
 8    1  0.2922807E+004  0.1043930E+01  0.7957747E-01            NaN
         13   -1    0    0    0    0  0.00000000000E+00  0.00000000000E+00  0.74505805969E-08  0.10566000000E+00  0.10566000000E+00 0. -1.
     999900   -1    0    0    0    0 -0.00000000000E+00 -0.00000000000E+00 -0.74505805969E-08  0.93827000000E+00  0.93827000000E+00 0.  1.
     999902    2    1    2    0    0 -0.39316826597E-02 -0.11582571575E-02 -0.13438744374E-01  0.10298801054E+01  0.10297842648E+01 0.  0.
     999903    2    3    3    0    0 -0.48294250336E-01  0.12241958973E+00  0.14661207960E-01  0.13969522068E+00  0.44507449896E-01 0.  0.
         14    1    1    2    0    0  0.39316826597E-02  0.11582571575E-02  0.13438744374E-01  0.14049894609E-01  0.00000000000E+00 0. -1.
     999901    1    3    3    0    0  0.44362567676E-01 -0.12357784689E+00 -0.28099952334E-01  0.89018488471E+00  0.88000000000E+00 0.  1.
        -11    1    4    4    0    0 -0.52481226927E-01  0.10046862957E+00  0.23318276278E-01  0.11572479353E+00  0.51100000000E-03 0.  1.
         11    1    4    4    0    0  0.41869765908E-02  0.21950960158E-01 -0.86570683181E-02  0.23970427149E-01  0.51100000000E-03 0. -1.
</event>
<event>
 8    1  0.2922807E+004  0.1043930E+01  0.7957747E-01            NaN
         13   -1    0    0    0    0  0.00000000000E+00  0.00000000000E+00  0.74505805969E-08  0.10566000000E+00  0.10566000000E+00 0. -1.
     999900   -1    0    0    0    0 -0.00000000000E+00 -0.00000000000E+00 -0.74505805969E-08  0.93827000000E+00  0.93827000000E+00 0.  1.
     999902    2    1    2    0    0 -0.39253902603E-02  0.82442459978E-02  0.10360973542E-01  0.10301196396E+01  0.10300270608E+01 0.  0.
     999903    2    3    3    0    0  0.12086180609E+00  0.51968512107E-01 -0.18748862229E-01  0.13976519428E+00  0.43295349347E-01 0.  0.
         14    1    1    2    0    0  0.39253902603E-02 -0.82442459978E-02 -0.10360973542E-01  0.13810360368E-01  0.00000000000E+00 0.  1.
     999901    1    3    3    0    0 -0.12478719635E+00 -0.43724266110E-01  0.29109835771E-01  0.89035444535E+00  0.88000000000E+00 0. -1.
        -11    1    4    4    0    0  0.41022276920E-01 -0.36657523997E-02 -0.56925594873E-02  0.41580419658E-01  0.51100000000E-03 0. -1.
         11    1    4    4    0    0  0.79839529170E-01  0.55634264507E-01 -0.13056302742E-01  0.98184774622E-01  0.51100000000E-03 0.  1.
</event>
<event>
 8    1  0.2922807E+004  0.1043930E+01  0.7957747E-01            NaN
         13   -1    0    0    0    0  0.00000000000E+00  0.00000000000E+00  0.74505805969E-08  0.10566000000E+00  0.10566000000E+00 0. -1.
     999900   -1    0    0    0    0 -0.00000000000E+00 -0.00000000000E+00 -0.74505805969E-08  0.93827000000E+00  0.93827000000E+00 0. -1.
     999902    2    1    2    0    0 -0.48987637445E-02 -0.72232701058E-02  0.10422722527E-01  0.10303356386E+01  0.10302459519E+01 0.  0.
     999903    2    3    3    0    0  0.12641270963E+00  0.13933060553E-01  0.38970625284E-01  0.13988335120E+00  0.43293636672E-01 0.  0.
         14    1    1    2    0    0  0.48987637445E-02  0.72232701058E-02 -0.10422722527E-01  0.13594361409E-01  0.00000000000E+00 0.  1.
     999901    1    3    3    0    0 -0.13131147337E+00 -0.21156330659E-01 -0.28547902757E-01  0.89045228739E+00  0.88000000000E+00 0. -1.
        -11    1    4    4    0    0  0.64021702890E-01  0.41252724537E-02  0.41949503116E-01  0.76653886049E-01  0.51100000000E-03 0. -1.
         11    1    4    4    0    0  0.62391006739E-01  0.98077880991E-02 -0.29788778326E-02  0.63229465152E-01  0.51100000000E-03 0.  1.
</event>
<event>
 8    1  0.2922807E+004  0.1043930E+01  0.7957747E-01            NaN
         13   -1    0    0    0    0  0.00000000000E+00  0.00000000000E+00  0.74505805969E-08  0.10566000000E+00  0.10566000000E+00 0.  1.
     999900   -1    0    0    0    0 -0.00000000000E+00 -0.00000000000E+00 -0.74505805969E-08  0.93827000000E+00  0.93827000000E+00 0.  1.
     999902    2    1    2    0    0 -0.12192707312E-02  0.73795288882E-02 -0.11129127740E-01  0.10305209899E+01  0.10304337480E+01 0.  0.
     999903    2    3    3    0    0 -0.10457157992E-01 -0.69480793902E-01  0.11189936997E+00  0.13859674478E+00  0.41840838754E-01 0.  0.
         14    1    1    2    0    0  0.12192707312E-02 -0.73795288882E-02  0.11129127740E-01  0.13409010104E-01  0.00000000000E+00 0.  1.
     999901    1    3    3    0    0  0.92378872605E-02  0.76860322790E-01 -0.12302849771E+00  0.89192424512E+00  0.88000000000E+00 0.  1.
        -11    1    4    4    0    0  0.92753161628E-02 -0.57648862092E-01  0.85993875345E-01  0.10394532461E+00  0.51100000000E-03 0. -1.
         11    1    4    4    0    0 -0.19732474155E-01 -0.11831931811E-01  0.25905494630E-01  0.34651420168E-01  0.51100000000E-03 0.  1.
</event>
<event>
 8    1  0.2922807E+004  0.1043930E+01  0.7957747E-01            NaN
         13   -1    0    0    0    0  0.00000000000E+00  0.00000000000E+00  0.74505805969E-08  0.10566000000E+00  0.10566000000E+00 0. -1.
     999900   -1    0    0    0    0 -0.00000000000E+00 -0.00000000000E+00 -0.74505805969E-08  0.93827000000E+00  0.93827000000E+00 0.  1.
     999902    2    1    2    0    0  0.98619081023E-02  0.19636500006E-02 -0.87167785666E-02  0.10306222811E+01  0.10305363608E+01 0.  0.
     999903    2    3    3    0    0 -0.44364476314E-01  0.57270527012E-01 -0.11238637203E+00  0.14115798392E+00  0.45241129342E-01 0.  0.
         14    1    1    2    0    0 -0.98619081023E-02 -0.19636500006E-02  0.87167785666E-02  0.13307718862E-01  0.00000000000E+00 0. -1.
     999901    1    3    3    0    0  0.54226384416E-01 -0.55306877011E-01  0.10366959346E+00  0.88946429722E+00  0.88000000000E+00 0. -1.
        -11    1    4    4    0    0 -0.41464567163E-01  0.16762094565E-01 -0.56097052020E-01  0.71745512128E-01  0.51100000000E-03 0.  1.
         11    1    4    4    0    0 -0.28999091511E-02  0.40508432447E-01 -0.56289320010E-01  0.69412471794E-01  0.51100000000E-03 0. -1.
</event>
<event>
 8    1  0.2922807E+004  0.1043930E+01  0.7957747E-01            NaN
         13   -1    0    0    0    0  0.00000000000E+00  0.00000000000E+00  0.74505805969E-08  0.10566000000E+00  0.10566000000E+00 0.  1.
     999900   -1    0    0    0    0 -0.00000000000E+00 -0.00000000000E+00 -0.74505805969E-08  0.93827000000E+00  0.93827000000E+00 0. -1.
     999902    2    1    2    0    0  0.45802613681E-02  0.12874892583E-01  0.23877450107E-02  0.10300576181E+01  0.10299642002E+01 0.  0.
     999903    2    3    3    0    0  0.12732914841E+00  0.40702685351E-01 -0.47175505294E-02  0.14107383842E+00  0.44834718378E-01 0.  0.
         14    1    1    2    0    0 -0.45802613681E-02 -0.12874892583E-01 -0.23877450107E-02  0.13872381895E-01  0.00000000000E+00 0. -1.
     999901    1    3    3    0    0 -0.12274888705E+00 -0.27827792768E-01  0.71052955401E-02  0.88898377969E+00  0.88000000000E+00 0.  1.
        -11    1    4    4    0    0  0.80265131480E-01  0.11306198237E-01 -0.20049924040E-01  0.83501988150E-01  0.51100000000E-03 0. -1.
         11    1    4    4    0    0  0.47064016935E-01  0.29396487114E-01  0.15332373511E-01  0.57571850268E-01  0.51100000000E-03 0.  1.
</event>
<event>
 8    1  0.2922807E+004  0.1043930E+01  0.7957747E-01            NaN
         13   -1    0    0    0    0  0.00000000000E+00  0.00000000000E+00  0.74505805969E-08  0.10566000000E+00  0.10566000000E+00 0. -1.
     999900   -1    0    0    0    0 -0.00000000000E+00 -0.00000000000E+00 -0.74505805969E-08  0.93827000000E+00  0.93827000000E+00 0.  1.
     999902    2    1    2    0    0 -0.86114484991E-02 -0.54906482676E-02 -0.15693932209E-01  0.10252055835E+01  0.10250345773E+01 0.  0.
     999903    2    3    3    0    0 -0.50018471223E-02 -0.10784497088E+00 -0.72574392415E-01  0.13744163781E+00  0.44357695520E-01 0.  0.
         14    1    1    2    0    0  0.86114484991E-02  0.54906482676E-02  0.15693932209E-01  0.18724416462E-01  0.00000000000E+00 0. -1.
     999901    1    3    3    0    0 -0.36096013768E-02  0.10235432261E+00  0.56880460205E-01  0.88776394573E+00  0.88000000000E+00 0. -1.
        -11    1    4    4    0    0 -0.10631555247E-01 -0.89817078045E-01 -0.38127197530E-01  0.98153358517E-01  0.51100000000E-03 0. -1.
         11    1    4    4    0    0  0.56297081250E-02 -0.18027892832E-01 -0.34447194885E-01  0.39288279295E-01  0.51100000000E-03 0.  1.
</event>
<event>
 8    1  0.2922807E+004  0.1043930E+01  0.7957747E-01            NaN
         13   -1    0    0    0    0  0.00000000000E+00  0.00000000000E+00  0.74505805969E-08  0.10566000000E+00  0.10566000000E+00 0. -1.
     999900   -1    0    0    0    0 -0.00000000000E+00 -0.00000000000E+00 -0.74505805969E-08  0.93827000000E+00  0.93827000000E+00 0.  1.
     999902    2    1    2    0    0  0.49797875732E-02  0.11315230329E-01 -0.48615544307E-02  0.10306458955E+01  0.10305602818E+01 0.  0.
     999903    2    3    3    0    0  0.41261163197E-01 -0.82673841505E-01 -0.95413480413E-01  0.14028083824E+00  0.45139048225E-01 0.  0.
         14    1    1    2    0    0 -0.49797875732E-02 -0.11315230329E-01  0.48615544307E-02  0.13284104530E-01  0.00000000000E+00 0. -1.
     999901    1    3    3    0    0 -0.36281375624E-01  0.93989071834E-01  0.90551925982E-01  0.89036505723E+00  0.88000000000E+00 0. -1.
        -11    1    4    4    0    0 -0.39419464870E-02 -0.39201713902E-01 -0.45008562185E-01  0.59819270356E-01  0.51100000000E-03 0.  1.
         11    1    4    4    0    0  0.45203109684E-01 -0.43472127603E-01 -0.50404918228E-01  0.80461567882E-01  0.51100000000E-03 0. -1.
</event>
<event>
 8    1  0.2922807E+004  0.1043930E+01  0.7957747E-01            NaN
         13   -1    0    0    0    0  0.00000000000E+00  0.00000000000E+00  0.74505805969E-08  0.10566000000E+00  0.10566000000E+00 0.  1.
     999900   -1    0    0    0    0 -0.00000000000E+00 -0.00000000000E+00 -0.74505805969E-08  0.93827000000E+00  0.93827000000E+00 0.  1.
     999902    2    1    2    0    0  0.42958331686E-02 -0.83336130243E-02 -0.10362204540E-01  0.10299557891E+01  0.10298609852E+01 0.  0.
     999903    2    3    3    0    0 -0.21972434234E-01 -0.12726458602E+00 -0.34612766548E-01  0.14123609873E+00  0.45503068637E-01 0.  0.
         14    1    1    2    0    0 -0.42958331686E-02  0.83336130243E-02  0.10362204540E-01  0.13974210947E-01  0.00000000000E+00 0.  1.
     999901    1    3    3    0    0  0.26268267403E-01  0.11893097300E+00  0.24250562008E-01  0.88871969032E+00  0.88000000000E+00 0. -1.
        -11    1    4    4    0    0  0.82726241000E-02 -0.70000556780E-01 -0.29030068512E-01  0.76233327737E-01  0.51100000000E-03 0.  1.
         11    1    4    4    0    0 -0.30245058335E-01 -0.57264029240E-01 -0.55826980356E-02  0.65002770993E-01  0.51100000000E-03 0. -1.
</event>
<event>
 8    1  0.2922807E+004  0.1043930E+01  0.7957747E-01            NaN
         13   -1    0    0    0    0  0.00000000000E+00  0.00000000000E+00  0.74505805969E-08  0.10566000000E+00  0.10566000000E+00 0.  1.
     999900   -1    0    0    0    0 -0.00000000000E+00 -0.00000000000E+00 -0.74505805969E-08  0.93827000000E+00  0.93827000000E+00 0.  1.
     999902    2    1    2    0    0  0.11238998028E-01  0.38852438425E-02 -0.56625139752E-02  0.10307590372E+01  0.10306748850E+01 0.  0.
     999903    2    3    3    0    0 -0.42838609645E-02  0.10710483061E+00  0.75356015782E-01  0.14089430344E+00  0.51796519403E-01 0.  0.
         14    1    1    2    0    0 -0.11238998028E-01 -0.38852438425E-02  0.56625139752E-02  0.13170962794E-01  0.00000000000E+00 0.  1.
     999901    1    3    3    0    0  0.15522858993E-01 -0.10321958676E+00 -0.81018529757E-01  0.88986473377E+00  0.88000000000E+00 0.  1.
        -11    1    4    4    0    0 -0.95639348215E-03  0.31168255092E-01 -0.34823204856E-02  0.31380925590E-01  0.51100000000E-03 0.  1.
         11    1    4    4    0    0 -0.33274674824E-02  0.75936575516E-01  0.78838336267E-01  0.10951337785E+00  0.51100000000E-03 0. -1.
</event>
<event>
 8    1  0.2922807E+004  0.1043930E+01  0.7957747E-01            NaN
         13   -1    0    0    0    0  0.00000000000E+00  0.00000000000E+00  0.74505805969E-08  0.10566000000E+00  0.10566000000E+00 0.  1.
     999900   -1    0    0    0    0 -0.00000000000E+00 -0.00000000000E+00 -0.74505805969E-08  0.93827000000E+00  0.93827000000E+00 0. -1.
     999902    2    1    2    0    0 -0.98859167770E-02  0.10428506167E-01  0.29663378596E-02  0.10292574320E+01  0.10291528444E+01 0.  0.
     999903    2    3    3    0    0 -0.17207687646E-01  0.11214202794E+00  0.71203678934E-01  0.14074430123E+00  0.43209437512E-01 0.  0.
         14    1    1    2    0    0  0.98859167770E-02 -0.10428506167E-01 -0.29663378596E-02  0.14672568000E-01  0.00000000000E+00 0. -1.
     999901    1    3    3    0    0  0.73217708695E-02 -0.10171352177E+00 -0.68237341074E-01  0.88851313077E+00  0.88000000000E+00 0.  1.
        -11    1    4    4    0    0  0.11582125577E-01  0.30117307141E-01  0.31773015689E-01  0.45287784990E-01  0.51100000000E-03 0. -1.
         11    1    4    4    0    0 -0.28789813224E-01  0.82024720797E-01  0.39430663245E-01  0.95456516237E-01  0.51100000000E-03 0.  1.
</event>
<event>
 8    1  0.2922807E+004  0.1043930E+01  0.7957747E-01            NaN
         13   -1    0    0    0    0  0.00000000000E+00  0.00000000000E+00  0.74505805969E-08  0.10566000000E+00  0.10566000000E+00 0.  1.
     999900   -1    0    0    0    0 -0.00000000000E+00 -0.00000000000E+00 -0.74505805969E-08  0.93827000000E+00  0.93827000000E+00 0. -1.
     999902    2    1    2    0    0 -0.34616143988E-02  0.87880460447E-02  0.47060396875E-02  0.10333773066E+01  0.10333234240E+01 0.  0.
     999903    2    3    3    0    0 -0.13127337660E+00  0.67283198926E-02  0.36369535324E-01  0.14357807874E+00  0.44877075456E-01 0.  0.
         14    1    1    2    0    0  0.34616143988E-02 -0.87880460447E-02 -0.47060396875E-02  0.10552693356E-01  0.00000000000E+00 0. -1.
     999901    1    3    3    0    0  0.12781176220E+00  0.20597261522E-02 -0.31663495637E-01  0.88979922791E+00  0.88000000000E+00 0.  1.
        -11    1    4    4    0    0 -0.95949688225E-01 -0.11231682301E-01  0.12753052705E-01  0.97444316571E-01  0.51100000000E-03 0.  1.
         11    1    4    4    0    0 -0.35323688375E-01  0.17960002194E-01  0.23616482619E-01  0.46133762165E-01  0.51100000000E-03 0. -1.
</event>
<event>
 8    1  0.2922807E+004  0.1043930E+01  0.7957747E-01            NaN
         13   -1    0    0    0    0  0.00000000000E+00  0.00000000000E+00  0.74505805969E-08  0.10566000000E+00  0.10566000000E+00 0. -1.
     999900   -1    0    0    0    0 -0.00000000000E+00 -0.00000000000E+00 -0.74505805969E-08  0.93827000000E+00  0.93827000000E+00 0. -1.
     999902    2    1    2    0    0 -0.13367805555E-01 -0.35263904234E-02  0.90388208887E-03  0.10300753741E+01  0.10299821968E+01 0.  0.
     999903    2    3    3    0    0  0.38825931180E-01 -0.55059947132E-01  0.11406168220E+00  0.13980317905E+00  0.44674498502E-01 0.  0.
         14    1    1    2    0    0  0.13367805555E-01  0.35263904234E-02 -0.90388208887E-03  0.13854625856E-01  0.00000000000E+00 0. -1.
     999901    1    3    3    0    0 -0.52193736735E-01  0.51533556709E-01 -0.11315780012E+00  0.89027219509E+00  0.88000000000E+00 0. -1.
        -11    1    4    4    0    0  0.61484014324E-02 -0.28407584860E-01  0.81483585642E-01  0.86513753634E-01  0.51100000000E-03 0.  1.
         11    1    4    4    0    0  0.32677529747E-01 -0.26652362272E-01  0.32578096562E-01  0.53289425421E-01  0.51100000000E-03 0. -1.
</event>
<event>
 8    1  0.2922807E+004  0.1043930E+01  0.7957747E-01            NaN
         13   -1    0    0    0    0  0.00000000000E+00  0.00000000000E+00  0.74505805969E-08  0.10566000000E+00  0.10566000000E+00 0.  1.
     999900   -1    0    0    0    0 -0.00000000000E+00 -0.00000000000E+00 -0.74505805969E-08  0.93827000000E+00  0.93827000000E+00 0. -1.
     999902    2    1    2    0    0 -0.11849896467E-01 -0.12060161845E-02  0.62099066342E-02  0.10304972988E+01  0.10304097463E+01 0.  0.
     999903    2    3    3    0    0  0.17329966955E-01 -0.98524586701E-01 -0.86629985153E-01  0.13980003591E+00  0.45076310563E-01 0.  0.
         14    1    1    2    0    0  0.11849896467E-01  0.12060161845E-02 -0.62099066342E-02  0.13432701207E-01  0.00000000000E+00 0. -1.
     999901    1    3    3    0    0 -0.29179863422E-01  0.97318570517E-01  0.92839891788E-01  0.89069726288E+00  0.88000000000E+00 0.  1.
        -11    1    4    4    0    0  0.42788812864E-02 -0.91013238581E-01 -0.85065690666E-01  0.12465212101E+00  0.51100000000E-03 0.  1.
         11    1    4    4    0    0  0.13051085669E-01 -0.75113481204E-02 -0.15642944874E-02  0.15147914905E-01  0.51100000000E-03 0. -1.
</event>
<event>
 8    1  0.2922807E+004  0.1043930E+01  0.7957747E-01            NaN
         13   -1    0    0    0    0  0.00000000000E+00  0.00000000000E+00  0.74505805969E-08  0.10566000000E+00  0.10566000000E+00 0. -1.
     999900   -1    0    0    0    0 -0.00000000000E+00 -0.00000000000E+00 -0.74505805969E-08  0.93827000000E+00  0.93827000000E+00 0. -1.
     999902    2    1    2    0    0 -0.65083880560E-02 -0.85388889162E-02 -0.85645843712E-02  0.10301959604E+01  0.10301044087E+01 0.  0.
     999903    2    3    3    0    0  0.40751847825E-02  0.13584959010E-01  0.13056233425E+00  0.13892844938E+00  0.45314817455E-01 0.  0.
         14    1    1    2    0    0  0.65083880560E-02  0.85388889162E-02  0.85645843712E-02  0.13734039627E-01  0.00000000000E+00 0.  1.
     999901    1    3    3    0    0 -0.10583572839E-01 -0.22123847927E-01 -0.13912691862E+00  0.89126751099E+00  0.88000000000E+00 0. -1.
        -11    1    4    4    0    0 -0.55250377874E-02  0.23987311759E-01  0.37935019861E-01  0.45224374190E-01  0.51100000000E-03 0.  1.
         11    1    4    4    0    0  0.96002225699E-02 -0.10402352748E-01  0.92627314388E-01  0.93704075194E-01  0.51100000000E-03 0. -1.
</event>
<event>
 8    1  0.2922807E+004  0.1043930E+01  0.7957747E-01            NaN
         13   -1    0    0    0    0  0.00000000000E+00  0.00000000000E+00  0.74505805969E-08  0.10566000000E+00  0.10566000000E+00 0.  1.
     999900   -1    0    0    0    0 -0.00000000000E+00 -0.00000000000E+00 -0.74505805969E-08  0.93827000000E+00  0.93827000000E+00 0.  1.
     999902    2    1    2    0    0 -0.41121374309E-02 -0.99356404556E-02 -0.93022557572E-02  0.10297117516E+01  0.10296135842E+01 0.  0.
     999903    2    3    3    0    0 -0.11624586100E+00 -0.61360464562E-01  0.21832449281E-01  0.14056167745E+00  0.44751787843E-01 0.  0.
         14    1    1    2    0    0  0.41121374309E-02  0.99356404556E-02  0.93022557572E-02  0.14218248404E-01  0.00000000000E+00 0.  1.
     999901    1    3    3    0    0  0.11213372357E+00  0.51424824106E-01 -0.31134705038E-01  0.88915007415E+00  0.88000000000E+00 0.  1.
        -11    1    4    4    0    0 -0.50713288512E-01 -0.50305187251E-01  0.30510935411E-02  0.71498390114E-01  0.51100000000E-03 0.  1.
         11    1    4    4    0    0 -0.65532572488E-01 -0.11055277311E-01  0.18781355740E-01  0.69063287336E-01  0.51100000000E-03 0. -1.
</event>
<event>
 8    1  0.2922807E+004  0.1043930E+01  0.7957747E-01            NaN
         13   -1    0    0    0    0  0.00000000000E+00  0.00000000000E+00  0.74505805969E-08  0.10566000000E+00  0.10566000000E+00 0.  1.
     999900   -1    0    0    0    0 -0.00000000000E+00 -0.00000000000E+00 -0.74505805969E-08  0.93827000000E+00  0.93827000000E+00 0.  1.
     999902    2    1    2    0    0  0.63369179187E-02 -0.22440754607E-01 -0.48095191375E-02  0.10201208532E+01  0.10198429682E+01 0.  0.
     999903    2    3    3    0    0  0.66663910172E-01 -0.12761836109E-01  0.10339149924E+00  0.13139114862E+00  0.44349638574E-01 0.  0.
         14    1    1    2    0    0 -0.63369179187E-02  0.22440754607E-01  0.48095191375E-02  0.23809146780E-01  0.00000000000E+00 0.  1.
     999901    1    3    3    0    0 -0.60326992253E-01 -0.96789184981E-02 -0.10820101837E+00  0.88872970460E+00  0.88000000000E+00 0.  1.
        -11    1    4    4    0    0  0.29199254307E-01  0.44980318739E-02  0.13500172192E-01  0.32486066445E-01  0.51100000000E-03 0.  1.
         11    1    4    4    0    0  0.37464655865E-01 -0.17259867983E-01  0.89891327044E-01  0.98905082178E-01  0.51100000000E-03 0. -1.
</event>
<event>
 8    1  0.2922807E+004  0.1043930E+01  0.7957747E-01            NaN
         13   -1    0    0    0    0  0.00000000000E+00  0.00000000000E+00  0.74505805969E-08  0.10566000000E+00  0.10566000000E+00 0.  1.
     999900   -1    0    0    0    0 -0.00000000000E+00 -0.00000000000E+00 -0.74505805969E-08  0.93827000000E+00  0.93827000000E+00 0. -1.
     999902    2    1    2    0    0  0.31328162519E-02 -0.22718128181E-02  0.13137598131E-01  0.10302343016E+01  0.10301432638E+01 0.  0.
     999903    2    3    3    0    0 -0.10962391348E+00 -0.77687693291E-02 -0.72429398149E-01  0.13890607499E+00  0.44397339647E-01 0.  0.
         14    1    1    2    0    0 -0.31328162519E-02  0.22718128181E-02 -0.13137598131E-01  0.13695698442E-01  0.00000000000E+00 0. -1.
     999901    1    3    3    0    0  0.11275672973E+00  0.54969565110E-02  0.85566996280E-01  0.89132822657E+00  0.88000000000E+00 0.  1.
        -11    1    4    4    0    0 -0.60098477423E-01  0.73546646518E-02 -0.16655950669E-01  0.62798088302E-01  0.51100000000E-03 0. -1.
         11    1    4    4    0    0 -0.49525436059E-01 -0.15123433981E-01 -0.55773447481E-01  0.76107986684E-01  0.51100000000E-03 0.  1.
</event>
<event>
 8    1  0.2922807E+004  0.1043930E+01  0.7957747E-01            NaN
         13   -1    0    0    0    0  0.00000000000E+00  0.00000000000E+00  0.74505805969E-08  0.10566000000E+00  0.10566000000E+00 0. -1.
     999900   -1    0    0    0    0 -0.00000000000E+00 -0.00000000000E+00 -0.74505805969E-08  0.93827000000E+00  0.93827000000E+00 0. -1.
     999902    2    1    2    0    0 -0.12160864147E-01 -0.59013600073E-03  0.73816046963E-02  0.10296919185E+01  0.10295934751E+01 0.  0.
     999903    2    3    3    0    0 -0.86527473897E-01 -0.98392564211E-01  0.26158752825E-01  0.14095782501E+00  0.44907990959E-01 0.  0.
         14    1    1    2    0    0  0.12160864147E-01  0.59013600073E-03 -0.73816046963E-02  0.14238081514E-01  0.00000000000E+00 0.  1.
     999901    1    3    3    0    0  0.74366609750E-01  0.97802428210E-01 -0.18777148129E-01  0.88873409347E+00  0.88000000000E+00 0. -1.
        -11    1    4    4    0    0 -0.59819903007E-02 -0.34774722470E-01  0.12374414939E-01  0.37395892782E-01  0.51100000000E-03 0.  1.
         11    1    4    4    0    0 -0.80545483597E-01 -0.63617841741E-01  0.13784337886E-01  0.10356193223E+00  0.51100000000E-03 0. -1.
</event>
<event>
 8    1  0.2922807E+004  0.1043930E+01  0.7957747E-01            NaN
         13   -1    0    0    0    0  0.00000000000E+00  0.00000000000E+00  0.74505805969E-08  0.10566000000E+00  0.10566000000E+00 0. -1.
     999900   -1    0    0    0    0 -0.00000000000E+00 -0.00000000000E+00 -0.74505805969E-08  0.93827000000E+00  0.93827000000E+00 0. -1.
     999902    2    1    2    0    0  0.13621690764E-02  0.10547597410E-01 -0.14497986962E-01  0.10259494844E+01  0.10257919114E+01 0.  0.
     999903    2    3    3    0    0 -0.48899526830E-01 -0.88806604562E-01 -0.78443364314E-01  0.13663148344E+00  0.47297189390E-01 0.  0.
         14    1    1    2    0    0 -0.13621690764E-02 -0.10547597410E-01  0.14497986962E-01  0.17980515612E-01  0.00000000000E+00 0. -1.
     999901    1    3    3    0    0  0.50261695907E-01  0.99354201972E-01  0.63945377353E-01  0.88931800095E+00  0.88000000000E+00 0.  1.
        -11    1    4    4    0    0  0.22079338001E-02 -0.13068617393E-01 -0.30912725864E-01  0.33638095570E-01  0.51100000000E-03 0.  1.
         11    1    4    4    0    0 -0.51107460631E-01 -0.75737987169E-01 -0.47530638450E-01  0.10299338787E+00  0.51100000000E-03 0. -1.
</event>
<event>
 8    1  0.2922807E+004  0.1043930E+01  0.7957747E-01            NaN
         13   -1    0    0    0    0  0.00000000000E+00  0.00000000000E+00  0.74505805969E-08  0.10566000000E+00  0.10566000000E+00 0.  1.
     999900   -1    0    0    0    0 -0.00000000000E+00 -0.00000000000E+00 -0.74505805969E-08  0.93827000000E+00  0.93827000000E+00 0. -1.
     999902    2    1    2    0    0  0.65189382653E-02 -0.60105791568E-02 -0.98636875909E-02  0.10306666689E+01  0.10305813246E+01 0.  0.
     999903    2    3    3    0    0  0.12434872457E+00 -0.41807287609E-01 -0.29786118577E-01  0.14186851068E+00  0.45044498689E-01 0.  0.
         14    1    1    2    0    0 -0.65189382653E-02  0.60105791568E-02  0.98636875909E-02  0.13263331060E-01  0.00000000000E+00 0.  1.
     999901    1    3    3    0    0 -0.11782978631E+00  0.35796708452E-01  0.19922430987E-01  0.88879815826E+00  0.88000000000E+00 0.  1.
        -11    1    4    4    0    0  0.38215491345E-01 -0.35464291693E-01 -0.14914243061E-01  0.54229471057E-01  0.51100000000E-03 0. -1.
         11    1    4    4    0    0  0.86133233225E-01 -0.63429959159E-02 -0.14871875516E-01  0.87639039619E-01  0.51100000000E-03 0.  1.
</event>
<event>
 8    1  0.2922807E+004  0.1043930E+01  0.7957747E-01            NaN
         13   -1    0    0    0    0  0.00000000000E+00  0.00000000000E+00  0.74505805969E-08  0.10566000000E+00  0.10566000000E+00 0.  1.
     999900   -1    0    0    0    0 -0.00000000000E+00 -0.00000000000E+00 -0.74505805969E-08  0.93827000000E+00  0.93827000000E+00 0.  1.
     999902    2    1    2    0    0 -0.75831312142E-02 -0.10951474918E-01 -0.70490664010E-03  0.10305907506E+01  0.10305044200E+01 0.  0.
     999903    2    3    3    0    0 -0.71834209844E-01 -0.11243002358E+00 -0.11619872379E-01  0.14236485959E+00  0.48291488951E-01 0.  0.
         14    1    1    2    0    0  0.75831312142E-02  0.10951474918E-01  0.70490664010E-03  0.13339249426E-01  0.00000000000E+00 0. -1.
     999901    1    3    3    0    0  0.64251078630E-01  0.10147854866E+00  0.10914965739E-01  0.88822589099E+00  0.88000000000E+00 0. -1.
        -11    1    4    4    0    0 -0.67246859695E-01 -0.10171307872E+00  0.50245277886E-02  0.12203768894E+00  0.51100000000E-03 0.  1.
         11    1    4    4    0    0 -0.45873501490E-02 -0.10716944858E-01 -0.16644400168E-01  0.20327170645E-01  0.51100000000E-03 0. -1.
</event>
<event>
 8    1  0.2922807E+004  0.1043930E+01  0.7957747E-01            NaN
         13   -1    0    0    0    0  0.00000000000E+00  0.00000000000E+00  0.74505805969E-08  0.10566000000E+00  0.10566000000E+00 0.  1.
     999900   -1    0    0    0    0 -0.00000000000E+00 -0.00000000000E+00 -0.74505805969E-08  0.93827000000E+00  0.93827000000E+00 0. -1.
     999902    2    1    2    0    0 -0.61972273071E-02  0.87984736614E-02  0.69992302608E-02  0.10310922436E+01  0.10310123214E+01 0.  0.
     999903    2    3    3    0    0 -0.11215485756E+00 -0.88272055460E-02  0.74083059308E-01  0.14202648445E+00  0.45017674064E-01 0.  0.
         14    1    1    2    0    0  0.61972273071E-02 -0.87984736614E-02 -0.69992302608E-02  0.12837756397E-01  0.00000000000E+00 0. -1.
     999901    1    3    3    0    0  0.10595763025E+00  0.17625679207E-01 -0.67083829048E-01  0.88906575915E+00  0.88000000000E+00 0. -1.
        -11    1    4    4    0    0 -0.86762000224E-01  0.10703533668E-01  0.43145842523E-01  0.97488641205E-01  0.51100000000E-03 0.  1.
         11    1    4    4    0    0 -0.25392857331E-01 -0.19530739214E-01  0.30937216786E-01  0.44537843247E-01  0.51100000000E-03 0. -1.
</event>
<event>
 7    1  0.2922807E+004  0.1043930E+01  0.7957747E-01            NaN
         13   -1    0    0    0    0  0.00000000000E+00  0.00000000000E+00  0.74505805969E-08  0.10566000000E+00  0.10566000000E+00 0.  1.
     999900   -1    0    0    0    0 -0.00000000000E+00 -0.00000000000E+00 -0.74505805969E-08  0.93827000000E+00  0.93827000000E+00 0. -1.
     999903    2    1    2    0    0 -0.52229260398E-02  0.95897323149E-01 -0.43539688640E-01  0.11478343306E+00  0.45342656242E-01 0.  0.
         14    1    1    2    0    0  0.34438100994E-01  0.19897711231E-01  0.65602985580E-02  0.40310534969E-01  0.00000000000E+00 0.  1.
     999901    1    1    2    0    0 -0.29215174954E-01 -0.11579503438E+00  0.36979390082E-01  0.88883603197E+00  0.88000000000E+00 0. -1.
        -11    1    3    3    0    0  0.15765749906E-01  0.71971949266E-01 -0.24272018160E-01  0.77575204401E-01  0.51100000000E-03 0. -1.
         11    1    3    3    0    0 -0.20988675946E-01  0.23925373883E-01 -0.19267670481E-01  0.37208228662E-01  0.51100000000E-03 0.  1.
</event>
<event>
 8    1  0.2922807E+004  0.1043930E+01  0.7957747E-01            NaN
         13   -1    0    0    0    0  0.00000000000E+00  0.00000000000E+00  0.74505805969E-08  0.10566000000E+00  0.10566000000E+00 0. -1.
     999900   -1    0    0    0    0 -0.00000000000E+00 -0.00000000000E+00 -0.74505805969E-08  0.93827000000E+00  0.93827000000E+00 0. -1.
     999902    2    1    2    0    0  0.92449094725E-03  0.12951649213E-01  0.45777517004E-02  0.10301620767E+01  0.10300700698E+01 0.  0.
     999903    2    3    3    0    0 -0.12988040036E+00  0.17908982903E-01  0.24760798168E-01  0.14025092941E+00  0.43215460289E-01 0.  0.
         14    1    1    2    0    0 -0.92449094725E-03 -0.12951649213E-01 -0.45777517004E-02  0.13767923282E-01  0.00000000000E+00 0.  1.
     999901    1    3    3    0    0  0.13080489130E+00 -0.49573336892E-02 -0.20183046467E-01  0.88991114731E+00  0.88000000000E+00 0.  1.
        -11    1    4    4    0    0 -0.11170602565E+00  0.13246604433E-02  0.28665060974E-01  0.11533402678E+00  0.51100000000E-03 0. -1.
         11    1    4    4    0    0 -0.18174374709E-01  0.16584322459E-01 -0.39042628061E-02  0.24916902628E-01  0.51100000000E-03 0.  1.
</event>
<event>
 8    1  0.2922807E+004  0.1043930E+01  0.7957747E-01            NaN
         13   -1    0    0    0    0  0.00000000000E+00  0.00000000000E+00  0.74505805969E-08  0.10566000000E+00  0.10566000000E+00 0. -1.
     999900   -1    0    0    0    0 -0.00000000000E+00 -0.00000000000E+00 -0.74505805969E-08  0.93827000000E+00  0.93827000000E+00 0.  1.
     999902    2    1    2    0    0 -0.74361814285E-02 -0.63867644317E-02 -0.99164587832E-02  0.10299864098E+01  0.10298920237E+01 0.  0.
     999903    2    3    3    0    0  0.93632760693E-01  0.92571443718E-01 -0.15801378324E-02  0.13865193142E+00  0.43419985992E-01 0.  0.
         14    1    1    2    0    0  0.74361814285E-02  0.63867644317E-02  0.99164587832E-02  0.13943590246E-01  0.00000000000E+00 0. -1.
     999901    1    3    3    0    0 -0.10106894212E+00 -0.98958208150E-01 -0.83363209508E-02  0.89133447834E+00  0.88000000000E+00 0.  1.
        -11    1    4    4    0    0  0.53909894302E-01  0.23380621776E-01  0.18626008418E-02  0.58793371916E-01  0.51100000000E-03 0. -1.
         11    1    4    4    0    0  0.39722866391E-01  0.69190821943E-01 -0.34427386742E-02  0.79858559504E-01  0.51100000000E-03 0.  1.
</event>
<event>
 8    1  0.2922807E+004  0.1043930E+01  0.7957747E-01            NaN
         13   -1    0    0    0    0  0.00000000000E+00  0.00000000000E+00  0.74505805969E-08  0.10566000000E+00  0.10566000000E+00 0. -1.
     999900   -1    0    0    0    0 -0.00000000000E+00 -0.00000000000E+00 -0.74505805969E-08  0.93827000000E+00  0.93827000000E+00 0. -1.
     999902    2    1    2    0    0 -0.92630443158E-02  0.30418541756E-02 -0.95044812237E-02  0.10303141258E+01  0.10302241532E+01 0.  0.
     999903    2    3    3    0    0 -0.25868542764E-01  0.63319429316E-01 -0.11571755858E+00  0.14172516208E+00  0.44910316980E-01 0.  0.
         14    1    1    2    0    0  0.92630443158E-02 -0.30418541756E-02  0.95044812237E-02  0.13615874197E-01  0.00000000000E+00 0.  1.
     999901    1    3    3    0    0  0.16605498448E-01 -0.60277575140E-01  0.10621307735E+00  0.88858896372E+00  0.88000000000E+00 0.  1.
        -11    1    4    4    0    0  0.79287311009E-02  0.24635778468E-01 -0.63033421632E-01  0.68141468441E-01  0.51100000000E-03 0.  1.
         11    1    4    4    0    0 -0.33797273865E-01  0.38683650848E-01 -0.52684136943E-01  0.73583693642E-01  0.51100000000E-03 0. -1.
</event>
<event>
 8    1  0.2922807E+004  0.1043930E+01  0.7957747E-01            NaN
         13   -1    0    0    0    0  0.00000000000E+00  0.00000000000E+00  0.74505805969E-08  0.10566000000E+00  0.10566000000E+00 0. -1.
     999900   -1    0    0    0    0 -0.00000000000E+00 -0.00000000000E+00 -0.74505805969E-08  0.93827000000E+00  0.93827000000E+00 0. -1.
     999902    2    1    2    0    0 -0.50975970513E-03 -0.16531114549E-02 -0.18648267102E-01  0.10252016659E+01  0.10250305875E+01 0.  0.
     999903    2    3    3    0    0  0.42174473722E-02 -0.10428523636E+00 -0.76780300494E-01  0.13731933537E+00  0.45477334335E-01 0.  0.
         14    1    1    2    0    0  0.50975970513E-03  0.16531114549E-02  0.18648267102E-01  0.18728334105E-01  0.00000000000E+00 0. -1.
     999901    1    3    3    0    0 -0.47272070773E-02  0.10263212490E+00  0.58132033392E-01  0.88788233052E+00  0.88000000000E+00 0.  1.
        -11    1    4    4    0    0  0.18202018758E-01 -0.16071728602E-01 -0.20197880467E-01  0.31588438446E-01  0.51100000000E-03 0. -1.
         11    1    4    4    0    0 -0.13984571385E-01 -0.88213507756E-01 -0.56582420027E-01  0.10573089693E+00  0.51100000000E-03 0.  1.
</event>
<event>
 8    1  0.2922807E+004  0.1043930E+01  0.7957747E-01            NaN
         13   -1    0    0    0    0  0.00000000000E+00  0.00000000000E+00  0.74505805969E-08  0.10566000000E+00  0.10566000000E+00 0.  1.
     999900   -1    0    0    0    0 -0.00000000000E+00 -0.00000000000E+00 -0.74505805969E-08  0.93827000000E+00  0.93827000000E+00 0.  1.
     999902    2    1    2    0    0  0.10548395695E-01 -0.36569825371E-02  0.98209066670E-02  0.10290608245E+01  0.10289533945E+01 0.  0.
     999903    2    3    3    0    0  0.88760796257E-01  0.27708970352E-02 -0.97118339366E-01  0.13912009635E+00  0.45125076667E-01 0.  0.
         14    1    1    2    0    0 -0.10548395695E-01  0.36569825371E-02 -0.98209066670E-02  0.14869175524E-01  0.00000000000E+00 0. -1.
     999901    1    3    3    0    0 -0.78212400562E-01 -0.64278795723E-02  0.10693924603E+00  0.88994072813E+00  0.88000000000E+00 0. -1.
        -11    1    4    4    0    0  0.21116957132E-01 -0.73227059104E-02 -0.26801562715E-02  0.22516488603E-01  0.51100000000E-03 0.  1.
         11    1    4    4    0    0  0.67643839124E-01  0.10093602946E-01 -0.94438183095E-01  0.11660360775E+00  0.51100000000E-03 0. -1.
</event>
<event>
 8    1  0.2922807E+004  0.1043930E+01  0.7957747E-01            NaN
         13   -1    0    0    0    0  0.00000000000E+00  0.00000000000E+00  0.74505805969E-08  0.10566000000E+00  0.10566000000E+00 0.  1.
     999900   -1    0    0    0    0 -0.00000000000E+00 -0.00000000000E+00 -0.74505805969E-08  0.93827000000E+00  0.93827000000E+00 0. -1.
     999902    2    1    2    0    0 -0.13421377975E-01 -0.30002269136E-02  0.40242120672E-02  0.10296006933E+01  0.10295009755E+01 0.  0.
     999903    2    3    3    0    0 -0.32939378375E-01  0.98331960908E-01 -0.81479813781E-01  0.13945457996E+00  0.45325959823E-01 0.  0.
         14    1    1    2    0    0  0.13421377975E-01  0.30002269136E-02 -0.40242120672E-02  0.14329306718E-01  0.00000000000E+00 0. -1.
     999901    1    3    3    0    0  0.19518000401E-01 -0.10133218782E+00  0.85504025848E-01  0.89014611332E+00  0.88000000000E+00 0. -1.
        -11    1    4    4    0    0 -0.15655403030E-01  0.19312147182E-01 -0.43470474603E-01  0.50079875759E-01  0.51100000000E-03 0. -1.
         11    1    4    4    0    0 -0.17283975345E-01  0.79019813726E-01 -0.38009339178E-01  0.89374704199E-01  0.51100000000E-03 0.  1.
</event>
<event>
 8    1  0.2922807E+004  0.1043930E+01  0.7957747E-01            NaN
         13   -1    0    0    0    0  0.00000000000E+00  0.00000000000E+00  0.74505805969E-08  0.10566000000E+00  0.10566000000E+00 0.  1.
     999900   -1    0    0    0    0 -0.00000000000E+00 -0.00000000000E+00 -0.74505805969E-08  0.93827000000E+00  0.93827000000E+00 0.  1.
     999902    2    1    2    0    0  0.11894306221E-02 -0.66161697714E-02 -0.12316608603E-01  0.10298983467E+01  0.10298027564E+01 0.  0.
     999903    2    3    3    0    0 -0.85292568605E-01  0.17739044888E-01  0.97608628470E-01  0.13851971196E+00  0.45505716977E-01 0.  0.
         14    1    1    2    0    0 -0.11894306221E-02  0.66161697714E-02  0.12316608603E-01  0.14031653328E-01  0.00000000000E+00 0.  1.
     999901    1    3    3    0    0  0.86481999227E-01 -0.24355214659E-01 -0.10992523707E+00  0.89137863471E+00  0.88000000000E+00 0.  1.
        -11    1    4    4    0    0 -0.56493958272E-01 -0.10880566093E-01  0.53456296975E-01  0.78535284089E-01  0.51100000000E-03 0.  1.
         11    1    4    4    0    0 -0.28798610333E-01  0.28619610981E-01  0.44152331495E-01  0.59984427873E-01  0.51100000000E-03 0. -1.
</event>
<event>
 8    1  0.2922807E+004  0.1043930E+01  0.7957747E-01            NaN
         13   -1    0    0    0    0  0.00000000000E+00  0.00000000000E+00  0.74505805969E-08  0.10566000000E+00  0.10566000000E+00 0.  1.
     999900   -1    0    0    0    0 -0.00000000000E+00 -0.00000000000E+00 -0.74505805969E-08  0.93827000000E+00  0.93827000000E+00 0.  1.
     999902    2    1    2    0    0  0.87040698887E-02 -0.11087570129E-01 -0.25155953231E-02  0.10296113666E+01  0.10295117983E+01 0.  0.
     999903    2    3    3    0    0 -0.39131160718E-02  0.11215153585E+00  0.67092062621E-01  0.13821229954E+00  0.44810884921E-01 0.  0.
         14    1    1    2    0    0 -0.87040698887E-02  0.11087570129E-01  0.25155953231E-02  0.14318633448E-01  0.00000000000E+00 0.  1.
     999901    1    3    3    0    0  0.12617185960E-01 -0.12323910598E+00 -0.69607657944E-01  0.89139906701E+00  0.88000000000E+00 0.  1.
        -11    1    4    4    0    0  0.16882139256E-01  0.70394270913E-01  0.29000648850E-01  0.77984990594E-01  0.51100000000E-03 0.  1.
         11    1    4    4    0    0 -0.20795255328E-01  0.41757264934E-01  0.38091413771E-01  0.60227308947E-01  0.51100000000E-03 0. -1.
</event>
<event>
 8    1  0.2922807E+004  0.1043930E+01  0.7957747E-01            NaN
         13   -1    0    0    0    0  0.00000000000E+00  0.00000000000E+00  0.74505805969E-08  0.10566000000E+00  0.10566000000E+00 0.  1.
     999900   -1    0    0    0    0 -0.00000000000E+00 -0.00000000000E+00 -0.74505805969E-08  0.93827000000E+00  0.93827000000E+00 0. -1.
     999902    2    1    2    0    0  0.23571200259E-02  0.13447851418E-01 -0.51147294480E-02  0.10293505220E+01  0.10292472666E+01 0.  0.
     999903    2    3    3    0    0  0.10621067485E+00 -0.68045166578E-01 -0.37342375263E-01  0.13892068532E+00  0.44650326669E-01 0.  0.
         14    1    1    2    0    0 -0.23571200259E-02 -0.13447851418E-01  0.51147294480E-02  0.14579478039E-01  0.00000000000E+00 0. -1.
     999901    1    3    3    0    0 -0.10385355482E+00  0.81493017996E-01  0.32227645815E-01  0.89042983664E+00  0.88000000000E+00 0.  1.
        -11    1    4    4    0    0  0.96875888806E-01 -0.72683867263E-01 -0.26710459669E-01  0.12402254702E+00  0.51100000000E-03 0.  1.
         11    1    4    4    0    0  0.93347860445E-02  0.46387006851E-02 -0.10631915593E-01  0.14898138297E-01  0.51100000000E-03 0. -1.
</event>
<event>
 8    1  0.2922807E+004  0.1043930E+01  0.7957747E-01            NaN
         13   -1    0    0    0    0  0.00000000000E+00  0.00000000000E+00  0.74505805969E-08  0.10566000000E+00  0.10566000000E+00 0.  1.
     999900   -1    0    0    0    0 -0.00000000000E+00 -0.00000000000E+00 -0.74505805969E-08  0.93827000000E+00  0.93827000000E+00 0.  1.
     999902    2    1    2    0    0 -0.87994642357E-02 -0.26017682057E-02  0.21481827522E-02  0.10345058577E+01  0.10344629308E+01 0.  0.
     999903    2    3    3    0    0 -0.19031970280E-02 -0.63595736038E-01 -0.12050802380E+00  0.14388115133E+00  0.46168843468E-01 0.  0.
         14    1    1    2    0    0  0.87994642357E-02  0.26017682057E-02 -0.21481827522E-02  0.94241422829E-02  0.00000000000E+00 0.  1.
     999901    1    3    3    0    0 -0.68962672077E-02  0.60993967832E-01  0.12265620656E+00  0.89062470638E+00  0.88000000000E+00 0. -1.
        -11    1    4    4    0    0  0.19933682727E-01 -0.14018380413E-01 -0.34832197173E-01  0.42513642250E-01  0.51100000000E-03 0. -1.
         11    1    4    4    0    0 -0.21836879755E-01 -0.49577355625E-01 -0.85675826630E-01  0.10136750908E+00  0.51100000000E-03 0.  1.
</event>
<event>
 8    1  0.2922807E+004  0.1043930E+01  0.7957747E-01            NaN
         13   -1    0    0    0    0  0.00000000000E+00  0.00000000000E+00  0.74505805969E-08  0.10566000000E+00  0.10566000000E+00 0.  1.
     999900   -1    0    0    0    0 -0.00000000000E+00 -0.00000000000E+00 -0.74505805969E-08  0.93827000000E+00  0.93827000000E+00 0. -1.
     999902    2    1    2    0    0 -0.39277785426E-02  0.70622136119E-02 -0.11400844547E-01  0.10299556821E+01  0.10298608767E+01 0.  0.
     999903    2    3    3    0    0  0.33513494422E-01 -0.86879041133E-01 -0.94668819576E-01  0.14025890005E+00  0.45158072880E-01 0.  0.
         14    1    1    2    0    0  0.39277785426E-02 -0.70622136119E-02  0.11400844547E-01  0.13974317935E-01  0.00000000000E+00 0.  1.
     999901    1    3    3    0    0 -0.37441272964E-01  0.93941254745E-01  0.83267975030E-01  0.88969678202E+00  0.88000000000E+00 0.  1.
        -11    1    4    4    0    0  0.17413143354E-01 -0.40039986258E-02 -0.25366548720E-01  0.31031797908E-01  0.51100000000E-03 0.  1.
         11    1    4    4    0    0  0.16100351068E-01 -0.82875042508E-01 -0.69302270856E-01  0.10922710214E+00  0.51100000000E-03 0. -1.
</event>
<event>
 8    1  0.2922807E+004  0.1043930E+01  0.7957747E-01            NaN
         13   -1    0    0    0    0  0.00000000000E+00  0.00000000000E+00  0.74505805969E-08  0.10566000000E+00  0.10566000000E+00 0.  1.
     999900   -1    0    0    0    0 -0.00000000000E+00 -0.00000000000E+00 -0.74505805969E-08  0.93827000000E+00  0.93827000000E+00 0.  1.
     999902    2    1    2    0    0  0.90745823465E-02  0.83791427922E-02  0.52437987839E-02  0.10305115238E+01  0.10304241579E+01 0.  0.
     999903    2    3    3    0    0  0.77942590455E-01 -0.10137694347E+00 -0.35961426980E-01  0.14006945848E+00  0.44428559418E-01 0.  0.
         14    1    1    2    0    0 -0.90745823465E-02 -0.83791427922E-02 -0.52437987839E-02  0.13418476232E-01  0.00000000000E+00 0. -1.
     999901    1    3    3    0    0 -0.68868008108E-01  0.10975608627E+00  0.41205225764E-01  0.89044206529E+00  0.88000000000E+00 0.  1.
        -11    1    4    4    0    0  0.60743419069E-02 -0.39835571883E-01 -0.16055168826E-01  0.43379718577E-01  0.51100000000E-03 0. -1.
         11    1    4    4    0    0  0.71868248548E-01 -0.61541371592E-01 -0.19906258154E-01  0.96689739898E-01  0.51100000000E-03 0.  1.
</event>
<event>
 7    1  0.2922807E+004  0.1043930E+01  0.7957747E-01            NaN
         13   -1    0    0    0    0  0.00000000000E+00  0.00000000000E+00  0.74505805969E-08  0.10566000000E+00  0.10566000000E+00 0. -1.
     999900   -1    0    0    0    0 -0.00000000000E+00 -0.00000000000E+00 -0.74505805969E-08  0.93827000000E+00  0.93827000000E+00 0. -1.
     999903    2    1    2    0    0  0.45457011530E-01 -0.67186507778E-01  0.50548409333E-01  0.10552497729E+00  0.44721498417E-01 0.  0.
         14    1    1    2    0    0  0.48996933908E-01  0.82227511009E-02  0.30086393700E-02  0.49773136117E-01  0.00000000000E+00 0.  1.
     999901    1    1    2    0    0 -0.94453945438E-01  0.58963756677E-01 -0.53557048703E-01  0.88863188660E+00  0.88000000000E+00 0. -1.
        -11    1    3    3    0    0  0.16709465446E-02 -0.35343321578E-01  0.70708132810E-02  0.36086007869E-01  0.51100000000E-03 0.  1.
         11    1    3    3    0    0  0.43786064985E-01 -0.31843186200E-01  0.43477596052E-01  0.69438969417E-01  0.51100000000E-03 0. -1.
</event>
<event>
 8    1  0.2922807E+004  0.1043930E+01  0.7957747E-01            NaN
         13   -1    0    0    0    0  0.00000000000E+00  0.00000000000E+00  0.74505805969E-08  0.10566000000E+00  0.10566000000E+00 0. -1.
     999900   -1    0    0    0    0 -0.00000000000E+00 -0.00000000000E+00 -0.74505805969E-08  0.93827000000E+00  0.93827000000E+00 0. -1.
     999902    2    1    2    0    0 -0.92744136496E-02 -0.48862444988E-02 -0.93859716509E-02  0.10298592290E+01  0.10297631013E+01 0.  0.
     999903    2    3    3    0    0  0.11632394073E+00  0.58505714584E-01  0.10997786390E-01  0.13845080142E+00  0.45754729602E-01 0.  0.
         14    1    1    2    0    0  0.92744136496E-02  0.48862444988E-02  0.93859716509E-02  0.14070771041E-01  0.00000000000E+00 0. -1.
     999901    1    3    3    0    0 -0.12559835438E+00 -0.63391959083E-01 -0.20383758041E-01  0.89140842754E+00  0.88000000000E+00 0. -1.
        -11    1    4    4    0    0  0.62355208904E-01  0.81121345322E-02  0.14480056018E-01  0.64528380946E-01  0.51100000000E-03 0.  1.
         11    1    4    4    0    0  0.53968731829E-01  0.50393580052E-01 -0.34822696280E-02  0.73922420472E-01  0.51100000000E-03 0. -1.
</event>
<event>
 7    1  0.2922807E+004  0.1043930E+01  0.7957747E-01            NaN
         13   -1    0    0    0    0  0.00000000000E+00  0.00000000000E+00  0.74505805969E-08  0.10566000000E+00  0.10566000000E+00 0.  1.
     999900   -1    0    0    0    0 -0.00000000000E+00 -0.00000000000E+00 -0.74505805969E-08  0.93827000000E+00  0.93827000000E+00 0.  1.
     999903    2    1    2    0    0  0.87985708016E-01 -0.93133439602E-02 -0.80249587583E-01  0.12773311922E+00  0.45249643604E-01 0.  0.
         14    1    1    2    0    0 -0.23793727064E-01  0.79990735771E-02  0.19467820049E-01  0.31766690781E-01  0.00000000000E+00 0. -1.
     999901    1    1    2    0    0 -0.64191980952E-01  0.13142703832E-02  0.60781767534E-01  0.88443019000E+00  0.88000000000E+00 0. -1.
        -11    1    3    3    0    0  0.75040036356E-01  0.60701402036E-02 -0.46632645418E-01  0.88559123743E-01  0.51100000000E-03 0. -1.
         11    1    3    3    0    0  0.12945671661E-01 -0.15383484164E-01 -0.33616942165E-01  0.39173995473E-01  0.51100000000E-03 0.  1.
</event>
<event>
 8    1  0.2922807E+004  0.1043930E+01  0.7957747E-01            NaN
         13   -1    0    0    0    0  0.00000000000E+00  0.00000000000E+00  0.74505805969E-08  0.10566000000E+00  0.10566000000E+00 0.  1.
     999900   -1    0    0    0    0 -0.00000000000E+00 -0.00000000000E+00 -0.74505805969E-08  0.93827000000E+00  0.93827000000E+00 0. -1.
     999902    2    1    2    0    0  0.67526752569E-02  0.12154324720E-01  0.22847347461E-02  0.10298393561E+01  0.10297429549E+01 0.  0.
     999903    2    3    3    0    0  0.86541308832E-01  0.78205515974E-01  0.65679331022E-01  0.14149940949E+00  0.45856379049E-01 0.  0.
         14    1    1    2    0    0 -0.67526752569E-02 -0.12154324720E-01 -0.22847347461E-02  0.14090643895E-01  0.00000000000E+00 0. -1.
     999901    1    3    3    0    0 -0.79788633575E-01 -0.66051191254E-01 -0.63394596276E-01  0.88833994661E+00  0.88000000000E+00 0.  1.
        -11    1    4    4    0    0  0.41951352628E-01  0.13063946335E-01  0.37211098545E-01  0.57580462460E-01  0.51100000000E-03 0. -1.
         11    1    4    4    0    0  0.44589956203E-01  0.65141569639E-01  0.28468232476E-01  0.83918947030E-01  0.51100000000E-03 0.  1.
</event>
<event>
 8    1  0.2922807E+004  0.1043930E+01  0.7957747E-01            NaN
         13   -1    0    0    0    0  0.00000000000E+00  0.00000000000E+00  0.74505805969E-08  0.10566000000E+00  0.10566000000E+00 0. -1.
     999900   -1    0    0    0    0 -0.00000000000E+00 -0.00000000000E+00 -0.74505805969E-08  0.93827000000E+00  0.93827000000E+00 0.  1.
     999902    2    1    2    0    0  0.94824007442E-02 -0.10514889205E-01 -0.39799916565E-02  0.10292222078E+01  0.10291171137E+01 0.  0.
     999903    2    3    3    0    0 -0.51913176995E-01  0.74480108892E-01 -0.93922469318E-01  0.13844545910E+00  0.45863387763E-01 0.  0.
         14    1    1    2    0    0 -0.94824007442E-02  0.10514889205E-01  0.39799916565E-02  0.14707792236E-01  0.00000000000E+00 0. -1.
     999901    1    3    3    0    0  0.61395577739E-01 -0.84994998097E-01  0.89942477662E-01  0.89077674866E+00  0.88000000000E+00 0. -1.
        -11    1    4    4    0    0 -0.16435233617E-01  0.47864229132E-03 -0.30771333423E-01  0.34892435915E-01  0.51100000000E-03 0. -1.
         11    1    4    4    0    0 -0.35477943378E-01  0.74001466601E-01 -0.63151135895E-01  0.10355302319E+00  0.51100000000E-03 0.  1.
</event>
<event>
 8    1  0.2922807E+004  0.1043930E+01  0.7957747E-01            NaN
         13   -1    0    0    0    0  0.00000000000E+00  0.00000000000E+00  0.74505805969E-08  0.10566000000E+00  0.10566000000E+00 0. -1.
     999900   -1    0    0    0    0 -0.00000000000E+00 -0.00000000000E+00 -0.74505805969E-08  0.93827000000E+00  0.93827000000E+00 0. -1.
     999902    2    1    2    0    0 -0.91623807286E-02 -0.35826781783E-02  0.52594608316E-02  0.10327744305E+01  0.10327141800E+01 0.  0.
     999903    2    3    3    0    0  0.20981421458E-02  0.39485615270E-02 -0.13509319413E+00  0.14154921386E+00  0.42023987269E-01 0.  0.
         14    1    1    2    0    0  0.91623807286E-02  0.35826781783E-02 -0.52594608316E-02  0.11155569541E-01  0.00000000000E+00 0. -1.
     999901    1    3    3    0    0 -0.11260522874E-01 -0.75312397053E-02  0.14035265496E+00  0.89122521660E+00  0.88000000000E+00 0.  1.
        -11    1    4    4    0    0 -0.12261840409E-01 -0.14287337268E-01 -0.67583422611E-01  0.70158826025E-01  0.51100000000E-03 0. -1.
         11    1    4    4    0    0  0.14359982555E-01  0.18235898795E-01 -0.67509771517E-01  0.71390387835E-01  0.51100000000E-03 0.  1.
</event>
<event>
 8    1  0.2922807E+004  0.1043930E+01  0.7957747E-01            NaN
         13   -1    0    0    0    0  0.00000000000E+00  0.00000000000E+00  0.74505805969E-08  0.10566000000E+00  0.10566000000E+00 0. -1.
     999900   -1    0    0    0    0 -0.00000000000E+00 -0.00000000000E+00 -0.74505805969E-08  0.93827000000E+00  0.93827000000E+00 0.  1.
     999902    2    1    2    0    0 -0.21265497564E-02  0.83514288743E-02  0.11413659137E-01  0.10296282451E+01  0.10295289131E+01 0.  0.
     999903    2    3    3    0    0 -0.98094312038E-01  0.86538947587E-01  0.25983908601E-01  0.14084514916E+00  0.45284754950E-01 0.  0.
         14    1    1    2    0    0  0.21265497564E-02 -0.83514288743E-02 -0.11413659137E-01  0.14301754893E-01  0.00000000000E+00 0.  1.
     999901    1    3    3    0    0  0.95967762281E-01 -0.78187518713E-01 -0.14570249463E-01  0.88878309595E+00  0.88000000000E+00 0. -1.
        -11    1    4    4    0    0 -0.48360457662E-01  0.13772778450E-01  0.91037954252E-02  0.51103458822E-01  0.51100000000E-03 0.  1.
         11    1    4    4    0    0 -0.49733854376E-01  0.72766169137E-01  0.16880113175E-01  0.89741690333E-01  0.51100000000E-03 0. -1.
</event>
<event>
 8    1  0.2922807E+004  0.1043930E+01  0.7957747E-01            NaN
         13   -1    0    0    0    0  0.00000000000E+00  0.00000000000E+00  0.74505805969E-08  0.10566000000E+00  0.10566000000E+00 0. -1.
     999900   -1    0    0    0    0 -0.00000000000E+00 -0.00000000000E+00 -0.74505805969E-08  0.93827000000E+00  0.93827000000E+00 0.  1.
     999902    2    1    2    0    0 -0.12457320222E-01 -0.58235799796E-02  0.10997879577E-02  0.10301347673E+01  0.10300423925E+01 0.  0.
     999903    2    3    3    0    0 -0.12385920328E+00 -0.22477296295E-02 -0.54588662839E-01  0.14135787192E+00  0.40693627483E-01 0.  0.
         14    1    1    2    0    0  0.12457320222E-01  0.58235799796E-02 -0.10997879577E-02  0.13795232671E-01  0.00000000000E+00 0. -1.
     999901    1    3    3    0    0  0.11140188306E+00 -0.35758503501E-02  0.55688450797E-01  0.88877689541E+00  0.88000000000E+00 0. -1.
        -11    1    4    4    0    0 -0.56903386303E-01  0.32283534938E-02 -0.37715286367E-02  0.57121827599E-01  0.51100000000E-03 0. -1.
         11    1    4    4    0    0 -0.66955816981E-01 -0.54760831234E-02 -0.50817134202E-01  0.84236044325E-01  0.51100000000E-03 0.  1.
</event>
<event>
 7    1  0.2922807E+004  0.1043930E+01  0.7957747E-01            NaN
         13   -1    0    0    0    0  0.00000000000E+00  0.00000000000E+00  0.74505805969E-08  0.10566000000E+00  0.10566000000E+00 0. -1.
     999900   -1    0    0    0    0 -0.00000000000E+00 -0.00000000000E+00 -0.74505805969E-08  0.93827000000E+00  0.93827000000E+00 0. -1.
     999902    2    1    2    0    0 -0.13342190313E-01  0.28367640959E-02  0.20329324744E-02  0.10301389128E+01  0.10300465938E+01 0.  0.
         14    1    1    2    0    0  0.13342190313E-01 -0.28367640959E-02 -0.20329324744E-02  0.13791087242E-01  0.00000000000E+00 0.  1.
     999901    1    3    3    0    0  0.90539565666E-01 -0.76264573941E-01 -0.43369380007E-01  0.88898515247E+00  0.88000000000E+00 0.  1.
        -11    1    3    3    0    0 -0.69588736312E-01  0.41473542295E-01  0.16725953667E-01  0.82720406062E-01  0.51100000000E-03 0. -1.
         11    1    3    3    0    0 -0.34293019667E-01  0.37627795741E-01  0.28676358814E-01  0.58433354226E-01  0.51100000000E-03 0.  1.
</event>
<event>
 7    1  0.2922807E+004  0.1043930E+01  0.7957747E-01            NaN
         13   -1    0    0    0    0  0.00000000000E+00  0.00000000000E+00  0.74505805969E-08  0.10566000000E+00  0.10566000000E+00 0.  1.
     999900   -1    0    0    0    0 -0.00000000000E+00 -0.00000000000E+00 -0.74505805969E-08  0.93827000000E+00  0.93827000000E+00 0. -1.
     999903    2    1    2    0    0 -0.26874029933E-01 -0.95093919445E-01 -0.50683532452E-01  0.11881079913E+00  0.42215145713E-01 0.  0.
         14    1    1    2    0    0  0.25448431518E-01 -0.86775768276E-02  0.27872342326E-01  0.38727128386E-01  0.00000000000E+00 0.  1.
     999901    1    1    2    0    0  0.14255984145E-02  0.10377149627E+00  0.22811190127E-01  0.88639207249E+00  0.88000000000E+00 0.  1.
        -11    1    3    3    0    0 -0.29828488008E-01 -0.73794861077E-01 -0.21302848658E-01  0.82398378019E-01  0.51100000000E-03 0.  1.
         11    1    3    3    0    0  0.29544580747E-02 -0.21299058368E-01 -0.29380683794E-01  0.36412421110E-01  0.51100000000E-03 0. -1.
</event>
<event>
 8    1  0.2922807E+004  0.1043930E+01  0.7957747E-01            NaN
         13   -1    0    0    0    0  0.00000000000E+00  0.00000000000E+00  0.74505805969E-08  0.10566000000E+00  0.10566000000E+00 0.  1.
     999900   -1    0    0    0    0 -0.00000000000E+00 -0.00000000000E+00 -0.74505805969E-08  0.93827000000E+00  0.93827000000E+00 0.  1.
     999902    2    1    2    0    0 -0.11531625091E-01 -0.27818652165E-02 -0.81187042064E-02  0.10295553519E+01  0.10294549976E+01 0.  0.
     999903    2    3    3    0    0 -0.80100083572E-01  0.27158767555E-01 -0.10395094022E+00  0.14119625079E+00  0.44463032067E-01 0.  0.
         14    1    1    2    0    0  0.11531625091E-01  0.27818652165E-02  0.81187042064E-02  0.14374648146E-01  0.00000000000E+00 0.  1.
     999901    1    3    3    0    0  0.68568458481E-01 -0.29940632771E-01  0.95832236013E-01  0.88835910107E+00  0.88000000000E+00 0. -1.
        -11    1    4    4    0    0 -0.19007174721E-01  0.23779936045E-01 -0.54886331675E-01  0.62765663980E-01  0.51100000000E-03 0.  1.
         11    1    4    4    0    0 -0.61092908852E-01  0.33788315099E-02 -0.49064608544E-01  0.78430586807E-01  0.51100000000E-03 0. -1.
</event>
<event>
 8    1  0.2922807E+004  0.1043930E+01  0.7957747E-01            NaN
         13   -1    0    0    0    0  0.00000000000E+00  0.00000000000E+00  0.74505805969E-08  0.10566000000E+00  0.10566000000E+00 0.  1.
     999900   -1    0    0    0    0 -0.00000000000E+00 -0.00000000000E+00 -0.74505805969E-08  0.93827000000E+00  0.93827000000E+00 0.  1.
     999902    2    1    2    0    0  0.10705541206E-01  0.79550793140E-02  0.11285188343E-01  0.10264586699E+01  0.10263099696E+01 0.  0.
     999903    2    3    3    0    0  0.62919576518E-01 -0.35939884562E-01 -0.10618882202E+00  0.13603561514E+00  0.44486787413E-01 0.  0.
         14    1    1    2    0    0 -0.10705541206E-01 -0.79550793140E-02 -0.11285188343E-01  0.17471330096E-01  0.00000000000E+00 0. -1.
     999901    1    3    3    0    0 -0.52214035312E-01  0.43894963876E-01  0.11747401036E+00  0.89042305476E+00  0.88000000000E+00 0. -1.
        -11    1    4    4    0    0  0.67109451886E-01 -0.22293163584E-01 -0.87079393434E-01  0.11217729519E+00  0.51100000000E-03 0. -1.
         11    1    4    4    0    0 -0.41898753679E-02 -0.13646720978E-01 -0.19109428584E-01  0.23858319951E-01  0.51100000000E-03 0.  1.
</event>
<event>
 8    1  0.2922807E+004  0.1043930E+01  0.7957747E-01            NaN
         13   -1    0    0    0    0  0.00000000000E+00  0.00000000000E+00  0.74505805969E-08  0.10566000000E+00  0.10566000000E+00 0. -1.
     999900   -1    0    0    0    0 -0.00000000000E+00 -0.00000000000E+00 -0.74505805969E-08  0.93827000000E+00  0.93827000000E+00 0. -1.
     999902    2    1    2    0    0  0.13422251672E-01 -0.19030266819E-02  0.28611498805E-02  0.10300748735E+01  0.10299816894E+01 0.  0.
     999903    2    3    3    0    0 -0.86284047326E-01  0.38291622132E-01  0.91869242024E-01  0.13907577348E+00  0.44619816109E-01 0.  0.
         14    1    1    2    0    0 -0.13422251672E-01  0.19030266819E-02 -0.28611498805E-02  0.13855126457E-01  0.00000000000E+00 0. -1.
     999901    1    3    3    0    0  0.99706298998E-01 -0.40194648814E-01 -0.89008092143E-01  0.89099910007E+00  0.88000000000E+00 0. -1.
        -11    1    4    4    0    0 -0.33685105573E-01 -0.66893830024E-02  0.39094353278E-01  0.52039059961E-01  0.51100000000E-03 0.  1.
         11    1    4    4    0    0 -0.52598941753E-01  0.44981005134E-01  0.52774888746E-01  0.87036713515E-01  0.51100000000E-03 0. -1.
</event>
<event>
 8    1  0.2922807E+004  0.1043930E+01  0.7957747E-01            NaN
         13   -1    0    0    0    0  0.00000000000E+00  0.00000000000E+00  0.74505805969E-08  0.10566000000E+00  0.10566000000E+00 0.  1.
     999900   -1    0    0    0    0 -0.00000000000E+00 -0.00000000000E+00 -0.74505805969E-08  0.93827000000E+00  0.93827000000E+00 0.  1.
     999902    2    1    2    0    0  0.17492758145E-02 -0.10031636408E-01  0.92454370547E-02  0.10301760260E+01  0.10300842066E+01 0.  0.
     999903    2    3    3    0    0  0.11857842206E+00 -0.51924710840E-01  0.35996855276E-01  0.14106426840E+00  0.42969017377E-01 0.  0.
         14    1    1    2    0    0 -0.17492758145E-02  0.10031636408E-01 -0.92454370547E-02  0.13753974016E-01  0.00000000000E+00 0. -1.
     999901    1    3    3    0    0 -0.11682914625E+00  0.41893074432E-01 -0.26751418221E-01  0.88911175758E+00  0.88000000000E+00 0. -1.
        -11    1    4    4    0    0  0.90824830935E-01 -0.18818658678E-01  0.19270082458E-01  0.94735890916E-01  0.51100000000E-03 0. -1.
         11    1    4    4    0    0  0.27753591129E-01 -0.33106052162E-01  0.16726772818E-01  0.46328377483E-01  0.51100000000E-03 0.  1.
</event>
<event>
 8    1  0.2922807E+004  0.1043930E+01  0.7957747E-01            NaN
         13   -1    0    0    0    0  0.00000000000E+00  0.00000000000E+00  0.74505805969E-08  0.10566000000E+00  0.10566000000E+00 0. -1.
     999900   -1    0    0    0    0 -0.00000000000E+00 -0.00000000000E+00 -0.74505805969E-08  0.93827000000E+00  0.93827000000E+00 0.  1.
     999902    2    1    2    0    0 -0.71888766706E-02 -0.58857930763E-02  0.11125360995E-01  0.10294353056E+01  0.10293332562E+01 0.  0.
     999903    2    3    3    0    0 -0.22295340681E-01 -0.10335006221E+00 -0.78573646964E-01  0.13939407003E+00  0.45591349933E-01 0.  0.
         14    1    1    2    0    0  0.71888766706E-02  0.58857930763E-02 -0.11125360995E-01  0.14494694381E-01  0.00000000000E+00 0.  1.
     999901    1    3    3    0    0  0.15106464010E-01  0.97464269134E-01  0.89699007959E-01  0.89004123558E+00  0.88000000000E+00 0. -1.
        -11    1    4    4    0    0 -0.23263290984E-01 -0.49363841747E-01 -0.16268841297E-01  0.56946517870E-01  0.51100000000E-03 0.  1.
         11    1    4    4    0    0  0.96795030325E-03 -0.53986220463E-01 -0.62304805667E-01  0.82447552164E-01  0.51100000000E-03 0. -1.
</event>
<event>
 8    1  0.2922807E+004  0.1043930E+01  0.7957747E-01            NaN
         13   -1    0    0    0    0  0.00000000000E+00  0.00000000000E+00  0.74505805969E-08  0.10566000000E+00  0.10566000000E+00 0.  1.
     999900   -1    0    0    0    0 -0.00000000000E+00 -0.00000000000E+00 -0.74505805969E-08  0.93827000000E+00  0.93827000000E+00 0.  1.
     999902    2    1    2    0    0  0.91812755639E-02  0.78729448668E-03  0.96526062724E-02  0.10305850211E+01  0.10304986159E+01 0.  0.
     999903    2    3    3    0    0  0.35430754335E-01 -0.12633299562E+00 -0.21711421433E-01  0.14051069527E+00  0.45348710337E-01 0.  0.
         14    1    1    2    0    0 -0.91812755639E-02 -0.78729448668E-03 -0.96526062724E-02  0.13344978885E-01  0.00000000000E+00 0. -1.
     999901    1    3    3    0    0 -0.26249478771E-01  0.12712029011E+00  0.31364027706E-01  0.89007432584E+00  0.88000000000E+00 0.  1.
        -11    1    4    4    0    0 -0.19975861158E-02 -0.22567236641E-01 -0.19941004519E-01  0.30185680415E-01  0.51100000000E-03 0.  1.
         11    1    4    4    0    0  0.37428340451E-01 -0.10376575898E+00 -0.17704169142E-02  0.11032501486E+00  0.51100000000E-03 0. -1.
</event>
<event>
 8    1  0.2922807E+004  0.1043930E+01  0.7957747E-01            NaN
         13   -1    0    0    0    0  0.00000000000E+00  0.00000000000E+00  0.74505805969E-08  0.10566000000E+00  0.10566000000E+00 0.  1.
     999900   -1    0    0    0    0 -0.00000000000E+00 -0.00000000000E+00 -0.74505805969E-08  0.93827000000E+00  0.93827000000E+00 0. -1.
     999902    2    1    2    0    0 -0.14293232384E-01 -0.54127291815E-02  0.10162052504E-02  0.10286124675E+01  0.10284984110E+01 0.  0.
     999903    2    3    3    0    0 -0.11517032217E+00  0.53793151079E-04  0.68472950627E-01  0.14026766810E+00  0.41500213768E-01 0.  0.
         14    1    1    2    0    0  0.14293232384E-01  0.54127291815E-02 -0.10162052504E-02  0.15317532513E-01  0.00000000000E+00 0.  1.
     999901    1    3    3    0    0  0.10087708979E+00 -0.54665223326E-02 -0.67456745376E-01  0.88834479939E+00  0.88000000000E+00 0. -1.
        -11    1    4    4    0    0 -0.64915547706E-01 -0.21555380818E-02  0.14629468404E-01  0.66580456180E-01  0.51100000000E-03 0. -1.
         11    1    4    4    0    0 -0.50254774464E-01  0.22093312328E-02  0.53843482223E-01  0.73687211915E-01  0.51100000000E-03 0.  1.
</event>
<event>
 8    1  0.2922807E+004  0.1043930E+01  0.7957747E-01            NaN
         13   -1    0    0    0    0  0.00000000000E+00  0.00000000000E+00  0.74505805969E-08  0.10566000000E+00  0.10566000000E+00 0. -1.
     999900   -1    0    0    0    0 -0.00000000000E+00 -0.00000000000E+00 -0.74505805969E-08  0.93827000000E+00  0.93827000000E+00 0. -1.
     999902    2    1    2    0    0  0.80211157735E-02 -0.56232545391E-02 -0.79665294574E-02  0.10313036434E+01  0.10312263476E+01 0.  0.
     999903    2    3    3    0    0 -0.78128887601E-01 -0.29640610014E-01  0.10197096586E+00  0.13996481369E+00  0.47004067408E-01 0.  0.
         14    1    1    2    0    0 -0.80211157735E-02  0.56232545391E-02  0.79665294574E-02  0.12626356619E-01  0.00000000000E+00 0. -1.
     999901    1    3    3    0    0  0.86150003374E-01  0.24017355475E-01 -0.10993749531E+00  0.89133882969E+00  0.88000000000E+00 0. -1.
        -11    1    4    4    0    0 -0.32204084175E-01 -0.33822378706E-01  0.68807363474E-01  0.83161113076E-01  0.51100000000E-03 0.  1.
         11    1    4    4    0    0 -0.45924803425E-01  0.41817686918E-02  0.33163602383E-01  0.56803700611E-01  0.51100000000E-03 0. -1.
</event>
<event>
 8    1  0.2922807E+004  0.1043930E+01  0.7957747E-01            NaN
         13   -1    0    0    0    0  0.00000000000E+00  0.00000000000E+00  0.74505805969E-08  0.10566000000E+00  0.10566000000E+00 0.  1.
     999900   -1    0    0    0    0 -0.00000000000E+00 -0.00000000000E+00 -0.74505805969E-08  0.93827000000E+00  0.93827000000E+00 0. -1.
     999902    2    1    2    0    0 -0.11472113794E-01 -0.69184956526E-02 -0.40150290509E-02  0.10299444562E+01  0.10298494975E+01 0.  0.
     999903    2    3    3    0    0  0.72378839932E-01  0.80234940770E-01  0.73717494648E-01  0.13827801119E+00  0.44835222442E-01 0.  0.
         14    1    1    2    0    0  0.11472113794E-01  0.69184956526E-02  0.40150290509E-02  0.13985543796E-01  0.00000000000E+00 0. -1.
     999901    1    3    3    0    0 -0.83850953726E-01 -0.87153436423E-01 -0.77732523699E-01  0.89166644501E+00  0.88000000000E+00 0.  1.
        -11    1    4    4    0    0  0.14934562671E-01  0.25925972661E-01  0.45259643380E-01  0.54257659925E-01  0.51100000000E-03 0.  1.
         11    1    4    4    0    0  0.57444277261E-01  0.54308968109E-01  0.28457851268E-01  0.84020351266E-01  0.51100000000E-03 0. -1.
</event>
<event>
 8    1  0.2922807E+004  0.1043930E+01  0.7957747E-01            NaN
         13   -1    0    0    0    0  0.00000000000E+00  0.00000000000E+00  0.74505805969E-08  0.10566000000E+00  0.10566000000E+00 0.  1.
     999900   -1    0    0    0    0 -0.00000000000E+00 -0.00000000000E+00 -0.74505805969E-08  0.93827000000E+00  0.93827000000E+00 0. -1.
     999902    2    1    2    0    0  0.12651478885E-01 -0.34878790591E-02 -0.58306025802E-02  0.10295695980E+01  0.10294694440E+01 0.  0.
     999903    2    3    3    0    0 -0.42146671425E-01  0.88989182049E-01  0.86412052370E-01  0.13824274917E+00  0.44142932265E-01 0.  0.
         14    1    1    2    0    0 -0.12651478885E-01  0.34878790591E-02  0.58306025802E-02  0.14360401971E-01  0.00000000000E+00 0.  1.
     999901    1    3    3    0    0  0.54798150310E-01 -0.92477061108E-01 -0.92242654950E-01  0.89132684886E+00  0.88000000000E+00 0. -1.
        -11    1    4    4    0    0 -0.16115314534E-01  0.77954104595E-01  0.65061122395E-01  0.10280932134E+00  0.51100000000E-03 0.  1.
         11    1    4    4    0    0 -0.26031356891E-01  0.11035077454E-01  0.21350929975E-01  0.35433427830E-01  0.51100000000E-03 0. -1.
</event>
<event>
 8    1  0.2922807E+004  0.1043930E+01  0.7957747E-01            NaN
         13   -1    0    0    0    0  0.00000000000E+00  0.00000000000E+00  0.74505805969E-08  0.10566000000E+00  0.10566000000E+00 0.  1.
     999900   -1    0    0    0    0 -0.00000000000E+00 -0.00000000000E+00 -0.74505805969E-08  0.93827000000E+00  0.93827000000E+00 0. -1.
     999902    2    1    2    0    0  0.83113274987E-02  0.99761741127E-02 -0.40369906971E-02  0.10303322241E+01  0.10302424921E+01 0.  0.
     999903    2    3    3    0    0 -0.67835452833E-01 -0.73794819514E-01 -0.84505035319E-01  0.13943884233E+00  0.47484373306E-01 0.  0.
         14    1    1    2    0    0 -0.83113274987E-02 -0.99761741127E-02  0.40369906971E-02  0.13597775870E-01  0.00000000000E+00 0.  1.
     999901    1    3    3    0    0  0.76146780331E-01  0.83770993626E-01  0.80468044622E-01  0.89089338180E+00  0.88000000000E+00 0.  1.
        -11    1    4    4    0    0 -0.45638344521E-01 -0.41809795707E-01 -0.21789565192E-01  0.65619842883E-01  0.51100000000E-03 0.  1.
         11    1    4    4    0    0 -0.22197108311E-01 -0.31985023806E-01 -0.62715470127E-01  0.73818999448E-01  0.51100000000E-03 0. -1.
</event>
<event>
 8    1  0.2922807E+004  0.1043930E+01  0.7957747E-01            NaN
         13   -1    0    0    0    0  0.00000000000E+00  0.00000000000E+00  0.74505805969E-08  0.10566000000E+00  0.10566000000E+00 0.  1.
     999900   -1    0    0    0    0 -0.00000000000E+00 -0.00000000000E+00 -0.74505805969E-08  0.93827000000E+00  0.93827000000E+00 0.  1.
     999902    2    1    2    0    0 -0.33482979180E-02  0.13451709120E-01  0.12923429803E-02  0.10300077255E+01  0.10299136298E+01 0.  0.
     999903    2    3    3    0    0 -0.85085504667E-01 -0.17804033694E-02 -0.10114091980E+00  0.14017315573E+00  0.46650991298E-01 0.  0.
         14    1    1    2    0    0  0.33482979180E-02 -0.13451709120E-01 -0.12923429803E-02  0.13922274511E-01  0.00000000000E+00 0. -1.
     999901    1    3    3    0    0  0.81737206749E-01  0.15232112489E-01  0.10243326278E+00  0.88983456976E+00  0.88000000000E+00 0. -1.
        -11    1    4    4    0    0 -0.26044000269E-02  0.10790480373E-01 -0.24406652731E-01  0.26817218064E-01  0.51100000000E-03 0. -1.
         11    1    4    4    0    0 -0.82481104640E-01 -0.12570883742E-01 -0.76734267065E-01  0.11335593766E+00  0.51100000000E-03 0.  1.
</event>
<event>
 8    1  0.2922807E+004  0.1043930E+01  0.7957747E-01            NaN
         13   -1    0    0    0    0  0.00000000000E+00  0.00000000000E+00  0.74505805969E-08  0.10566000000E+00  0.10566000000E+00 0. -1.
     999900   -1    0    0    0    0 -0.00000000000E+00 -0.00000000000E+00 -0.74505805969E-08  0.93827000000E+00  0.93827000000E+00 0.  1.
     999902    2    1    2    0    0 -0.24058744783E-02 -0.12726048178E-01  0.33697980736E-02  0.10305473219E+01  0.10304604246E+01 0.  0.
     999903    2    3    3    0    0 -0.56278195575E-02  0.13052142799E+00  0.13241655239E-01  0.13890407826E+00  0.45293332899E-01 0.  0.
         14    1    1    2    0    0  0.24058744783E-02  0.12726048178E-01 -0.33697980736E-02  0.13382678106E-01  0.00000000000E+00 0.  1.
     999901    1    3    3    0    0  0.32219450792E-02 -0.14324747617E+00 -0.98718571656E-02  0.89164324364E+00  0.88000000000E+00 0. -1.
        -11    1    4    4    0    0  0.98226318215E-02  0.10932202805E-01  0.10886500797E-01  0.18296835100E-01  0.51100000000E-03 0.  1.
         11    1    4    4    0    0 -0.15450451379E-01  0.11958922519E+00  0.23551544421E-02  0.12060724316E+00  0.51100000000E-03 0. -1.
</event>
<event>
 8    1  0.2922807E+004  0.1043930E+01  0.7957747E-01            NaN
         13   -1    0    0    0    0  0.00000000000E+00  0.00000000000E+00  0.74505805969E-08  0.10566000000E+00  0.10566000000E+00 0.  1.
     999900   -1    0    0    0    0 -0.00000000000E+00 -0.00000000000E+00 -0.74505805969E-08  0.93827000000E+00  0.93827000000E+00 0.  1.
     999902    2    1    2    0    0 -0.67463789041E-02  0.11909511366E-01 -0.29674886343E-02  0.10299244269E+01  0.10298291941E+01 0.  0.
     999903    2    3    3    0    0 -0.12508957390E+00 -0.54898328667E-02 -0.46291760047E-01  0.14077604699E+00  0.44692601116E-01 0.  0.
         14    1    1    2    0    0  0.67463789041E-02 -0.11909511366E-01  0.29674886343E-02  0.14005573108E-01  0.00000000000E+00 0.  1.
     999901    1    3    3    0    0  0.11834319500E+00  0.17399344233E-01  0.43324271413E-01  0.88914837990E+00  0.88000000000E+00 0.  1.
        -11    1    4    4    0    0 -0.91119679055E-01 -0.25481841139E-02 -0.53813130530E-01  0.10585557752E+00  0.51100000000E-03 0.  1.
         11    1    4    4    0    0 -0.33969894848E-01 -0.29416487528E-02  0.75213704826E-02  0.34920469475E-01  0.51100000000E-03 0. -1.
</event>
<event>
 8    1  0.2922807E+004  0.1043930E+01  0.7957747E-01            NaN
         13   -1    0    0    0    0  0.00000000000E+00  0.00000000000E+00  0.74505805969E-08  0.10566000000E+00  0.10566000000E+00 0. -1.
     999900   -1    0    0    0    0 -0.00000000000E+00 -0.00000000000E+00 -0.74505805969E-08  0.93827000000E+00  0.93827000000E+00 0. -1.
     999902    2    1    2    0    0  0.39213970887E-02 -0.15143226205E-02 -0.12930444625E-01  0.10303334223E+01  0.10302437062E+01 0.  0.
     999903    2    3    3    0    0 -0.11233021993E-01 -0.12380613561E+00 -0.48897770711E-01  0.14101987098E+00  0.45182651897E-01 0.  0.
         14    1    1    2    0    0 -0.39213970887E-02  0.15143226205E-02  0.12930444625E-01  0.13596577743E-01  0.00000000000E+00 0. -1.
     999901    1    3    3    0    0  0.15154419082E-01  0.12229181299E+00  0.35967326087E-01  0.88931355128E+00  0.88000000000E+00 0.  1.
        -11    1    4    4    0    0  0.16576879336E-02 -0.23566456328E-01 -0.30021583311E-01  0.38205789858E-01  0.51100000000E-03 0. -1.
         11    1    4    4    0    0 -0.12890709927E-01 -0.10023967928E+00 -0.18876187400E-01  0.10281408112E+00  0.51100000000E-03 0.  1.
</event>
<event>
 8    1  0.2922807E+004  0.1043930E+01  0.7957747E-01            NaN
         13   -1    0    0    0    0  0.00000000000E+00  0.00000000000E+00  0.74505805969E-08  0.10566000000E+00  0.10566000000E+00 0. -1.
     999900   -1    0    0    0    0 -0.00000000000E+00 -0.00000000000E+00 -0.74505805969E-08  0.93827000000E+00  0.93827000000E+00 0. -1.
     999902    2    1    2    0    0  0.10908414348E-01  0.53108268652E-02  0.67638262761E-02  0.10300394373E+01  0.10299457727E+01 0.  0.
     999903    2    3    3    0    0  0.11084916855E+00 -0.61737382957E-01  0.41475995068E-01  0.14117018290E+00  0.45931685704E-01 0.  0.
         14    1    1    2    0    0 -0.10908414348E-01 -0.53108268652E-02 -0.67638262761E-02  0.13890562676E-01  0.00000000000E+00 0.  1.
     999901    1    3    3    0    0 -0.99940754202E-01  0.67048209822E-01 -0.34712168792E-01  0.88886925442E+00  0.88000000000E+00 0.  1.
        -11    1    4    4    0    0  0.16081988288E-01 -0.93345084843E-02 -0.10162302522E-01  0.21196624955E-01  0.51100000000E-03 0.  1.
         11    1    4    4    0    0  0.94767180262E-01 -0.52402874473E-01  0.51638297590E-01  0.11997355795E+00  0.51100000000E-03 0. -1.
</event>
<event>
 8    1  0.2922807E+004  0.1043930E+01  0.7957747E-01            NaN
         13   -1    0    0    0    0  0.00000000000E+00  0.00000000000E+00  0.74505805969E-08  0.10566000000E+00  0.10566000000E+00 0. -1.
     999900   -1    0    0    0    0 -0.00000000000E+00 -0.00000000000E+00 -0.74505805969E-08  0.93827000000E+00  0.93827000000E+00 0.  1.
     999902    2    1    2    0    0  0.10400711245E-01 -0.55150609743E-02  0.34475885355E-02  0.10316631113E+01  0.10315901796E+01 0.  0.
     999903    2    3    3    0    0 -0.35962048487E-01  0.11511652812E+00 -0.56257156720E-01  0.14022262400E+00  0.44186339738E-01 0.  0.
         14    1    1    2    0    0 -0.10400711245E-01  0.55150609743E-02 -0.34475885355E-02  0.12266888712E-01  0.00000000000E+00 0. -1.
     999901    1    3    3    0    0  0.46362759732E-01 -0.12063158910E+00  0.59704745256E-01  0.89144048729E+00  0.88000000000E+00 0. -1.
        -11    1    4    4    0    0 -0.38675866769E-01  0.52951237612E-01 -0.21857435162E-01  0.69120654133E-01  0.51100000000E-03 0. -1.
         11    1    4    4    0    0  0.27138182816E-02  0.62165290511E-01 -0.34399721559E-01  0.71101969862E-01  0.51100000000E-03 0.  1.
</event>
<event>
 8    1  0.2922807E+004  0.1043930E+01  0.7957747E-01            NaN
         13   -1    0    0    0    0  0.00000000000E+00  0.00000000000E+00  0.74505805969E-08  0.10566000000E+00  0.10566000000E+00 0. -1.
     999900   -1    0    0    0    0 -0.00000000000E+00 -0.00000000000E+00 -0.74505805969E-08  0.93827000000E+00  0.93827000000E+00 0. -1.
     999902    2    1    2    0    0  0.40437858537E-02  0.99220008734E-02 -0.90578717980E-02  0.10298999128E+01  0.10298043441E+01 0.  0.
     999903    2    3    3    0    0 -0.10529036069E+00 -0.14769746123E-01  0.75417235372E-01  0.13877720424E+00  0.47614573107E-01 0.  0.
         14    1    1    2    0    0 -0.40437858537E-02 -0.99220008734E-02  0.90578717980E-02  0.14030087201E-01  0.00000000000E+00 0. -1.
     999901    1    3    3    0    0  0.10933414654E+00  0.24691746997E-01 -0.84475107170E-01  0.89112270855E+00  0.88000000000E+00 0. -1.
        -11    1    4    4    0    0 -0.91162452069E-01  0.54200106424E-02  0.53803389598E-01  0.10599544818E+00  0.51100000000E-03 0.  1.
         11    1    4    4    0    0 -0.14127908620E-01 -0.20189756766E-01  0.21613845774E-01  0.32781756060E-01  0.51100000000E-03 0. -1.
</event>
<event>
 8    1  0.2922807E+004  0.1043930E+01  0.7957747E-01            NaN
         13   -1    0    0    0    0  0.00000000000E+00  0.00000000000E+00  0.74505805969E-08  0.10566000000E+00  0.10566000000E+00 0. -1.
     999900   -1    0    0    0    0 -0.00000000000E+00 -0.00000000000E+00 -0.74505805969E-08  0.93827000000E+00  0.93827000000E+00 0.  1.
     999902    2    1    2    0    0  0.12740487693E-01  0.37849342762E-04  0.46905032527E-02  0.10303534658E+01  0.10302640158E+01 0.  0.
     999903    2    3    3    0    0  0.85291519478E-01 -0.12234242490E-01  0.10299171077E+00  0.14182806729E+00  0.45646338295E-01 0.  0.
         14    1    1    2    0    0 -0.12740487693E-01 -0.37849342762E-04 -0.46905032527E-02  0.13576534167E-01  0.00000000000E+00 0.  1.
     999901    1    3    3    0    0 -0.72551031785E-01  0.12272091833E-01 -0.98301207521E-01  0.88852539854E+00  0.88000000000E+00 0.  1.
        -11    1    4    4    0    0  0.60695129043E-01 -0.20168035871E-01  0.44612368893E-01  0.77981875713E-01  0.51100000000E-03 0.  1.
         11    1    4    4    0    0  0.24596390435E-01  0.79337933812E-02  0.58379341880E-01  0.63846191580E-01  0.51100000000E-03 0. -1.
</event>
<event>
 8    1  0.2922807E+004  0.1043930E+01  0.7957747E-01            NaN
         13   -1    0    0    0    0  0.00000000000E+00  0.00000000000E+00  0.74505805969E-08  0.10566000000E+00  0.10566000000E+00 0. -1.
     999900   -1    0    0    0    0 -0.00000000000E+00 -0.00000000000E+00 -0.74505805969E-08  0.93827000000E+00  0.93827000000E+00 0. -1.
     999902    2    1    2    0    0 -0.11910459046E-01 -0.75940614772E-02 -0.11483054259E-02  0.10297579356E+01  0.10296604093E+01 0.  0.
     999903    2    3    3    0    0 -0.35105408343E-02 -0.25298119267E-01  0.12980788748E+00  0.13985147042E+00  0.45343438219E-01 0.  0.
         14    1    1    2    0    0  0.11910459046E-01  0.75940614772E-02  0.11483054259E-02  0.14172064414E-01  0.00000000000E+00 0. -1.
     999901    1    3    3    0    0 -0.83999182113E-02  0.17704057790E-01 -0.13095619291E+00  0.88990646517E+00  0.88000000000E+00 0. -1.
        -11    1    4    4    0    0  0.16433804844E-01  0.36771888916E-02  0.43577003405E-01  0.46720530889E-01  0.51100000000E-03 0. -1.
         11    1    4    4    0    0 -0.19944345678E-01 -0.28975308159E-01  0.86230884078E-01  0.93130939528E-01  0.51100000000E-03 0.  1.
</event>
<event>
 8    1  0.2922807E+004  0.1043930E+01  0.7957747E-01            NaN
         13   -1    0    0    0    0  0.00000000000E+00  0.00000000000E+00  0.74505805969E-08  0.10566000000E+00  0.10566000000E+00 0. -1.
     999900   -1    0    0    0    0 -0.00000000000E+00 -0.00000000000E+00 -0.74505805969E-08  0.93827000000E+00  0.93827000000E+00 0. -1.
     999902    2    1    2    0    0 -0.10918695823E-01 -0.25675371517E-02  0.95795122918E-02  0.10291795010E+01  0.10290737913E+01 0.  0.
     999903    2    3    3    0    0  0.79688622271E-02  0.72668747385E-01 -0.10800025932E+00  0.13797680740E+00  0.45047683132E-01 0.  0.
         14    1    1    2    0    0  0.10918695823E-01  0.25675371517E-02 -0.95795122918E-02  0.14750499017E-01  0.00000000000E+00 0. -1.
     999901    1    3    3    0    0 -0.18887558050E-01 -0.75236284537E-01  0.11757977161E+00  0.89120269358E+00  0.88000000000E+00 0.  1.
        -11    1    4    4    0    0 -0.12083394357E-01  0.54977839756E-01 -0.55471506910E-01  0.79031136163E-01  0.51100000000E-03 0. -1.
         11    1    4    4    0    0  0.20052256584E-01  0.17690907629E-01 -0.52528752408E-01  0.58945671236E-01  0.51100000000E-03 0.  1.
</event>
<event>
 8    1  0.2922807E+004  0.1043930E+01  0.7957747E-01            NaN
         13   -1    0    0    0    0  0.00000000000E+00  0.00000000000E+00  0.74505805969E-08  0.10566000000E+00  0.10566000000E+00 0.  1.
     999900   -1    0    0    0    0 -0.00000000000E+00 -0.00000000000E+00 -0.74505805969E-08  0.93827000000E+00  0.93827000000E+00 0. -1.
     999902    2    1    2    0    0 -0.31664449157E-02 -0.50411783382E-02  0.12602495754E-01  0.10299921827E+01  0.10298978753E+01 0.  0.
     999903    2    3    3    0    0 -0.70473059425E-01  0.11011149325E+00  0.20114774721E-01  0.13990974129E+00  0.45597571153E-01 0.  0.
         14    1    1    2    0    0  0.31664449157E-02  0.50411783382E-02 -0.12602495754E-01  0.13937817321E-01  0.00000000000E+00 0. -1.
     999901    1    3    3    0    0  0.67306614510E-01 -0.11515267159E+00 -0.75122789669E-02  0.89008244139E+00  0.88000000000E+00 0.  1.
        -11    1    4    4    0    0 -0.60720221246E-01  0.58719809011E-01  0.22915570636E-01  0.87523401082E-01  0.51100000000E-03 0. -1.
         11    1    4    4    0    0 -0.97528381798E-02  0.51391684242E-01 -0.28007959153E-02  0.52386340209E-01  0.51100000000E-03 0.  1.
</event>
<event>
 8    1  0.2922807E+004  0.1043930E+01  0.7957747E-01            NaN
         13   -1    0    0    0    0  0.00000000000E+00  0.00000000000E+00  0.74505805969E-08  0.10566000000E+00  0.10566000000E+00 0. -1.
     999900   -1    0    0    0    0 -0.00000000000E+00 -0.00000000000E+00 -0.74505805969E-08  0.93827000000E+00  0.93827000000E+00 0.  1.
     999902    2    1    2    0    0 -0.83392937444E-02 -0.11916461504E-01 -0.25828212313E-02  0.10291578356E+01  0.10290518130E+01 0.  0.
     999903    2    3    3    0    0 -0.56938406554E-01 -0.67220448805E-01 -0.10016923555E+00  0.14070777341E+00  0.44768637119E-01 0.  0.
         14    1    1    2    0    0  0.83392937444E-02  0.11916461504E-01  0.25828212313E-02  0.14772164379E-01  0.00000000000E+00 0.  1.
     999901    1    3    3    0    0  0.48599112810E-01  0.55303987301E-01  0.97586414320E-01  0.88845006221E+00  0.88000000000E+00 0. -1.
        -11    1    4    4    0    0 -0.36628804493E-01 -0.52442602487E-01 -0.39852227540E-01  0.75368143370E-01  0.51100000000E-03 0.  1.
         11    1    4    4    0    0 -0.20309602061E-01 -0.14777846318E-01 -0.60317008012E-01  0.65339630043E-01  0.51100000000E-03 0. -1.
</event>
<event>
 8    1  0.2922807E+004  0.1043930E+01  0.7957747E-01            NaN
         13   -1    0    0    0    0  0.00000000000E+00  0.00000000000E+00  0.74505805969E-08  0.10566000000E+00  0.10566000000E+00 0.  1.
     999900   -1    0    0    0    0 -0.00000000000E+00 -0.00000000000E+00 -0.74505805969E-08  0.93827000000E+00  0.93827000000E+00 0.  1.
     999902    2    1    2    0    0 -0.65520793094E-02 -0.53843619693E-02  0.13946553705E-01  0.10276073943E+01  0.10274777513E+01 0.  0.
     999903    2    3    3    0    0  0.10406845452E+00  0.20769823142E-01  0.76533872865E-01  0.13809173033E+00  0.44161787889E-01 0.  0.
         14    1    1    2    0    0  0.65520793094E-02  0.53843619693E-02 -0.13946553705E-01  0.16322605716E-01  0.00000000000E+00 0. -1.
     999901    1    3    3    0    0 -0.11062053383E+00 -0.26154185111E-01 -0.62587319159E-01  0.88951566396E+00  0.88000000000E+00 0.  1.
        -11    1    4    4    0    0  0.99656014094E-01  0.20770603643E-01  0.54215629451E-01  0.11533574779E+00  0.51100000000E-03 0.  1.
         11    1    4    4    0    0  0.44124404270E-02 -0.78050110407E-06  0.22318243414E-01  0.22755982536E-01  0.51100000000E-03 0. -1.
</event>
<event>
 8    1  0.2922807E+004  0.1043930E+01  0.7957747E-01            NaN
         13   -1    0    0    0    0  0.00000000000E+00  0.00000000000E+00  0.74505805969E-08  0.10566000000E+00  0.10566000000E+00 0.  1.
     999900   -1    0    0    0    0 -0.00000000000E+00 -0.00000000000E+00 -0.74505805969E-08  0.93827000000E+00  0.93827000000E+00 0. -1.
     999902    2    1    2    0    0  0.10887406256E-01  0.59880557647E-02 -0.87324041384E-02  0.10287429230E+01  0.10286308153E+01 0.  0.
     999903    2    3    3    0    0  0.59644805597E-04  0.13102994315E+00 -0.17671534533E-01  0.13979263073E+00  0.45396551768E-01 0.  0.
         14    1    1    2    0    0 -0.10887406256E-01 -0.59880557647E-02  0.87324041384E-02  0.15187077035E-01  0.00000000000E+00 0.  1.
     999901    1    3    3    0    0  0.10827761451E-01 -0.12504188739E+00  0.89391303948E-02  0.88895029224E+00  0.88000000000E+00 0. -1.
        -11    1    4    4    0    0 -0.27959127037E-02  0.44099226608E-02  0.89475682185E-02  0.10372301757E-01  0.51100000000E-03 0. -1.
         11    1    4    4    0    0  0.28555575093E-02  0.12662002049E+00 -0.26619102752E-01  0.12942032897E+00  0.51100000000E-03 0.  1.
</event>
<event>
 8    1  0.2922807E+004  0.1043930E+01  0.7957747E-01            NaN
         13   -1    0    0    0    0  0.00000000000E+00  0.00000000000E+00  0.74505805969E-08  0.10566000000E+00  0.10566000000E+00 0.  1.
     999900   -1    0    0    0    0 -0.00000000000E+00 -0.00000000000E+00 -0.74505805969E-08  0.93827000000E+00  0.93827000000E+00 0.  1.
     999902    2    1    2    0    0 -0.20478113504E-02  0.14708944650E-01 -0.19279843054E-02  0.10289545632E+01  0.10288455809E+01 0.  0.
     999903    2    3    3    0    0  0.75038737158E-01  0.72580959929E-01  0.81151626354E-01  0.13980118620E+00  0.45386973731E-01 0.  0.
         14    1    1    2    0    0  0.20478113504E-02 -0.14708944650E-01  0.19279843054E-02  0.14975436805E-01  0.00000000000E+00 0.  1.
     999901    1    3    3    0    0 -0.77086548509E-01 -0.57872015280E-01 -0.83079610660E-01  0.88915337699E+00  0.88000000000E+00 0.  1.
        -11    1    4    4    0    0  0.30959548783E-01  0.10274609179E-01  0.69560355626E-02  0.33357290154E-01  0.51100000000E-03 0. -1.
         11    1    4    4    0    0  0.44079188375E-01  0.62306350750E-01  0.74195590792E-01  0.10644389605E+00  0.51100000000E-03 0.  1.
</event>
<event>
 8    1  0.2922807E+004  0.1043930E+01  0.7957747E-01            NaN
         13   -1    0    0    0    0  0.00000000000E+00  0.00000000000E+00  0.74505805969E-08  0.10566000000E+00  0.10566000000E+00 0.  1.
     999900   -1    0    0    0    0 -0.00000000000E+00 -0.00000000000E+00 -0.74505805969E-08  0.93827000000E+00  0.93827000000E+00 0.  1.
     999902    2    1    2    0    0  0.42945590511E-03  0.76769744048E-02 -0.12390802752E-01  0.10293473953E+01  0.10292440953E+01 0.  0.
     999903    2    3    3    0    0  0.10918659933E+00 -0.73377903502E-01 -0.36509323524E-02  0.13891244827E+00  0.44466940319E-01 0.  0.
         14    1    1    2    0    0 -0.42945590511E-03 -0.76769744048E-02  0.12390802752E-01  0.14582604748E-01  0.00000000000E+00 0.  1.
     999901    1    3    3    0    0 -0.10875714342E+00  0.81054877906E-01 -0.87398703995E-02  0.89043494699E+00  0.88000000000E+00 0. -1.
        -11    1    4    4    0    0  0.16396614760E-01  0.50972973975E-02  0.17444939874E-02  0.17266609297E-01  0.51100000000E-03 0. -1.
         11    1    4    4    0    0  0.92789984569E-01 -0.78475200899E-01 -0.53954263398E-02  0.12164583897E+00  0.51100000000E-03 0.  1.
</event>
<event>
 8    1  0.2922807E+004  0.1043930E+01  0.7957747E-01            NaN
         13   -1    0    0    0    0  0.00000000000E+00  0.00000000000E+00  0.74505805969E-08  0.10566000000E+00  0.10566000000E+00 0. -1.
     999900   -1    0    0    0    0 -0.00000000000E+00 -0.00000000000E+00 -0.74505805969E-08  0.93827000000E+00  0.93827000000E+00 0.  1.
     999902    2    1    2    0    0 -0.11147109146E-01 -0.22856857409E-03 -0.87371776721E-02  0.10297649529E+01  0.10296675238E+01 0.  0.
     999903    2    3    3    0    0  0.28288233731E-01  0.20889487522E-01  0.12828654133E+00  0.13803819086E+00  0.36885099872E-01 0.  0.
         14    1    1    2    0    0  0.11147109146E-01  0.22856857409E-03  0.87371776721E-02  0.14165047108E-01  0.00000000000E+00 0. -1.
     999901    1    3    3    0    0 -0.39435342876E-01 -0.21118056096E-01 -0.13702371900E+00  0.89172676204E+00  0.88000000000E+00 0.  1.
        -11    1    4    4    0    0  0.21039897270E-01 -0.41920545946E-03  0.26769401210E-01  0.34054588127E-01  0.51100000000E-03 0.  1.
         11    1    4    4    0    0  0.72483364611E-02  0.21308692982E-01  0.10151714012E+00  0.10398360273E+00  0.51100000000E-03 0. -1.
</event>
<event>
 8    1  0.2922807E+004  0.1043930E+01  0.7957747E-01            NaN
         13   -1    0    0    0    0  0.00000000000E+00  0.00000000000E+00  0.74505805969E-08  0.10566000000E+00  0.10566000000E+00 0.  1.
     999900   -1    0    0    0    0 -0.00000000000E+00 -0.00000000000E+00 -0.74505805969E-08  0.93827000000E+00  0.93827000000E+00 0.  1.
     999902    2    1    2    0    0  0.13880336449E-01  0.46232438323E-03 -0.15046664160E-02  0.10299606942E+01  0.10298659573E+01 0.  0.
     999903    2    3    3    0    0  0.11950513325E+00 -0.24260924176E-01  0.55391378773E-01  0.14147603103E+00  0.45576235024E-01 0.  0.
         14    1    1    2    0    0 -0.13880336449E-01 -0.46232438323E-03  0.15046664160E-02  0.13969305809E-01  0.00000000000E+00 0.  1.
     999901    1    3    3    0    0 -0.10562479680E+00  0.24723248559E-01 -0.56896045189E-01  0.88848466316E+00  0.88000000000E+00 0.  1.
        -11    1    4    4    0    0  0.87531663140E-01 -0.10895065521E-02  0.23292429285E-01  0.90585746448E-01  0.51100000000E-03 0. -1.
         11    1    4    4    0    0  0.31973470106E-01 -0.23171417624E-01  0.32098949489E-01  0.50890284579E-01  0.51100000000E-03 0.  1.
</event>
<event>
 8    1  0.2922807E+004  0.1043930E+01  0.7957747E-01            NaN
         13   -1    0    0    0    0  0.00000000000E+00  0.00000000000E+00  0.74505805969E-08  0.10566000000E+00  0.10566000000E+00 0.  1.
     999900   -1    0    0    0    0 -0.00000000000E+00 -0.00000000000E+00 -0.74505805969E-08  0.93827000000E+00  0.93827000000E+00 0. -1.
     999902    2    1    2    0    0  0.90979453286E-02  0.11128054274E-01  0.47115309952E-02  0.10288037075E+01  0.10286925021E+01 0.  0.
     999903    2    3    3    0    0  0.16084739428E-01 -0.12025702308E+00 -0.47624568569E-01  0.13748450475E+00  0.43742645904E-01 0.  0.
         14    1    1    2    0    0 -0.90979453286E-02 -0.11128054274E-01 -0.47115309952E-02  0.15126292521E-01  0.00000000000E+00 0.  1.
     999901    1    3    3    0    0 -0.69867940989E-02  0.13138507736E+00  0.52336099564E-01  0.89131920273E+00  0.88000000000E+00 0. -1.
        -11    1    4    4    0    0 -0.67131652108E-02 -0.15357818119E-01 -0.21017184247E-01  0.26887028828E-01  0.51100000000E-03 0. -1.
         11    1    4    4    0    0  0.22797904638E-01 -0.10489920496E+00 -0.26607384322E-01  0.11059747592E+00  0.51100000000E-03 0.  1.
</event>
<event>
 8    1  0.2922807E+004  0.1043930E+01  0.7957747E-01            NaN
         13   -1    0    0    0    0  0.00000000000E+00  0.00000000000E+00  0.74505805969E-08  0.10566000000E+00  0.10566000000E+00 0. -1.
     999900   -1    0    0    0    0 -0.00000000000E+00 -0.00000000000E+00 -0.74505805969E-08  0.93827000000E+00  0.93827000000E+00 0. -1.
     999902    2    1    2    0    0 -0.11018411736E-01  0.74369629886E-02  0.37633033954E-02  0.10301142022E+01  0.10300215499E+01 0.  0.
     999903    2    3    3    0    0 -0.99494363891E-01  0.29699661674E-01 -0.84955951947E-01  0.14096026272E+00  0.43256023241E-01 0.  0.
         14    1    1    2    0    0  0.11018411736E-01 -0.74369629886E-02 -0.37633033954E-02  0.13815797774E-01  0.00000000000E+00 0.  1.
     999901    1    3    3    0    0  0.88475952154E-01 -0.22262698685E-01  0.88719255343E-01  0.88915393950E+00  0.88000000000E+00 0.  1.
        -11    1    4    4    0    0 -0.38552586522E-01  0.12994855926E-01 -0.61116639113E-01  0.73421202017E-01  0.51100000000E-03 0.  1.
         11    1    4    4    0    0 -0.60941777369E-01  0.16704805748E-01 -0.23839312834E-01  0.67539060708E-01  0.51100000000E-03 0. -1.
</event>
<event>
 8    1  0.2922807E+004  0.1043930E+01  0.7957747E-01            NaN
         13   -1    0    0    0    0  0.00000000000E+00  0.00000000000E+00  0.74505805969E-08  0.10566000000E+00  0.10566000000E+00 0. -1.
     999900   -1    0    0    0    0 -0.00000000000E+00 -0.00000000000E+00 -0.74505805969E-08  0.93827000000E+00  0.93827000000E+00 0.  1.
     999902    2    1    2    0    0  0.71328968924E-02 -0.18576732553E-01  0.11103766746E-02  0.10239999687E+01  0.10238060020E+01 0.  0.
     999903    2    3    3    0    0 -0.89579086476E-05 -0.11208184946E+00 -0.64714059566E-01  0.13657274952E+00  0.43610381166E-01 0.  0.
         14    1    1    2    0    0 -0.71328968924E-02  0.18576732553E-01 -0.11103766746E-02  0.19930031279E-01  0.00000000000E+00 0. -1.
     999901    1    3    3    0    0  0.71418548010E-02  0.93505116912E-01  0.65824436240E-01  0.88742721920E+00  0.88000000000E+00 0. -1.
        -11    1    4    4    0    0 -0.13090653067E-01 -0.10369720390E+00 -0.58899003770E-01  0.11997428500E+00  0.51100000000E-03 0. -1.
         11    1    4    4    0    0  0.13081695159E-01 -0.83846455613E-02 -0.58150557956E-02  0.16598464517E-01  0.51100000000E-03 0.  1.
</event>
<event>
 8    1  0.2922807E+004  0.1043930E+01  0.7957747E-01            NaN
         13   -1    0    0    0    0  0.00000000000E+00  0.00000000000E+00  0.74505805969E-08  0.10566000000E+00  0.10566000000E+00 0. -1.
     999900   -1    0    0    0    0 -0.00000000000E+00 -0.00000000000E+00 -0.74505805969E-08  0.93827000000E+00  0.93827000000E+00 0.  1.
     999902    2    1    2    0    0  0.76016077107E-02  0.30321411083E-02 -0.11072708274E-01  0.10301610789E+01  0.10300690585E+01 0.  0.
     999903    2    3    3    0    0  0.97553089056E-01 -0.15313174670E-01  0.88345266114E-01  0.13981746365E+00  0.44642340810E-01 0.  0.
         14    1    1    2    0    0 -0.76016077107E-02 -0.30321411083E-02  0.11072708274E-01  0.13768921091E-01  0.00000000000E+00 0. -1.
     999901    1    3    3    0    0 -0.89951481345E-01  0.18345315779E-01 -0.99417974388E-01  0.89034361526E+00  0.88000000000E+00 0.  1.
        -11    1    4    4    0    0 -0.97312342482E-03  0.30212223289E-02  0.15733088285E-01  0.16058204804E-01  0.51100000000E-03 0. -1.
         11    1    4    4    0    0  0.98526212481E-01 -0.18334396999E-01  0.72612177829E-01  0.12375925884E+00  0.51100000000E-03 0.  1.
</event>
<event>
 8    1  0.2922807E+004  0.1043930E+01  0.7957747E-01            NaN
         13   -1    0    0    0    0  0.00000000000E+00  0.00000000000E+00  0.74505805969E-08  0.10566000000E+00  0.10566000000E+00 0.  1.
     999900   -1    0    0    0    0 -0.00000000000E+00 -0.00000000000E+00 -0.74505805969E-08  0.93827000000E+00  0.93827000000E+00 0.  1.
     999902    2    1    2    0    0  0.87175798169E-02 -0.15398100030E-02  0.12124411139E-01  0.10289177198E+01  0.10288081966E+01 0.  0.
     999903    2    3    3    0    0 -0.47250852832E-01  0.12148258098E+00 -0.10220046946E-01  0.13831890494E+00  0.45133241966E-01 0.  0.
         14    1    1    2    0    0 -0.87175798169E-02  0.15398100030E-02 -0.12124411139E-01  0.15012280246E-01  0.00000000000E+00 0. -1.
     999901    1    3    3    0    0  0.55968432649E-01 -0.12302239098E+00  0.22344458085E-01  0.89059881481E+00  0.88000000000E+00 0.  1.
        -11    1    4    4    0    0 -0.39419651009E-01  0.11637353906E+00 -0.20327912538E-01  0.12453993186E+00  0.51100000000E-03 0.  1.
         11    1    4    4    0    0 -0.78312018233E-02  0.51090419179E-02  0.10107865592E-01  0.13778973080E-01  0.51100000000E-03 0. -1.
</event>
<event>
 8    1  0.2922807E+004  0.1043930E+01  0.7957747E-01            NaN
         13   -1    0    0    0    0  0.00000000000E+00  0.00000000000E+00  0.74505805969E-08  0.10566000000E+00  0.10566000000E+00 0. -1.
     999900   -1    0    0    0    0 -0.00000000000E+00 -0.00000000000E+00 -0.74505805969E-08  0.93827000000E+00  0.93827000000E+00 0. -1.
     999902    2    1    2    0    0  0.54245338520E-02  0.12500804401E-01  0.25121561476E-02  0.10300733551E+01  0.10299801505E+01 0.  0.
     999903    2    3    3    0    0  0.84945689725E-01 -0.63234912076E-01  0.78100481365E-01  0.14003228424E+00  0.47905439488E-01 0.  0.
         14    1    1    2    0    0 -0.54245338520E-02 -0.12500804401E-01 -0.25121561476E-02  0.13856644857E-01  0.00000000000E+00 0. -1.
     999901    1    3    3    0    0 -0.79521155873E-01  0.75735716477E-01 -0.75588325217E-01  0.89004107090E+00  0.88000000000E+00 0. -1.
        -11    1    4    4    0    0  0.33746839497E-01 -0.54602526317E-01  0.40081073740E-01  0.75677200327E-01  0.51100000000E-03 0. -1.
         11    1    4    4    0    0  0.51198850228E-01 -0.86323857592E-02  0.38019407625E-01  0.64355083915E-01  0.51100000000E-03 0.  1.
</event>
<event>
 8    1  0.2922807E+004  0.1043930E+01  0.7957747E-01            NaN
         13   -1    0    0    0    0  0.00000000000E+00  0.00000000000E+00  0.74505805969E-08  0.10566000000E+00  0.10566000000E+00 0.  1.
     999900   -1    0    0    0    0 -0.00000000000E+00 -0.00000000000E+00 -0.74505805969E-08  0.93827000000E+00  0.93827000000E+00 0.  1.
     999902    2    1    2    0    0 -0.30069152393E-02  0.37175990583E-02 -0.12923378934E-01  0.10301504570E+01  0.10300582936E+01 0.  0.
     999903    2    3    3    0    0  0.65581495037E-01 -0.51353919671E-01  0.10114707140E+00  0.13843900713E+00  0.44681887658E-01 0.  0.
         14    1    1    2    0    0  0.30069152393E-02 -0.37175990583E-02  0.12923378934E-01  0.13779542993E-01  0.00000000000E+00 0.  1.
     999901    1    3    3    0    0 -0.68588410277E-01  0.55071518730E-01 -0.11407045034E+00  0.89171144988E+00  0.88000000000E+00 0.  1.
        -11    1    4    4    0    0  0.64608912670E-02 -0.31458434571E-01  0.32925292006E-01  0.45996871593E-01  0.51100000000E-03 0. -1.
         11    1    4    4    0    0  0.59120603770E-01 -0.19895485100E-01  0.68221779398E-01  0.92442135538E-01  0.51100000000E-03 0.  1.
</event>
<event>
 8    1  0.2922807E+004  0.1043930E+01  0.7957747E-01            NaN
         13   -1    0    0    0    0  0.00000000000E+00  0.00000000000E+00  0.74505805969E-08  0.10566000000E+00  0.10566000000E+00 0. -1.
     999900   -1    0    0    0    0 -0.00000000000E+00 -0.00000000000E+00 -0.74505805969E-08  0.93827000000E+00  0.93827000000E+00 0.  1.
     999902    2    1    2    0    0  0.50691463941E-02 -0.38315522944E-02 -0.10911920927E-01  0.10313027653E+01  0.10312254587E+01 0.  0.
     999903    2    3    3    0    0  0.84291434694E-01  0.46795081429E-01  0.91473053275E-01  0.14039204588E+00  0.45252419422E-01 0.  0.
         14    1    1    2    0    0 -0.50691463941E-02  0.38315522944E-02  0.10911920927E-01  0.12627234712E-01  0.00000000000E+00 0. -1.
     999901    1    3    3    0    0 -0.79222288299E-01 -0.50626633723E-01 -0.10238497420E+00  0.89091071940E+00  0.88000000000E+00 0.  1.
        -11    1    4    4    0    0  0.64538032470E-01  0.14355662012E-01  0.43252807173E-01  0.79008285111E-01  0.51100000000E-03 0. -1.
         11    1    4    4    0    0  0.19753402224E-01  0.32439419417E-01  0.48220246102E-01  0.61383760774E-01  0.51100000000E-03 0.  1.
</event>
<event>
 8    1  0.2922807E+004  0.1043930E+01  0.7957747E-01            NaN
         13   -1    0    0    0    0  0.00000000000E+00  0.00000000000E+00  0.74505805969E-08  0.10566000000E+00  0.10566000000E+00 0.  1.
     999900   -1    0    0    0    0 -0.00000000000E+00 -0.00000000000E+00 -0.74505805969E-08  0.93827000000E+00  0.93827000000E+00 0.  1.
     999902    2    1    2    0    0  0.17011288406E-02 -0.66884306967E-02 -0.11794888154E-01  0.10302644107E+01  0.10301737754E+01 0.  0.
     999903    2    3    3    0    0  0.12416775871E+00 -0.10718128573E-01  0.45132206960E-01  0.13995266301E+00  0.44914598911E-01 0.  0.
         14    1    1    2    0    0 -0.17011288406E-02  0.66884306967E-02  0.11794888154E-01  0.13665589306E-01  0.00000000000E+00 0.  1.
     999901    1    3    3    0    0 -0.12246662987E+00  0.40296978760E-02 -0.56927095114E-01  0.89031174768E+00  0.88000000000E+00 0.  1.
        -11    1    4    4    0    0  0.95064628739E-01 -0.13418547809E-01  0.53018706953E-01  0.10967490812E+00  0.51100000000E-03 0. -1.
         11    1    4    4    0    0  0.29103129976E-01  0.27004192365E-02 -0.78864999934E-02  0.30277754897E-01  0.51100000000E-03 0.  1.
</event>
<event>
 8    1  0.2922807E+004  0.1043930E+01  0.7957747E-01            NaN
         13   -1    0    0    0    0  0.00000000000E+00  0.00000000000E+00  0.74505805969E-08  0.10566000000E+00  0.10566000000E+00 0.  1.
     999900   -1    0    0    0    0 -0.00000000000E+00 -0.00000000000E+00 -0.74505805969E-08  0.93827000000E+00  0.93827000000E+00 0.  1.
     999902    2    1    2    0    0  0.29810421243E-02 -0.56133984069E-02 -0.12102744690E-01  0.10302598397E+01  0.10301691434E+01 0.  0.
     999903    2    3    3    0    0 -0.30080728000E-01 -0.11853846269E-02 -0.12885037799E+00  0.14192279902E+00  0.51316718908E-01 0.  0.
         14    1    1    2    0    0 -0.29810421243E-02  0.56133984069E-02  0.12102744690E-01  0.13670160308E-01  0.00000000000E+00 0.  1.
     999901    1    3    3    0    0  0.33061770124E-01 -0.44280137800E-02  0.11674763330E+00  0.88833704067E+00  0.88000000000E+00 0. -1.
        -11    1    4    4    0    0  0.10066452528E-01 -0.11386465258E-01 -0.56918624589E-01  0.58914989635E-01  0.51100000000E-03 0. -1.
         11    1    4    4    0    0 -0.40147180528E-01  0.10201080631E-01 -0.71931753401E-01  0.83007809384E-01  0.51100000000E-03 0.  1.
</event>
<event>
 8    1  0.2922807E+004  0.1043930E+01  0.7957747E-01            NaN
         13   -1    0    0    0    0  0.00000000000E+00  0.00000000000E+00  0.74505805969E-08  0.10566000000E+00  0.10566000000E+00 0.  1.
     999900   -1    0    0    0    0 -0.00000000000E+00 -0.00000000000E+00 -0.74505805969E-08  0.93827000000E+00  0.93827000000E+00 0.  1.
     999902    2    1    2    0    0  0.14809247224E-01  0.11428826670E-01  0.23002543517E-02  0.10250826380E+01  0.10249093578E+01 0.  0.
     999903    2    3    3    0    0  0.11183500687E+00 -0.16790871260E-01 -0.62340780751E-01  0.13694480370E+00  0.45590615234E-01 0.  0.
         14    1    1    2    0    0 -0.14809247224E-01 -0.11428826670E-01 -0.23002543517E-02  0.18847361951E-01  0.00000000000E+00 0. -1.
     999901    1    3    3    0    0 -0.97025759641E-01  0.28219697930E-01  0.64641035102E-01  0.88813783435E+00  0.88000000000E+00 0. -1.
        -11    1    4    4    0    0  0.29265613794E-01  0.14152220002E-01 -0.25758061346E-01  0.41478914246E-01  0.51100000000E-03 0. -1.
         11    1    4    4    0    0  0.82569393071E-01 -0.30943091263E-01 -0.36582719405E-01  0.95465889453E-01  0.51100000000E-03 0.  1.
</event>
<event>
 8    1  0.2922807E+004  0.1043930E+01  0.7957747E-01            NaN
         13   -1    0    0    0    0  0.00000000000E+00  0.00000000000E+00  0.74505805969E-08  0.10566000000E+00  0.10566000000E+00 0. -1.
     999900   -1    0    0    0    0 -0.00000000000E+00 -0.00000000000E+00 -0.74505805969E-08  0.93827000000E+00  0.93827000000E+00 0.  1.
     999902    2    1    2    0    0  0.58191880660E-02  0.64361764666E-02  0.10868543570E-01  0.10300227157E+01  0.10299288239E+01 0.  0.
     999903    2    3    3    0    0  0.46858416311E-02 -0.12432745495E+00 -0.41114087817E-01  0.13884225937E+00  0.45907859933E-01 0.  0.
         14    1    1    2    0    0 -0.58191880660E-02 -0.64361764666E-02 -0.10868543570E-01  0.13907284300E-01  0.00000000000E+00 0.  1.
     999901    1    3    3    0    0  0.11333464350E-02  0.13076363142E+00  0.51982631388E-01  0.89118045633E+00  0.88000000000E+00 0.  1.
        -11    1    4    4    0    0 -0.87770817152E-02 -0.94803414178E-01 -0.13365557800E-01  0.96143766099E-01  0.51100000000E-03 0.  1.
         11    1    4    4    0    0  0.13462923346E-01 -0.29524040774E-01 -0.27748530017E-01  0.42698493273E-01  0.51100000000E-03 0. -1.
</event>
<event>
 8    1  0.2922807E+004  0.1043930E+01  0.7957747E-01            NaN
         13   -1    0    0    0    0  0.00000000000E+00  0.00000000000E+00  0.74505805969E-08  0.10566000000E+00  0.10566000000E+00 0.  1.
     999900   -1    0    0    0    0 -0.00000000000E+00 -0.00000000000E+00 -0.74505805969E-08  0.93827000000E+00  0.93827000000E+00 0.  1.
     999902    2    1    2    0    0  0.10627374171E-01 -0.26794685033E-02 -0.80798551231E-02  0.10303136608E+01  0.10302236820E+01 0.  0.
     999903    2    3    3    0    0  0.86225197841E-01  0.43127183626E-01 -0.93347876403E-01  0.14178458660E+00  0.45763569112E-01 0.  0.
         14    1    1    2    0    0 -0.10627374171E-01  0.26794685033E-02  0.80798551231E-02  0.13616339157E-01  0.00000000000E+00 0.  1.
     999901    1    3    3    0    0 -0.75597823670E-01 -0.45806652130E-01  0.85268021280E-01  0.88852907424E+00  0.88000000000E+00 0. -1.
        -11    1    4    4    0    0  0.85804902651E-01  0.46370443242E-01 -0.74722740645E-01  0.12286760523E+00  0.51100000000E-03 0.  1.
         11    1    4    4    0    0  0.42029519032E-03 -0.32432596158E-02 -0.18625135758E-01  0.18916981366E-01  0.51100000000E-03 0. -1.
</event>
<event>
 8    1  0.2922807E+004  0.1043930E+01  0.7957747E-01            NaN
         13   -1    0    0    0    0  0.00000000000E+00  0.00000000000E+00  0.74505805969E-08  0.10566000000E+00  0.10566000000E+00 0.  1.
     999900   -1    0    0    0    0 -0.00000000000E+00 -0.00000000000E+00 -0.74505805969E-08  0.93827000000E+00  0.93827000000E+00 0.  1.
     999902    2    1    2    0    0  0.70175970948E-03 -0.73583340975E-02  0.11371617179E-01  0.10303671380E+01  0.10302778693E+01 0.  0.
     999903    2    3    3    0    0  0.12876624792E+00 -0.77974822522E-02 -0.30275491322E-01  0.14012268417E+00  0.45565490355E-01 0.  0.
         14    1    1    2    0    0 -0.70175970948E-03  0.73583340975E-02 -0.11371617179E-01  0.13562861963E-01  0.00000000000E+00 0. -1.
     999901    1    3    3    0    0 -0.12806448821E+00  0.43914815470E-03  0.41647108501E-01  0.89024445387E+00  0.88000000000E+00 0. -1.
        -11    1    4    4    0    0  0.44078674344E-01 -0.12583989470E-02  0.11340866680E-01  0.45534486688E-01  0.51100000000E-03 0. -1.
         11    1    4    4    0    0  0.84687573577E-01 -0.65390833052E-02 -0.41616358001E-01  0.94588197483E-01  0.51100000000E-03 0.  1.
</event>
<event>
 8    1  0.2922807E+004  0.1043930E+01  0.7957747E-01            NaN
         13   -1    0    0    0    0  0.00000000000E+00  0.00000000000E+00  0.74505805969E-08  0.10566000000E+00  0.10566000000E+00 0. -1.
     999900   -1    0    0    0    0 -0.00000000000E+00 -0.00000000000E+00 -0.74505805969E-08  0.93827000000E+00  0.93827000000E+00 0. -1.
     999902    2    1    2    0    0  0.10209136352E-01 -0.71402903091E-02  0.46938649720E-02  0.10306167517E+01  0.10305307596E+01 0.  0.
     999903    2    3    3    0    0 -0.86160076756E-01 -0.45852203741E-01  0.89382837336E-01  0.14047189863E+00  0.47085871354E-01 0.  0.
         14    1    1    2    0    0 -0.10209136352E-01  0.71402903091E-02 -0.46938649720E-02  0.13313248256E-01  0.00000000000E+00 0.  1.
     999901    1    3    3    0    0  0.96369213109E-01  0.38711913432E-01 -0.84688972364E-01  0.89014485311E+00  0.88000000000E+00 0. -1.
        -11    1    4    4    0    0 -0.26163314428E-01 -0.20277673946E-01  0.60869032112E-01  0.69289272429E-01  0.51100000000E-03 0. -1.
         11    1    4    4    0    0 -0.59996762328E-01 -0.25574529795E-01  0.28513805224E-01  0.71182626205E-01  0.51100000000E-03 0.  1.
</event>
<event>
 8    1  0.2922807E+004  0.1043930E+01  0.7957747E-01            NaN
         13   -1    0    0    0    0  0.00000000000E+00  0.00000000000E+00  0.74505805969E-08  0.10566000000E+00  0.10566000000E+00 0.  1.
     999900   -1    0    0    0    0 -0.00000000000E+00 -0.00000000000E+00 -0.74505805969E-08  0.93827000000E+00  0.93827000000E+00 0. -1.
     999902    2    1    2    0    0 -0.13581619024E-01  0.23557676937E-02 -0.29205249594E-02  0.10298395961E+01  0.10297431982E+01 0.  0.
     999903    2    3    3    0    0  0.24946358246E-01 -0.60677335582E-01 -0.11481388775E+00  0.13968359751E+00  0.45002430483E-01 0.  0.
         14    1    1    2    0    0  0.13581619024E-01 -0.23557676937E-02  0.29205249594E-02  0.14090403926E-01  0.00000000000E+00 0.  1.
     999901    1    3    3    0    0 -0.38527977271E-01  0.63033103276E-01  0.11189336279E+00  0.89015599856E+00  0.88000000000E+00 0.  1.
        -11    1    4    4    0    0  0.29108163364E-02  0.14250488162E-02 -0.39393436672E-01  0.39529831643E-01  0.51100000000E-03 0.  1.
         11    1    4    4    0    0  0.22035541910E-01 -0.62102384398E-01 -0.75420451082E-01  0.10015376587E+00  0.51100000000E-03 0. -1.
</event>
<event>
 8    1  0.2922807E+004  0.1043930E+01  0.7957747E-01            NaN
         13   -1    0    0    0    0  0.00000000000E+00  0.00000000000E+00  0.74505805969E-08  0.10566000000E+00  0.10566000000E+00 0.  1.
     999900   -1    0    0    0    0 -0.00000000000E+00 -0.00000000000E+00 -0.74505805969E-08  0.93827000000E+00  0.93827000000E+00 0. -1.
     999902    2    1    2    0    0  0.73928373471E-02  0.97475687130E-02 -0.75414374287E-02  0.10295584163E+01  0.10294581051E+01 0.  0.
     999903    2    3    3    0    0  0.11661912591E+00 -0.51679796031E-01  0.34323459494E-01  0.13969529600E+00  0.45451666723E-01 0.  0.
         14    1    1    2    0    0 -0.73928373471E-02 -0.97475687130E-02  0.75414374287E-02  0.14371583710E-01  0.00000000000E+00 0.  1.
     999901    1    3    3    0    0 -0.10922628856E+00  0.61427364744E-01 -0.41864896923E-01  0.88986312029E+00  0.88000000000E+00 0. -1.
        -11    1    4    4    0    0  0.27416683758E-01 -0.15380582654E-02 -0.85232740444E-02  0.28756694750E-01  0.51100000000E-03 0. -1.
         11    1    4    4    0    0  0.89202442152E-01 -0.50141737766E-01  0.42846733538E-01  0.11093860125E+00  0.51100000000E-03 0.  1.
</event>
<event>
 8    1  0.2922807E+004  0.1043930E+01  0.7957747E-01            NaN
         13   -1    0    0    0    0  0.00000000000E+00  0.00000000000E+00  0.74505805969E-08  0.10566000000E+00  0.10566000000E+00 0.  1.
     999900   -1    0    0    0    0 -0.00000000000E+00 -0.00000000000E+00 -0.74505805969E-08  0.93827000000E+00  0.93827000000E+00 0.  1.
     999902    2    1    2    0    0 -0.94379005202E-02  0.32021557089E-02  0.89882750079E-02  0.10305092379E+01  0.10304218420E+01 0.  0.
     999903    2    3    3    0    0  0.47250270446E-01  0.23004481951E-02  0.12510872872E+00  0.14107215662E+00  0.44847288119E-01 0.  0.
         14    1    1    2    0    0  0.94379005202E-02 -0.32021557089E-02 -0.89882750079E-02  0.13420762088E-01  0.00000000000E+00 0. -1.
     999901    1    3    3    0    0 -0.56688170966E-01  0.90170751374E-03 -0.11612045372E+00  0.88943708129E+00  0.88000000000E+00 0.  1.
        -11    1    4    4    0    0  0.35745779285E-01  0.19562368280E-01  0.58416903363E-01  0.71226699411E-01  0.51100000000E-03 0. -1.
         11    1    4    4    0    0  0.11504491161E-01 -0.17261920085E-01  0.66691825361E-01  0.69845457210E-01  0.51100000000E-03 0.  1.
</event>
<event>
 8    1  0.2922807E+004  0.1043930E+01  0.7957747E-01            NaN
         13   -1    0    0    0    0  0.00000000000E+00  0.00000000000E+00  0.74505805969E-08  0.10566000000E+00  0.10566000000E+00 0.  1.
     999900   -1    0    0    0    0 -0.00000000000E+00 -0.00000000000E+00 -0.74505805969E-08  0.93827000000E+00  0.93827000000E+00 0.  1.
     999902    2    1    2    0    0  0.93614836364E-02  0.10320726825E-01  0.80879179281E-03  0.10299726033E+01  0.10298780290E+01 0.  0.
     999903    2    3    3    0    0  0.48885545342E-01  0.30954063779E-01 -0.12007727493E+00  0.14059004942E+00  0.44710842464E-01 0.  0.
         14    1    1    2    0    0 -0.93614836364E-02 -0.10320726825E-01 -0.80879179281E-03  0.13957396685E-01  0.00000000000E+00 0.  1.
     999901    1    3    3    0    0 -0.39524061706E-01 -0.20633336955E-01  0.12088606672E+00  0.88938255390E+00  0.88000000000E+00 0. -1.
        -11    1    4    4    0    0  0.41888178351E-01  0.36639017029E-01 -0.68644681302E-01  0.88370755606E-01  0.51100000000E-03 0.  1.
         11    1    4    4    0    0  0.69973669913E-02 -0.56849532499E-02 -0.51432593625E-01  0.52219293812E-01  0.51100000000E-03 0. -1.
</event>
<event>
 7    1  0.2922807E+004  0.1043930E+01  0.7957747E-01            NaN
         13   -1    0    0    0    0  0.00000000000E+00  0.00000000000E+00  0.74505805969E-08  0.10566000000E+00  0.10566000000E+00 0.  1.
     999900   -1    0    0    0    0 -0.00000000000E+00 -0.00000000000E+00 -0.74505805969E-08  0.93827000000E+00  0.93827000000E+00 0.  1.
     999903    2    1    2    0    0  0.17886112845E-01  0.10721571087E+00  0.31421991556E-01  0.12141369979E+00  0.44032070753E-01 0.  0.
         14    1    1    2    0    0  0.22752821148E-01  0.21780152626E-01  0.19649286822E-02  0.31558308943E-01  0.00000000000E+00 0. -1.
     999901    1    1    2    0    0 -0.40638933994E-01 -0.12899586349E+00 -0.33386920239E-01  0.89095799126E+00  0.88000000000E+00 0.  1.
        -11    1    3    3    0    0 -0.23534199037E-02  0.52330179619E-01 -0.48033095753E-02  0.52605315207E-01  0.51100000000E-03 0. -1.
         11    1    3    3    0    0  0.20239532749E-01  0.54885531248E-01  0.36225301132E-01  0.68808384586E-01  0.51100000000E-03 0.  1.
</event>
<event>
 8    1  0.2922807E+004  0.1043930E+01  0.7957747E-01            NaN
         13   -1    0    0    0    0  0.00000000000E+00  0.00000000000E+00  0.74505805969E-08  0.10566000000E+00  0.10566000000E+00 0. -1.
     999900   -1    0    0    0    0 -0.00000000000E+00 -0.00000000000E+00 -0.74505805969E-08  0.93827000000E+00  0.93827000000E+00 0.  1.
     999902    2    1    2    0    0 -0.99715770040E-02  0.17827705584E-02  0.90279811436E-02  0.10303610994E+01  0.10302717506E+01 0.  0.
     999903    2    3    3    0    0  0.15404889735E-01 -0.81273205644E-01  0.10603285985E+00  0.14078130721E+00  0.41638497922E-01 0.  0.
         14    1    1    2    0    0  0.99715770040E-02 -0.17827705584E-02 -0.90279811436E-02  0.13568900558E-01  0.00000000000E+00 0.  1.
     999901    1    3    3    0    0 -0.25376466739E-01  0.83055976203E-01 -0.97004878708E-01  0.88957979223E+00  0.88000000000E+00 0.  1.
        -11    1    4    4    0    0  0.53015607673E-03 -0.56046609643E-01  0.93302459335E-01  0.10884444661E+00  0.51100000000E-03 0.  1.
         11    1    4    4    0    0  0.14874733658E-01 -0.25226596001E-01  0.12730400516E-01  0.31936860609E-01  0.51100000000E-03 0. -1.
</event>
<event>
 8    1  0.2922807E+004  0.1043930E+01  0.7957747E-01            NaN
         13   -1    0    0    0    0  0.00000000000E+00  0.00000000000E+00  0.74505805969E-08  0.10566000000E+00  0.10566000000E+00 0. -1.
     999900   -1    0    0    0    0 -0.00000000000E+00 -0.00000000000E+00 -0.74505805969E-08  0.93827000000E+00  0.93827000000E+00 0.  1.
     999902    2    1    2    0    0 -0.17043424723E-02  0.14980568580E-01 -0.16209269238E-03  0.10288519201E+01  0.10287414277E+01 0.  0.
     999903    2    3    3    0    0 -0.12906822896E+00 -0.21788819602E-01  0.12713113602E-01  0.13882983141E+00  0.44483012998E-01 0.  0.
         14    1    1    2    0    0  0.17043424723E-02 -0.14980568580E-01  0.16209269238E-03  0.15078079861E-01  0.00000000000E+00 0.  1.
     999901    1    3    3    0    0  0.12736388649E+00  0.36769388183E-01 -0.12875206294E-01  0.89002208873E+00  0.88000000000E+00 0. -1.
        -11    1    4    4    0    0 -0.85782253433E-01 -0.13985125451E-01  0.29444739721E-01  0.91768363590E-01  0.51100000000E-03 0. -1.
         11    1    4    4    0    0 -0.43285975527E-01 -0.78036941509E-02 -0.16731626119E-01  0.47061467819E-01  0.51100000000E-03 0.  1.
</event>
<event>
 8    1  0.2922807E+004  0.1043930E+01  0.7957747E-01            NaN
         13   -1    0    0    0    0  0.00000000000E+00  0.00000000000E+00  0.74505805969E-08  0.10566000000E+00  0.10566000000E+00 0. -1.
     999900   -1    0    0    0    0 -0.00000000000E+00 -0.00000000000E+00 -0.74505805969E-08  0.93827000000E+00  0.93827000000E+00 0.  1.
     999902    2    1    2    0    0  0.12918636545E-01  0.52936292503E-02 -0.42353777521E-02  0.10293405481E+01  0.10292371505E+01 0.  0.
     999903    2    3    3    0    0 -0.12462282548E+00  0.32791999021E-01  0.26145644370E-01  0.13771460604E+00  0.40933533533E-01 0.  0.
         14    1    1    2    0    0 -0.12918636545E-01 -0.52936292503E-02  0.42353777521E-02  0.14589451859E-01  0.00000000000E+00 0. -1.
     999901    1    3    3    0    0  0.13754146203E+00 -0.27498369770E-01 -0.30381022122E-01  0.89162594210E+00  0.88000000000E+00 0. -1.
        -11    1    4    4    0    0 -0.13675173990E-01  0.73930573896E-02 -0.97646737158E-02  0.18365120610E-01  0.51100000000E-03 0. -1.
         11    1    4    4    0    0 -0.11094765149E+00  0.25398941631E-01  0.35910318086E-01  0.11934948543E+00  0.51100000000E-03 0.  1.
</event>
<event>
 8    1  0.2922807E+004  0.1043930E+01  0.7957747E-01            NaN
         13   -1    0    0    0    0  0.00000000000E+00  0.00000000000E+00  0.74505805969E-08  0.10566000000E+00  0.10566000000E+00 0. -1.
     999900   -1    0    0    0    0 -0.00000000000E+00 -0.00000000000E+00 -0.74505805969E-08  0.93827000000E+00  0.93827000000E+00 0. -1.
     999902    2    1    2    0    0  0.31848227195E-02  0.13479987972E-01 -0.21573795783E-02  0.10299118882E+01  0.10298164837E+01 0.  0.
     999903    2    3    3    0    0  0.32426304696E-01  0.12521448312E+00 -0.36376522022E-01  0.14170548687E+00  0.45022901242E-01 0.  0.
         14    1    1    2    0    0 -0.31848227195E-02 -0.13479987972E-01  0.21573795783E-02  0.14018111789E-01  0.00000000000E+00 0. -1.
     999901    1    3    3    0    0 -0.29241481976E-01 -0.11173449514E+00  0.34219142444E-01  0.88820640134E+00  0.88000000000E+00 0. -1.
        -11    1    4    4    0    0  0.89936227791E-02  0.10335449081E+00 -0.19787026709E-01  0.10561639820E+00  0.51100000000E-03 0.  1.
         11    1    4    4    0    0  0.23432681917E-01  0.21859992307E-01 -0.16589495313E-01  0.36089088672E-01  0.51100000000E-03 0. -1.
</event>
<event>
 8    1  0.2922807E+004  0.1043930E+01  0.7957747E-01            NaN
         13   -1    0    0    0    0  0.00000000000E+00  0.00000000000E+00  0.74505805969E-08  0.10566000000E+00  0.10566000000E+00 0.  1.
     999900   -1    0    0    0    0 -0.00000000000E+00 -0.00000000000E+00 -0.74505805969E-08  0.93827000000E+00  0.93827000000E+00 0. -1.
     999902    2    1    2    0    0 -0.80974705962E-02 -0.47051497186E-02 -0.12066102002E-01  0.10286558951E+01  0.10285424892E+01 0.  0.
     999903    2    3    3    0    0 -0.48371299789E-01 -0.99478682958E-01  0.70597253087E-01  0.13880352855E+00  0.45239986613E-01 0.  0.
         14    1    1    2    0    0  0.80974705962E-02  0.47051497186E-02  0.12066102002E-01  0.15274104932E-01  0.00000000000E+00 0.  1.
     999901    1    3    3    0    0  0.40273829193E-01  0.94773533239E-01 -0.82663355089E-01  0.88985236652E+00  0.88000000000E+00 0. -1.
        -11    1    4    4    0    0 -0.18612615181E-01 -0.23243852461E-01 -0.13826831635E-02  0.29814074777E-01  0.51100000000E-03 0.  1.
         11    1    4    4    0    0 -0.29758684608E-01 -0.76234830496E-01  0.71979936251E-01  0.10898945377E+00  0.51100000000E-03 0. -1.
</event>
<event>
 8    1  0.2922807E+004  0.1043930E+01  0.7957747E-01            NaN
         13   -1    0    0    0    0  0.00000000000E+00  0.00000000000E+00  0.74505805969E-08  0.10566000000E+00  0.10566000000E+00 0. -1.
     999900   -1    0    0    0    0 -0.00000000000E+00 -0.00000000000E+00 -0.74505805969E-08  0.93827000000E+00  0.93827000000E+00 0.  1.
     999902    2    1    2    0    0  0.51784268700E-02  0.13318261989E-01  0.58307098383E-02  0.10284966146E+01  0.10283808132E+01 0.  0.
     999903    2    3    3    0    0 -0.12618259611E+00  0.32723759857E-01 -0.11643843086E-01  0.13836311243E+00  0.44898549865E-01 0.  0.
         14    1    1    2    0    0 -0.51784268700E-02 -0.13318261989E-01 -0.58307098383E-02  0.15433385386E-01  0.00000000000E+00 0. -1.
     999901    1    3    3    0    0  0.13136102298E+00 -0.19405497868E-01  0.17474552924E-01  0.89013350218E+00  0.88000000000E+00 0. -1.
        -11    1    4    4    0    0 -0.14741840240E-01  0.88173800662E-02 -0.17115914041E-01  0.24254559970E-01  0.51100000000E-03 0. -1.
         11    1    4    4    0    0 -0.11144075587E+00  0.23906379791E-01  0.54720709548E-02  0.11410855246E+00  0.51100000000E-03 0.  1.
</event>
<event>
 8    1  0.2922807E+004  0.1043930E+01  0.7957747E-01            NaN
         13   -1    0    0    0    0  0.00000000000E+00  0.00000000000E+00  0.74505805969E-08  0.10566000000E+00  0.10566000000E+00 0.  1.
     999900   -1    0    0    0    0 -0.00000000000E+00 -0.00000000000E+00 -0.74505805969E-08  0.93827000000E+00  0.93827000000E+00 0.  1.
     999902    2    1    2    0    0  0.56196971735E-02  0.61845339465E-03  0.12317297716E-01  0.10303771662E+01  0.10302880303E+01 0.  0.
     999903    2    3    3    0    0 -0.81480882030E-01 -0.61765450111E-01 -0.82566285991E-01  0.13881608766E+00  0.44705812231E-01 0.  0.
         14    1    1    2    0    0 -0.56196971735E-02 -0.61845339465E-03 -0.12317297716E-01  0.13552833797E-01  0.00000000000E+00 0. -1.
     999901    1    3    3    0    0  0.87100579203E-01  0.62383903506E-01  0.94883583706E-01  0.89156107854E+00  0.88000000000E+00 0. -1.
        -11    1    4    4    0    0 -0.83242068210E-01 -0.49305197678E-01 -0.62686975578E-01  0.11528296694E+00  0.51100000000E-03 0. -1.
         11    1    4    4    0    0  0.17611861798E-02 -0.12460252433E-01 -0.19879310413E-01  0.23533120723E-01  0.51100000000E-03 0.  1.
</event>
<event>
 8    1  0.2922807E+004  0.1043930E+01  0.7957747E-01            NaN
         13   -1    0    0    0    0  0.00000000000E+00  0.00000000000E+00  0.74505805969E-08  0.10566000000E+00  0.10566000000E+00 0. -1.
     999900   -1    0    0    0    0 -0.00000000000E+00 -0.00000000000E+00 -0.74505805969E-08  0.93827000000E+00  0.93827000000E+00 0. -1.
     999902    2    1    2    0    0  0.10902347563E-01 -0.56117484351E-02  0.68247999373E-02  0.10298967966E+01  0.10298011851E+01 0.  0.
     999903    2    3    3    0    0  0.12092947552E-01  0.87396703890E-01  0.99371254910E-01  0.14016827844E+00  0.44587854264E-01 0.  0.
         14    1    1    2    0    0 -0.10902347563E-01  0.56117484351E-02 -0.68247999373E-02  0.14033203378E-01  0.00000000000E+00 0. -1.
     999901    1    3    3    0    0 -0.11905999892E-02 -0.93008452326E-01 -0.92546454972E-01  0.88972851818E+00  0.88000000000E+00 0. -1.
        -11    1    4    4    0    0 -0.14073127129E-01  0.10334704226E-01  0.17110204602E-01  0.24451569298E-01  0.51100000000E-03 0.  1.
         11    1    4    4    0    0  0.26166074681E-01  0.77061999665E-01  0.82261050308E-01  0.11571670914E+00  0.51100000000E-03 0. -1.
</event>
<event>
 8    1  0.2922807E+004  0.1043930E+01  0.7957747E-01            NaN
         13   -1    0    0    0    0  0.00000000000E+00  0.00000000000E+00  0.74505805969E-08  0.10566000000E+00  0.10566000000E+00 0.  1.
     999900   -1    0    0    0    0 -0.00000000000E+00 -0.00000000000E+00 -0.74505805969E-08  0.93827000000E+00  0.93827000000E+00 0.  1.
     999902    2    1    2    0    0 -0.98635914289E-02 -0.96067441545E-02  0.52964482030E-02  0.10291776330E+01  0.10290718964E+01 0.  0.
     999903    2    3    3    0    0 -0.11645132579E+00  0.59289119626E-01  0.10175555883E-01  0.14005931079E+00  0.49365550906E-01 0.  0.
         14    1    1    2    0    0  0.98635914289E-02  0.96067441545E-02 -0.52964482030E-02  0.14752367020E-01  0.00000000000E+00 0.  1.
     999901    1    3    3    0    0  0.10658773436E+00 -0.68895863780E-01 -0.48791076797E-02  0.88911832219E+00  0.88000000000E+00 0.  1.
        -11    1    4    4    0    0 -0.14006757461E-01  0.29679336651E-01  0.57966104016E-02  0.33330377912E-01  0.51100000000E-03 0. -1.
         11    1    4    4    0    0 -0.10244456833E+00  0.29609782975E-01  0.43789454811E-02  0.10672893288E+00  0.51100000000E-03 0.  1.
</event>
<event>
 8    1  0.2922807E+004  0.1043930E+01  0.7957747E-01            NaN
         13   -1    0    0    0    0  0.00000000000E+00  0.00000000000E+00  0.74505805969E-08  0.10566000000E+00  0.10566000000E+00 0.  1.
     999900   -1    0    0    0    0 -0.00000000000E+00 -0.00000000000E+00 -0.74505805969E-08  0.93827000000E+00  0.93827000000E+00 0.  1.
     999902    2    1    2    0    0  0.43224123096E-02  0.11045731943E-01  0.69963066525E-02  0.10301590251E+01  0.10300669771E+01 0.  0.
     999903    2    3    3    0    0  0.91090355993E-01  0.97388967647E-01  0.14308697593E-01  0.14165618243E+00  0.45603412379E-01 0.  0.
         14    1    1    2    0    0 -0.43224123096E-02 -0.11045731943E-01 -0.69963066525E-02  0.13770974878E-01  0.00000000000E+00 0. -1.
     999901    1    3    3    0    0 -0.86767943684E-01 -0.86343235704E-01 -0.73123909403E-02  0.88850284269E+00  0.88000000000E+00 0. -1.
        -11    1    4    4    0    0  0.64240708798E-01  0.38396348152E-01 -0.18108364192E-02  0.74864467325E-01  0.51100000000E-03 0.  1.
         11    1    4    4    0    0  0.26849647195E-01  0.58992619495E-01  0.16119534012E-01  0.66791715109E-01  0.51100000000E-03 0. -1.
</event>
<event>
 8    1  0.2922807E+004  0.1043930E+01  0.7957747E-01            NaN
         13   -1    0    0    0    0  0.00000000000E+00  0.00000000000E+00  0.74505805969E-08  0.10566000000E+00  0.10566000000E+00 0.  1.
     999900   -1    0    0    0    0 -0.00000000000E+00 -0.00000000000E+00 -0.74505805969E-08  0.93827000000E+00  0.93827000000E+00 0.  1.
     999902    2    1    2    0    0 -0.62622589257E-02  0.11102120306E-01 -0.49636404708E-02  0.10302511591E+01  0.10301603468E+01 0.  0.
     999903    2    3    3    0    0  0.18363293550E-01 -0.12785338405E+00  0.22424066106E-01  0.13858690809E+00  0.44942118220E-01 0.  0.
         14    1    1    2    0    0  0.62622589257E-02 -0.11102120306E-01  0.49636404708E-02  0.13678840918E-01  0.00000000000E+00 0. -1.
     999901    1    3    3    0    0 -0.24625552475E-01  0.13895550436E+00 -0.27387706576E-01  0.89166425099E+00  0.88000000000E+00 0. -1.
        -11    1    4    4    0    0  0.24431963055E-01 -0.56609989911E-01 -0.53231350577E-02  0.61888679614E-01  0.51100000000E-03 0. -1.
         11    1    4    4    0    0 -0.60686695049E-02 -0.71243394139E-01  0.27747201163E-01  0.76698228476E-01  0.51100000000E-03 0.  1.
</event>
<event>
 8    1  0.2922807E+004  0.1043930E+01  0.7957747E-01            NaN
         13   -1    0    0    0    0  0.00000000000E+00  0.00000000000E+00  0.74505805969E-08  0.10566000000E+00  0.10566000000E+00 0.  1.
     999900   -1    0    0    0    0 -0.00000000000E+00 -0.00000000000E+00 -0.74505805969E-08  0.93827000000E+00  0.93827000000E+00 0.  1.
     999902    2    1    2    0    0 -0.81181097555E-02 -0.44399863733E-02  0.96992104465E-02  0.10305250804E+01  0.10304378921E+01 0.  0.
     999903    2    3    3    0    0 -0.69928943610E-02  0.30431743819E-01  0.13053910650E+00  0.14158212156E+00  0.45056045262E-01 0.  0.
         14    1    1    2    0    0  0.81181097555E-02  0.44399863733E-02 -0.96992104465E-02  0.13404919555E-01  0.00000000000E+00 0. -1.
     999901    1    3    3    0    0 -0.11252153946E-02 -0.34871730192E-01 -0.12083989606E+00  0.88894295889E+00  0.88000000000E+00 0.  1.
        -11    1    4    4    0    0 -0.24807974194E-01  0.79385981841E-02  0.58603964446E-01  0.64133787464E-01  0.51100000000E-03 0. -1.
         11    1    4    4    0    0  0.17815079833E-01  0.22493145634E-01  0.71935142057E-01  0.77448334093E-01  0.51100000000E-03 0.  1.
</event>
<event>
 8    1  0.2922807E+004  0.1043930E+01  0.7957747E-01            NaN
         13   -1    0    0    0    0  0.00000000000E+00  0.00000000000E+00  0.74505805969E-08  0.10566000000E+00  0.10566000000E+00 0. -1.
     999900   -1    0    0    0    0 -0.00000000000E+00 -0.00000000000E+00 -0.74505805969E-08  0.93827000000E+00  0.93827000000E+00 0. -1.
     999902    2    1    2    0    0 -0.15108677048E-01 -0.17147409182E-01  0.28163320470E-02  0.10209031138E+01  0.10206433903E+01 0.  0.
     999903    2    3    3    0    0  0.42993653143E-01  0.75611478277E-01 -0.85199142004E-01  0.12976518075E+00  0.44883833156E-01 0.  0.
         14    1    1    2    0    0  0.15108677048E-01  0.17147409182E-01 -0.28163320470E-02  0.23026886241E-01  0.00000000000E+00 0. -1.
     999901    1    3    3    0    0 -0.58102330190E-01 -0.92758887459E-01  0.88015474051E-01  0.89113793301E+00  0.88000000000E+00 0.  1.
        -11    1    4    4    0    0  0.31691384174E-01  0.13009749678E-01 -0.30029266691E-01  0.45558922249E-01  0.51100000000E-03 0. -1.
         11    1    4    4    0    0  0.11302268969E-01  0.62601728599E-01 -0.55169875313E-01  0.84206258500E-01  0.51100000000E-03 0.  1.
</event>
<event>
 8    1  0.2922807E+004  0.1043930E+01  0.7957747E-01            NaN
         13   -1    0    0    0    0  0.00000000000E+00  0.00000000000E+00  0.74505805969E-08  0.10566000000E+00  0.10566000000E+00 0.  1.
     999900   -1    0    0    0    0 -0.00000000000E+00 -0.00000000000E+00 -0.74505805969E-08  0.93827000000E+00  0.93827000000E+00 0. -1.
     999902    2    1    2    0    0  0.76701067091E-02  0.11247027633E-02 -0.11646414582E-01  0.10299394866E+01  0.10298444599E+01 0.  0.
     999903    2    3    3    0    0 -0.97911373835E-01  0.68414783136E-01 -0.57532616334E-01  0.13989401164E+00  0.44644292712E-01 0.  0.
         14    1    1    2    0    0 -0.76701067091E-02 -0.11247027633E-02  0.11646414582E-01  0.13990513423E-01  0.00000000000E+00 0.  1.
     999901    1    3    3    0    0  0.10558148054E+00 -0.67290080373E-01  0.45886201753E-01  0.89004547494E+00  0.88000000000E+00 0.  1.
        -11    1    4    4    0    0 -0.56109174925E-01  0.12202411832E-01 -0.27647051803E-01  0.63731930456E-01  0.51100000000E-03 0. -1.
         11    1    4    4    0    0 -0.41802198910E-01  0.56212371305E-01 -0.29885564531E-01  0.76162081180E-01  0.51100000000E-03 0.  1.
</event>
<event>
 8    1  0.2922807E+004  0.1043930E+01  0.7957747E-01            NaN
         13   -1    0    0    0    0  0.00000000000E+00  0.00000000000E+00  0.74505805969E-08  0.10566000000E+00  0.10566000000E+00 0.  1.
     999900   -1    0    0    0    0 -0.00000000000E+00 -0.00000000000E+00 -0.74505805969E-08  0.93827000000E+00  0.93827000000E+00 0.  1.
     999902    2    1    2    0    0  0.12651343425E-01  0.97109652815E-04  0.65818135412E-02  0.10296686470E+01  0.10295698793E+01 0.  0.
     999903    2    3    3    0    0 -0.45106055978E-01 -0.87567311739E-01  0.88725890097E-01  0.13963009877E+00  0.43837090903E-01 0.  0.
         14    1    1    2    0    0 -0.12651343425E-01 -0.97109652815E-04 -0.65818135412E-02  0.14261353030E-01  0.00000000000E+00 0. -1.
     999901    1    3    3    0    0  0.57757399403E-01  0.87664421392E-01 -0.82144076555E-01  0.89003854820E+00  0.88000000000E+00 0.  1.
        -11    1    4    4    0    0 -0.32972031230E-01 -0.19153952332E-01  0.27443181098E-01  0.46983167657E-01  0.51100000000E-03 0. -1.
         11    1    4    4    0    0 -0.12134024748E-01 -0.68413359407E-01  0.61282708999E-01  0.92646931116E-01  0.51100000000E-03 0.  1.
</event>
<event>
 8    1  0.2922807E+004  0.1043930E+01  0.7957747E-01            NaN
         13   -1    0    0    0    0  0.00000000000E+00  0.00000000000E+00  0.74505805969E-08  0.10566000000E+00  0.10566000000E+00 0.  1.
     999900   -1    0    0    0    0 -0.00000000000E+00 -0.00000000000E+00 -0.74505805969E-08  0.93827000000E+00  0.93827000000E+00 0.  1.
     999902    2    1    2    0    0 -0.10150663335E-01 -0.94457150575E-02  0.27388529877E-02  0.10297963941E+01  0.10296994001E+01 0.  0.
     999903    2    3    3    0    0 -0.70599272253E-01 -0.11139418373E+00  0.31059646004E-01  0.14139919023E+00  0.40448831592E-01 0.  0.
         14    1    1    2    0    0  0.10150663335E-01  0.94457150575E-02 -0.27388529877E-02  0.14133605866E-01  0.00000000000E+00 0. -1.
     999901    1    3    3    0    0  0.60448608918E-01  0.10194846867E+00 -0.28320793017E-01  0.88839720390E+00  0.88000000000E+00 0.  1.
        -11    1    4    4    0    0 -0.26169794907E-01 -0.46005712663E-01  0.32898783372E-01  0.62321543879E-01  0.51100000000E-03 0. -1.
         11    1    4    4    0    0 -0.44429477346E-01 -0.65388471065E-01 -0.18391373672E-02  0.79077646353E-01  0.51100000000E-03 0.  1.
</event>
<event>
 8    1  0.2922807E+004  0.1043930E+01  0.7957747E-01            NaN
         13   -1    0    0    0    0  0.00000000000E+00  0.00000000000E+00  0.74505805969E-08  0.10566000000E+00  0.10566000000E+00 0.  1.
     999900   -1    0    0    0    0 -0.00000000000E+00 -0.00000000000E+00 -0.74505805969E-08  0.93827000000E+00  0.93827000000E+00 0. -1.
     999902    2    1    2    0    0 -0.52435969229E-02  0.29494671108E-02 -0.94455113527E-02  0.10327312345E+01  0.10326705139E+01 0.  0.
     999903    2    3    3    0    0 -0.85703474515E-01  0.76593015535E-01 -0.73512518093E-01  0.14368582196E+00  0.45054961373E-01 0.  0.
         14    1    1    2    0    0  0.52435969229E-02 -0.29494671108E-02  0.94455113527E-02  0.11198765541E-01  0.00000000000E+00 0.  1.
     999901    1    3    3    0    0  0.80459877592E-01 -0.73643548424E-01  0.64067006740E-01  0.88904541250E+00  0.88000000000E+00 0.  1.
        -11    1    4    4    0    0 -0.63659666646E-01  0.76517016948E-01 -0.69173207530E-01  0.12121303891E+00  0.51100000000E-03 0.  1.
         11    1    4    4    0    0 -0.22043807869E-01  0.75998587101E-04 -0.43393105630E-02  0.22472783057E-01  0.51100000000E-03 0. -1.
</event>
<event>
 8    1  0.2922807E+004  0.1043930E+01  0.7957747E-01            NaN
         13   -1    0    0    0    0  0.00000000000E+00  0.00000000000E+00  0.74505805969E-08  0.10566000000E+00  0.10566000000E+00 0. -1.
     999900   -1    0    0    0    0 -0.00000000000E+00 -0.00000000000E+00 -0.74505805969E-08  0.93827000000E+00  0.93827000000E+00 0. -1.
     999902    2    1    2    0    0  0.35406092834E-02 -0.13339269518E-01 -0.33626109897E-02  0.10297251002E+01  0.10296271183E+01 0.  0.
     999903    2    3    3    0    0 -0.71757224414E-01  0.94034457326E-01  0.54923377393E-01  0.13809954124E+00  0.45423864707E-01 0.  0.
         14    1    1    2    0    0 -0.35406092834E-02  0.13339269518E-01  0.33626109897E-02  0.14204899790E-01  0.00000000000E+00 0.  1.
     999901    1    3    3    0    0  0.75297833697E-01 -0.10737372684E+00 -0.58285988383E-01  0.89162555898E+00  0.88000000000E+00 0. -1.
        -11    1    4    4    0    0 -0.23274708025E-01  0.66542574241E-01  0.24725667305E-01  0.74707736981E-01  0.51100000000E-03 0. -1.
         11    1    4    4    0    0 -0.48482516389E-01  0.27491883085E-01  0.30197710088E-01  0.63391804254E-01  0.51100000000E-03 0.  1.
</event>
<event>
 8    1  0.2922807E+004  0.1043930E+01  0.7957747E-01            NaN
         13   -1    0    0    0    0  0.00000000000E+00  0.00000000000E+00  0.74505805969E-08  0.10566000000E+00  0.10566000000E+00 0. -1.
     999900   -1    0    0    0    0 -0.00000000000E+00 -0.00000000000E+00 -0.74505805969E-08  0.93827000000E+00  0.93827000000E+00 0. -1.
     999902    2    1    2    0    0 -0.14137412295E-01 -0.33152193736E-02  0.19439711971E-01  0.10196656330E+01  0.10193768898E+01 0.  0.
     999903    2    3    3    0    0 -0.57587336444E-01  0.52619849224E-01 -0.91537902559E-01  0.12987202840E+00  0.49014347944E-01 0.  0.
         14    1    1    2    0    0  0.14137412295E-01  0.33152193736E-02 -0.19439711971E-01  0.24264367031E-01  0.00000000000E+00 0.  1.
     999901    1    3    3    0    0  0.43449924149E-01 -0.55935068598E-01  0.11097761453E+00  0.88979360457E+00  0.88000000000E+00 0.  1.
        -11    1    4    4    0    0 -0.24609671010E-02  0.31474663790E-01 -0.21175886281E-01  0.38018286396E-01  0.51100000000E-03 0. -1.
         11    1    4    4    0    0 -0.55126369343E-01  0.21145185434E-01 -0.70362016279E-01  0.91853742002E-01  0.51100000000E-03 0.  1.
</event>
<event>
 8    1  0.2922807E+004  0.1043930E+01  0.7957747E-01            NaN
         13   -1    0    0    0    0  0.00000000000E+00  0.00000000000E+00  0.74505805969E-08  0.10566000000E+00  0.10566000000E+00 0. -1.
     999900   -1    0    0    0    0 -0.00000000000E+00 -0.00000000000E+00 -0.74505805969E-08  0.93827000000E+00  0.93827000000E+00 0. -1.
     999902    2    1    2    0    0 -0.89785634909E-02 -0.41321917614E-02 -0.99052488199E-02  0.10299370173E+01  0.10298419568E+01 0.  0.
     999903    2    3    3    0    0 -0.27376899489E-01 -0.13010468960E+00 -0.17715409418E-02  0.14073865573E+00  0.46124895437E-01 0.  0.
         14    1    1    2    0    0  0.89785634909E-02  0.41321917614E-02  0.99052488199E-02  0.13992982716E-01  0.00000000000E+00 0. -1.
     999901    1    3    3    0    0  0.18398335998E-01  0.12597249784E+00 -0.81337078782E-02  0.88919836155E+00  0.88000000000E+00 0.  1.
        -11    1    4    4    0    0 -0.31523350021E-01 -0.86088516893E-01 -0.18387201585E-01  0.93505639619E-01  0.51100000000E-03 0.  1.
         11    1    4    4    0    0  0.41464505318E-02 -0.44016172706E-01  0.16615660643E-01  0.47233016115E-01  0.51100000000E-03 0. -1.
</event>
<event>
 8    1  0.2922807E+004  0.1043930E+01  0.7957747E-01            NaN
         13   -1    0    0    0    0  0.00000000000E+00  0.00000000000E+00  0.74505805969E-08  0.10566000000E+00  0.10566000000E+00 0.  1.
     999900   -1    0    0    0    0 -0.00000000000E+00 -0.00000000000E+00 -0.74505805969E-08  0.93827000000E+00  0.93827000000E+00 0.  1.
     999902    2    1    2    0    0  0.37170898809E-02  0.11349313172E-01  0.42277718384E-02  0.10312612305E+01  0.10311834113E+01 0.  0.
     999903    2    3    3    0    0 -0.73354651869E-01  0.25000104011E-02 -0.11115212250E+00  0.14034547488E+00  0.44214284824E-01 0.  0.
         14    1    1    2    0    0 -0.37170898809E-02 -0.11349313172E-01 -0.42277718384E-02  0.12668769529E-01  0.00000000000E+00 0. -1.
     999901    1    3    3    0    0  0.77071741749E-01  0.88493027706E-02  0.11537989433E+00  0.89091575559E+00  0.88000000000E+00 0. -1.
        -11    1    4    4    0    0 -0.54943724525E-01 -0.12355331180E-01 -0.52068658611E-01  0.76699891811E-01  0.51100000000E-03 0. -1.
         11    1    4    4    0    0 -0.18410927343E-01  0.14855341581E-01 -0.59083463885E-01  0.63645583074E-01  0.51100000000E-03 0.  1.
</event>
<event>
 8    1  0.2922807E+004  0.1043930E+01  0.7957747E-01            NaN
         13   -1    0    0    0    0  0.00000000000E+00  0.00000000000E+00  0.74505805969E-08  0.10566000000E+00  0.10566000000E+00 0.  1.
     999900   -1    0    0    0    0 -0.00000000000E+00 -0.00000000000E+00 -0.74505805969E-08  0.93827000000E+00  0.93827000000E+00 0.  1.
     999902    2    1    2    0    0 -0.15026956345E-01  0.13087960050E-01 -0.63834536077E-02  0.10230050724E+01  0.10227910469E+01 0.  0.
     999903    2    3    3    0    0 -0.34942338498E-01 -0.12016895835E+00 -0.50212720258E-02  0.13274899447E+00  0.43994735937E-01 0.  0.
         14    1    1    2    0    0  0.15026956345E-01 -0.13087960050E-01  0.63834536077E-02  0.20924927604E-01  0.00000000000E+00 0. -1.
     999901    1    3    3    0    0  0.19915382153E-01  0.13325691840E+00 -0.13621815819E-02  0.89025607793E+00  0.88000000000E+00 0.  1.
        -11    1    4    4    0    0 -0.42864409330E-02 -0.68643898277E-01  0.13302715564E-01  0.70054134131E-01  0.51100000000E-03 0.  1.
         11    1    4    4    0    0 -0.30655897565E-01 -0.51525060070E-01 -0.18323987589E-01  0.62694860338E-01  0.51100000000E-03 0. -1.
</event>
<event>
 8    1  0.2922807E+004  0.1043930E+01  0.7957747E-01            NaN
         13   -1    0    0    0    0  0.00000000000E+00  0.00000000000E+00  0.74505805969E-08  0.10566000000E+00  0.10566000000E+00 0.  1.
     999900   -1    0    0    0    0 -0.00000000000E+00 -0.00000000000E+00 -0.74505805969E-08  0.93827000000E+00  0.93827000000E+00 0.  1.
     999902    2    1    2    0    0 -0.52611067167E-02 -0.92624322061E-02 -0.89675168578E-02  0.10300056238E+01  0.10299114995E+01 0.  0.
     999903    2    3    3    0    0  0.12563343627E+00 -0.12315158390E-01 -0.39829276773E-01  0.13978365779E+00  0.44918551419E-01 0.  0.
         14    1    1    2    0    0  0.52611067167E-02  0.92624322061E-02  0.89675168578E-02  0.13924376211E-01  0.00000000000E+00 0.  1.
     999901    1    3    3    0    0 -0.13089454299E+00  0.30527261841E-02  0.30861759915E-01  0.89022196600E+00  0.88000000000E+00 0.  1.
        -11    1    4    4    0    0  0.54993425201E-01  0.16302072480E-01 -0.22528590810E-01  0.61626560081E-01  0.51100000000E-03 0. -1.
         11    1    4    4    0    0  0.70640011071E-01 -0.28617230870E-01 -0.17300685963E-01  0.78157097710E-01  0.51100000000E-03 0.  1.
</event>
<event>
 8    1  0.2922807E+004  0.1043930E+01  0.7957747E-01            NaN
         13   -1    0    0    0    0  0.00000000000E+00  0.00000000000E+00  0.74505805969E-08  0.10566000000E+00  0.10566000000E+00 0. -1.
     999900   -1    0    0    0    0 -0.00000000000E+00 -0.00000000000E+00 -0.74505805969E-08  0.93827000000E+00  0.93827000000E+00 0. -1.
     999902    2    1    2    0    0 -0.25404809245E-04  0.36155681053E-03  0.12426263574E-01  0.10314984516E+01  0.10314235368E+01 0.  0.
     999903    2    3    3    0    0  0.80619027225E-01 -0.56917794207E-01  0.92534912548E-01  0.14234051058E+00  0.44261134915E-01 0.  0.
         14    1    1    2    0    0  0.25404809245E-04 -0.36155681053E-03 -0.12426263574E-01  0.12431548381E-01  0.00000000000E+00 0.  1.
     999901    1    3    3    0    0 -0.80644432034E-01  0.57279351018E-01 -0.80108648973E-01  0.88915794104E+00  0.88000000000E+00 0. -1.
        -11    1    4    4    0    0  0.10658663389E-01 -0.31623451831E-01  0.23209226291E-01  0.40651926363E-01  0.51100000000E-03 0. -1.
         11    1    4    4    0    0  0.69960363836E-01 -0.25294342376E-01  0.69325686256E-01  0.10168858422E+00  0.51100000000E-03 0.  1.
</event>
<event>
 8    1  0.2922807E+004  0.1043930E+01  0.7957747E-01            NaN
         13   -1    0    0    0    0  0.00000000000E+00  0.00000000000E+00  0.74505805969E-08  0.10566000000E+00  0.10566000000E+00 0. -1.
     999900   -1    0    0    0    0 -0.00000000000E+00 -0.00000000000E+00 -0.74505805969E-08  0.93827000000E+00  0.93827000000E+00 0.  1.
     999902    2    1    2    0    0  0.81034026396E-02  0.15284001455E-01 -0.50133610899E-02  0.10259189027E+01  0.10257607886E+01 0.  0.
     999903    2    3    3    0    0 -0.78899676664E-01  0.72290208244E-01 -0.73013624292E-01  0.13718762772E+00  0.45148894570E-01 0.  0.
         14    1    1    2    0    0 -0.81034026396E-02 -0.15284001455E-01  0.50133610899E-02  0.18011097252E-01  0.00000000000E+00 0. -1.
     999901    1    3    3    0    0  0.87003079303E-01 -0.57006206789E-01  0.68000263202E-01  0.88873127503E+00  0.88000000000E+00 0. -1.
        -11    1    4    4    0    0 -0.27346546064E-01  0.32325367456E-01 -0.55193951471E-01  0.69565770051E-01  0.51100000000E-03 0. -1.
         11    1    4    4    0    0 -0.51553130600E-01  0.39964840788E-01 -0.17819672821E-01  0.67621857667E-01  0.51100000000E-03 0.  1.
</event>
<event>
 8    1  0.2922807E+004  0.1043930E+01  0.7957747E-01            NaN
         13   -1    0    0    0    0  0.00000000000E+00  0.00000000000E+00  0.74505805969E-08  0.10566000000E+00  0.10566000000E+00 0.  1.
     999900   -1    0    0    0    0 -0.00000000000E+00 -0.00000000000E+00 -0.74505805969E-08  0.93827000000E+00  0.93827000000E+00 0.  1.
     999902    2    1    2    0    0 -0.11795721192E-01 -0.64160639123E-02  0.12445901246E-03  0.10305016567E+01  0.10304141614E+01 0.  0.
     999903    2    3    3    0    0 -0.16805314835E-02 -0.81435744542E-01 -0.10535484279E+00  0.14097585454E+00  0.46259528614E-01 0.  0.
         14    1    1    2    0    0  0.11795721192E-01  0.64160639123E-02 -0.12445901246E-03  0.13428343331E-01  0.00000000000E+00 0.  1.
     999901    1    3    3    0    0 -0.10115189709E-01  0.75019680629E-01  0.10547930181E+00  0.88952580213E+00  0.88000000000E+00 0.  1.
        -11    1    4    4    0    0  0.15132694550E-01 -0.18460396980E-01 -0.10981846735E-01  0.26280159431E-01  0.51100000000E-03 0. -1.
         11    1    4    4    0    0 -0.16813226033E-01 -0.62975347562E-01 -0.94372996059E-01  0.11469569511E+00  0.51100000000E-03 0.  1.
</event>
<event>
 8    1  0.2922807E+004  0.1043930E+01  0.7957747E-01            NaN
         13   -1    0    0    0    0  0.00000000000E+00  0.00000000000E+00  0.74505805969E-08  0.10566000000E+00  0.10566000000E+00 0. -1.
     999900   -1    0    0    0    0 -0.00000000000E+00 -0.00000000000E+00 -0.74505805969E-08  0.93827000000E+00  0.93827000000E+00 0. -1.
     999902    2    1    2    0    0 -0.14277372609E-01  0.79130213987E-03 -0.11439936894E-01  0.10256176631E+01  0.10254541672E+01 0.  0.
     999903    2    3    3    0    0 -0.90467140913E-01  0.92932127808E-01  0.75355668064E-02  0.13733005070E+00  0.44520490726E-01 0.  0.
         14    1    1    2    0    0  0.14277372609E-01 -0.79130213987E-03  0.11439936894E-01  0.18312336930E-01  0.00000000000E+00 0.  1.
     999901    1    3    3    0    0  0.76189768304E-01 -0.92140825668E-01 -0.18975503701E-01  0.88828761237E+00  0.88000000000E+00 0.  1.
        -11    1    4    4    0    0 -0.51322210606E-01  0.32741850208E-01  0.20759017727E-01  0.64321038506E-01  0.51100000000E-03 0.  1.
         11    1    4    4    0    0 -0.39144930307E-01  0.60190277601E-01 -0.13223450921E-01  0.73009012195E-01  0.51100000000E-03 0. -1.
</event>
<event>
 8    1  0.2922807E+004  0.1043930E+01  0.7957747E-01            NaN
         13   -1    0    0    0    0  0.00000000000E+00  0.00000000000E+00  0.74505805969E-08  0.10566000000E+00  0.10566000000E+00 0.  1.
     999900   -1    0    0    0    0 -0.00000000000E+00 -0.00000000000E+00 -0.74505805969E-08  0.93827000000E+00  0.93827000000E+00 0. -1.
     999902    2    1    2    0    0  0.15907465774E-02 -0.96806709413E-02 -0.64659984591E-02  0.10321803191E+01  0.10321134415E+01 0.  0.
     999903    2    3    3    0    0  0.10655813471E+00 -0.82732895456E-01  0.45855440482E-02  0.14286771005E+00  0.46805846823E-01 0.  0.
         14    1    1    2    0    0 -0.15907465774E-02  0.96806709413E-02  0.64659984591E-02  0.11749680873E-01  0.00000000000E+00 0.  1.
     999901    1    3    3    0    0 -0.10496738813E+00  0.73052224514E-01 -0.11051542507E-01  0.88931260908E+00  0.88000000000E+00 0.  1.
        -11    1    4    4    0    0  0.89971395664E-01 -0.46383003414E-01  0.12928830829E-01  0.10204729703E+00  0.51100000000E-03 0. -1.
         11    1    4    4    0    0  0.16586739044E-01 -0.36349892042E-01 -0.83432867804E-02  0.40820413017E-01  0.51100000000E-03 0.  1.
</event>
<event>
 8    1  0.2922807E+004  0.1043930E+01  0.7957747E-01            NaN
         13   -1    0    0    0    0  0.00000000000E+00  0.00000000000E+00  0.74505805969E-08  0.10566000000E+00  0.10566000000E+00 0. -1.
     999900   -1    0    0    0    0 -0.00000000000E+00 -0.00000000000E+00 -0.74505805969E-08  0.93827000000E+00  0.93827000000E+00 0.  1.
     999902    2    1    2    0    0 -0.52681839603E-02  0.83152522468E-02 -0.11366528189E-01  0.10288935395E+01  0.10287836606E+01 0.  0.
     999903    2    3    3    0    0  0.25014245092E-01 -0.43760247956E-02 -0.13033114069E+00  0.14028188467E+00  0.45254158733E-01 0.  0.
         14    1    1    2    0    0  0.52681839603E-02 -0.83152522468E-02  0.11366528189E-01  0.15036460529E-01  0.00000000000E+00 0.  1.
     999901    1    3    3    0    0 -0.30282429052E-01  0.12691277042E-01  0.11896461250E+00  0.88861165480E+00  0.88000000000E+00 0. -1.
        -11    1    4    4    0    0 -0.12101695549E-01  0.57556485131E-02 -0.32885855213E-01  0.35515054823E-01  0.51100000000E-03 0. -1.
         11    1    4    4    0    0  0.37115940641E-01 -0.10131673309E-01 -0.97445285476E-01  0.10476682985E+00  0.51100000000E-03 0.  1.
</event>
<event>
 8    1  0.2922807E+004  0.1043930E+01  0.7957747E-01            NaN
         13   -1    0    0    0    0  0.00000000000E+00  0.00000000000E+00  0.74505805969E-08  0.10566000000E+00  0.10566000000E+00 0.  1.
     999900   -1    0    0    0    0 -0.00000000000E+00 -0.00000000000E+00 -0.74505805969E-08  0.93827000000E+00  0.93827000000E+00 0.  1.
     999902    2    1    2    0    0 -0.10759650752E-01  0.76821479378E-02  0.55785560882E-02  0.10295805830E+01  0.10294805831E+01 0.  0.
     999903    2    3    3    0    0 -0.69958073749E-01 -0.10720678467E+00 -0.20919325903E-01  0.13974573431E+00  0.51998320163E-01 0.  0.
         14    1    1    2    0    0  0.10759650752E-01 -0.76821479378E-02 -0.55785560882E-02  0.14349417036E-01  0.00000000000E+00 0. -1.
     999901    1    3    3    0    0  0.59198422997E-01  0.11488893261E+00  0.26497881991E-01  0.88983484865E+00  0.88000000000E+00 0. -1.
        -11    1    4    4    0    0 -0.63962092269E-01 -0.97756341596E-01 -0.34810506078E-01  0.12189948328E+00  0.51100000000E-03 0. -1.
         11    1    4    4    0    0 -0.59959814802E-02 -0.94504430787E-02  0.13891180175E-01  0.17846251033E-01  0.51100000000E-03 0.  1.
</event>
<event>
 8    1  0.2922807E+004  0.1043930E+01  0.7957747E-01            NaN
         13   -1    0    0    0    0  0.00000000000E+00  0.00000000000E+00  0.74505805969E-08  0.10566000000E+00  0.10566000000E+00 0.  1.
     999900   -1    0    0    0    0 -0.00000000000E+00 -0.00000000000E+00 -0.74505805969E-08  0.93827000000E+00  0.93827000000E+00 0. -1.
     999902    2    1    2    0    0  0.74867448842E-03  0.73467816545E-02 -0.12450385328E-01  0.10294542337E+01  0.10293524525E+01 0.  0.
     999903    2    3    3    0    0  0.41953156412E-01 -0.73866063484E-02  0.12289122194E+00  0.13803276624E+00  0.46218641682E-01 0.  0.
         14    1    1    2    0    0 -0.74867448842E-03 -0.73467816545E-02  0.12450385328E-01  0.14475766266E-01  0.00000000000E+00 0.  1.
     999901    1    3    3    0    0 -0.41204481923E-01  0.14733388003E-01 -0.13534160727E+00  0.89142146750E+00  0.88000000000E+00 0. -1.
        -11    1    4    4    0    0  0.49377111171E-01  0.31383685901E-02  0.89973100474E-01  0.10268090570E+00  0.51100000000E-03 0. -1.
         11    1    4    4    0    0 -0.74239547598E-02 -0.10524974939E-01  0.32918121467E-01  0.35351860541E-01  0.51100000000E-03 0.  1.
</event>
<event>
 8    1  0.2922807E+004  0.1043930E+01  0.7957747E-01            NaN
         13   -1    0    0    0    0  0.00000000000E+00  0.00000000000E+00  0.74505805969E-08  0.10566000000E+00  0.10566000000E+00 0. -1.
     999900   -1    0    0    0    0 -0.00000000000E+00 -0.00000000000E+00 -0.74505805969E-08  0.93827000000E+00  0.93827000000E+00 0. -1.
     999902    2    1    2    0    0 -0.11233634015E-01 -0.77048261480E-02 -0.73447949699E-02  0.10284540544E+01  0.10283376085E+01 0.  0.
     999903    2    3    3    0    0  0.83610292710E-01  0.27829183199E-01 -0.96736020062E-01  0.13814577780E+00  0.44286045903E-01 0.  0.
         14    1    1    2    0    0  0.11233634015E-01  0.77048261480E-02  0.73447949699E-02  0.15475945603E-01  0.00000000000E+00 0. -1.
     999901    1    3    3    0    0 -0.94843926724E-01 -0.35534009347E-01  0.89391225092E-01  0.89030827660E+00  0.88000000000E+00 0.  1.
        -11    1    4    4    0    0  0.39743234892E-01 -0.82502855718E-02 -0.51237699434E-01  0.65369372767E-01  0.51100000000E-03 0. -1.
         11    1    4    4    0    0  0.43867057818E-01  0.36079468771E-01 -0.45498320627E-01  0.72776405031E-01  0.51100000000E-03 0.  1.
</event>
<event>
 8    1  0.2922807E+004  0.1043930E+01  0.7957747E-01            NaN
         13   -1    0    0    0    0  0.00000000000E+00  0.00000000000E+00  0.74505805969E-08  0.10566000000E+00  0.10566000000E+00 0. -1.
     999900   -1    0    0    0    0 -0.00000000000E+00 -0.00000000000E+00 -0.74505805969E-08  0.93827000000E+00  0.93827000000E+00 0.  1.
     999902    2    1    2    0    0  0.28954844729E-04 -0.13315808014E-01 -0.65384933228E-02  0.10290954634E+01  0.10289885370E+01 0.  0.
     999903    2    3    3    0    0  0.51918220385E-01  0.39190760579E-01  0.11291652553E+00  0.13796195086E+00  0.45298353464E-01 0.  0.
         14    1    1    2    0    0 -0.28954844729E-04  0.13315808014E-01  0.65384933228E-02  0.14834536608E-01  0.00000000000E+00 0. -1.
     999901    1    3    3    0    0 -0.51889265540E-01 -0.52506568592E-01 -0.11945501885E+00  0.89113351253E+00  0.88000000000E+00 0.  1.
        -11    1    4    4    0    0  0.31773259718E-01 -0.17157377750E-02  0.61438235660E-01  0.69191052249E-01  0.51100000000E-03 0.  1.
         11    1    4    4    0    0  0.20144960667E-01  0.40906498354E-01  0.51478289865E-01  0.68770898615E-01  0.51100000000E-03 0. -1.
</event>
<event>
 8    1  0.2922807E+004  0.1043930E+01  0.7957747E-01            NaN
         13   -1    0    0    0    0  0.00000000000E+00  0.00000000000E+00  0.74505805969E-08  0.10566000000E+00  0.10566000000E+00 0.  1.
     999900   -1    0    0    0    0 -0.00000000000E+00 -0.00000000000E+00 -0.74505805969E-08  0.93827000000E+00  0.93827000000E+00 0.  1.
     999902    2    1    2    0    0 -0.10011959024E-01 -0.62429300558E-02  0.12302231062E-01  0.10268842267E+01  0.10267427412E+01 0.  0.
     999903    2    3    3    0    0  0.31319037301E-01  0.53331925288E-01 -0.11150187491E+00  0.13526498546E+00  0.45152761056E-01 0.  0.
         14    1    1    2    0    0  0.10011959024E-01  0.62429300558E-02 -0.12302231062E-01  0.17045773326E-01  0.00000000000E+00 0. -1.
     999901    1    3    3    0    0 -0.41330996325E-01 -0.59574855344E-01  0.12380410597E+00  0.89161924121E+00  0.88000000000E+00 0. -1.
        -11    1    4    4    0    0  0.33976877881E-01  0.14000592346E-01 -0.60716095213E-01  0.70972883241E-01  0.51100000000E-03 0.  1.
         11    1    4    4    0    0 -0.26578405797E-02  0.39331332942E-01 -0.50785779696E-01  0.64292102220E-01  0.51100000000E-03 0. -1.
</event>
<event>
 8    1  0.2922807E+004  0.1043930E+01  0.7957747E-01            NaN
         13   -1    0    0    0    0  0.00000000000E+00  0.00000000000E+00  0.74505805969E-08  0.10566000000E+00  0.10566000000E+00 0. -1.
     999900   -1    0    0    0    0 -0.00000000000E+00 -0.00000000000E+00 -0.74505805969E-08  0.93827000000E+00  0.93827000000E+00 0. -1.
     999902    2    1    2    0    0  0.73494352417E-02  0.52840363432E-03  0.11250247990E-01  0.10304815247E+01  0.10303937651E+01 0.  0.
     999903    2    3    3    0    0 -0.11201280238E-01 -0.12949357653E+00 -0.26454687343E-01  0.13993590174E+00  0.44588687726E-01 0.  0.
         14    1    1    2    0    0 -0.73494352417E-02 -0.52840363432E-03 -0.11250247990E-01  0.13448475327E-01  0.00000000000E+00 0.  1.
     999901    1    3    3    0    0  0.18550715479E-01  0.13002198016E+00  0.37704935334E-01  0.89054562293E+00  0.88000000000E+00 0.  1.
        -11    1    4    4    0    0 -0.16290659410E-01 -0.22114183500E-01  0.50100551398E-02  0.27924621204E-01  0.51100000000E-03 0. -1.
         11    1    4    4    0    0  0.50893791721E-02 -0.10737939303E+00 -0.31464742483E-01  0.11201128054E+00  0.51100000000E-03 0.  1.
</event>
<event>
 8    1  0.2922807E+004  0.1043930E+01  0.7957747E-01            NaN
         13   -1    0    0    0    0  0.00000000000E+00  0.00000000000E+00  0.74505805969E-08  0.10566000000E+00  0.10566000000E+00 0. -1.
     999900   -1    0    0    0    0 -0.00000000000E+00 -0.00000000000E+00 -0.74505805969E-08  0.93827000000E+00  0.93827000000E+00 0.  1.
     999902    2    1    2    0    0 -0.12618170418E-01  0.50291372890E-02  0.48965013236E-03  0.10303377153E+01  0.10302480562E+01 0.  0.
     999903    2    3    3    0    0 -0.13781028044E-01  0.35787475836E-01  0.12785470155E+00  0.14063592033E+00  0.44282922411E-01 0.  0.
         14    1    1    2    0    0  0.12618170418E-01 -0.50291372890E-02 -0.48965013236E-03  0.13592284717E-01  0.00000000000E+00 0.  1.
     999901    1    3    3    0    0  0.11628576265E-02 -0.30758338547E-01 -0.12736505142E+00  0.88970179496E+00  0.88000000000E+00 0.  1.
        -11    1    4    4    0    0  0.95887672786E-02  0.16847041589E-01  0.17055644408E-01  0.25824860027E-01  0.51100000000E-03 0. -1.
         11    1    4    4    0    0 -0.23369795323E-01  0.18940434248E-01  0.11079905714E+00  0.11481106030E+00  0.51100000000E-03 0.  1.
</event>
<event>
 8    1  0.2922807E+004  0.1043930E+01  0.7957747E-01            NaN
         13   -1    0    0    0    0  0.00000000000E+00  0.00000000000E+00  0.74505805969E-08  0.10566000000E+00  0.10566000000E+00 0. -1.
     999900   -1    0    0    0    0 -0.00000000000E+00 -0.00000000000E+00 -0.74505805969E-08  0.93827000000E+00  0.93827000000E+00 0. -1.
     999902    2    1    2    0    0  0.85872969549E-02  0.12198717853E-02  0.12428154682E-01  0.10287745130E+01  0.10286628748E+01 0.  0.
     999903    2    3    3    0    0 -0.14355337396E-01  0.11705901055E+00  0.60449182254E-01  0.13958888021E+00  0.43841352392E-01 0.  0.
         14    1    1    2    0    0 -0.85872969549E-02 -0.12198717853E-02 -0.12428154682E-01  0.15155486959E-01  0.00000000000E+00 0.  1.
     999901    1    3    3    0    0  0.22942634351E-01 -0.11583913877E+00 -0.48021027571E-01  0.88918563283E+00  0.88000000000E+00 0. -1.
        -11    1    4    4    0    0 -0.18457240307E-01  0.26836711354E-01  0.29979069463E-01  0.44270583042E-01  0.51100000000E-03 0.  1.
         11    1    4    4    0    0  0.41019029112E-02  0.90222299201E-01  0.30470112790E-01  0.95318297169E-01  0.51100000000E-03 0. -1.
</event>
<event>
 8    1  0.2922807E+004  0.1043930E+01  0.7957747E-01            NaN
         13   -1    0    0    0    0  0.00000000000E+00  0.00000000000E+00  0.74505805969E-08  0.10566000000E+00  0.10566000000E+00 0. -1.
     999900   -1    0    0    0    0 -0.00000000000E+00 -0.00000000000E+00 -0.74505805969E-08  0.93827000000E+00  0.93827000000E+00 0.  1.
     999902    2    1    2    0    0 -0.89120405767E-02  0.87032048491E-02 -0.46694438530E-02  0.10306268444E+01  0.10305409834E+01 0.  0.
     999903    2    3    3    0    0  0.13074032657E-01 -0.31608808280E-01 -0.12891801636E+00  0.14071327921E+00  0.44836646983E-01 0.  0.
         14    1    1    2    0    0  0.89120405767E-02 -0.87032048491E-02  0.46694438530E-02  0.13303155557E-01  0.00000000000E+00 0. -1.
     999901    1    3    3    0    0 -0.21986073233E-01  0.40312013129E-01  0.12424857251E+00  0.88991356523E+00  0.88000000000E+00 0. -1.
        -11    1    4    4    0    0 -0.51873891485E-02 -0.33273021481E-01 -0.54490229783E-01  0.64058170653E-01  0.51100000000E-03 0. -1.
         11    1    4    4    0    0  0.18261421805E-01  0.16642132006E-02 -0.74427786576E-01  0.76655108555E-01  0.51100000000E-03 0.  1.
</event>
<event>
 8    1  0.2922807E+004  0.1043930E+01  0.7957747E-01            NaN
         13   -1    0    0    0    0  0.00000000000E+00  0.00000000000E+00  0.74505805969E-08  0.10566000000E+00  0.10566000000E+00 0. -1.
     999900   -1    0    0    0    0 -0.00000000000E+00 -0.00000000000E+00 -0.74505805969E-08  0.93827000000E+00  0.93827000000E+00 0.  1.
     999902    2    1    2    0    0 -0.88374119591E-02  0.68336341244E-02 -0.88787756370E-02  0.10296600644E+01  0.10295611770E+01 0.  0.
     999903    2    3    3    0    0  0.37941210298E-01  0.91220022140E-01 -0.89493651367E-01  0.14072358737E+00  0.45093087389E-01 0.  0.
         14    1    1    2    0    0  0.88374119591E-02 -0.68336341244E-02  0.88787756370E-02  0.14269935609E-01  0.00000000000E+00 0. -1.
     999901    1    3    3    0    0 -0.46778622257E-01 -0.84386388016E-01  0.80614875730E-01  0.88893647702E+00  0.88000000000E+00 0. -1.
        -11    1    4    4    0    0  0.34004683548E-01  0.32945922423E-01 -0.24403137619E-01  0.53268438631E-01  0.51100000000E-03 0. -1.
         11    1    4    4    0    0  0.39365267496E-02  0.58274099717E-01 -0.65090513748E-01  0.87455148743E-01  0.51100000000E-03 0.  1.
</event>
<event>
 8    1  0.2922807E+004  0.1043930E+01  0.7957747E-01            NaN
         13   -1    0    0    0    0  0.00000000000E+00  0.00000000000E+00  0.74505805969E-08  0.10566000000E+00  0.10566000000E+00 0. -1.
     999900   -1    0    0    0    0 -0.00000000000E+00 -0.00000000000E+00 -0.74505805969E-08  0.93827000000E+00  0.93827000000E+00 0.  1.
     999902    2    1    2    0    0  0.90874218766E-02 -0.55900272612E-02 -0.83763757147E-02  0.10303655866E+01  0.10302762973E+01 0.  0.
     999903    2    3    3    0    0  0.10281041605E+00 -0.78366200157E-01  0.35604211741E-01  0.14131290927E+00  0.44614296553E-01 0.  0.
         14    1    1    2    0    0 -0.90874218766E-02  0.55900272612E-02  0.83763757147E-02  0.13564413414E-01  0.00000000000E+00 0. -1.
     999901    1    3    3    0    0 -0.93722994169E-01  0.72776172895E-01 -0.43980587456E-01  0.88905267732E+00  0.88000000000E+00 0.  1.
        -11    1    4    4    0    0  0.17578639919E-01 -0.38460149371E-01  0.15756642534E-01  0.45130085043E-01  0.51100000000E-03 0. -1.
         11    1    4    4    0    0  0.85231776127E-01 -0.39906050785E-01  0.19847569207E-01  0.96182824223E-01  0.51100000000E-03 0.  1.
</event>
<event>
 7    1  0.2922807E+004  0.1043930E+01  0.7957747E-01            NaN
         13   -1    0    0    0    0  0.00000000000E+00  0.00000000000E+00  0.74505805969E-08  0.10566000000E+00  0.10566000000E+00 0.  1.
     999900   -1    0    0    0    0 -0.00000000000E+00 -0.00000000000E+00 -0.74505805969E-08  0.93827000000E+00  0.93827000000E+00 0. -1.
     999902    2    1    2    0    0 -0.11381721871E-01 -0.44848786107E-02 -0.74681350899E-02  0.10295971437E+01  0.10294973761E+01 0.  0.
         14    1    1    2    0    0  0.11381721871E-01  0.44848786107E-02  0.74681350899E-02  0.14332856331E-01  0.00000000000E+00 0.  1.
     999901    1    3    3    0    0 -0.31125019173E-01  0.19492880360E-01 -0.13927532006E+00  0.89170979247E+00  0.88000000000E+00 0. -1.
        -11    1    3    3    0    0  0.24014967848E-01 -0.14207922549E-01  0.73684032253E-01  0.78792014024E-01  0.51100000000E-03 0.  1.
         11    1    3    3    0    0 -0.42716705459E-02 -0.97698364214E-02  0.58123152720E-01  0.59095337177E-01  0.51100000000E-03 0. -1.
</event>
<event>
 8    1  0.2922807E+004  0.1043930E+01  0.7957747E-01            NaN
         13   -1    0    0    0    0  0.00000000000E+00  0.00000000000E+00  0.74505805969E-08  0.10566000000E+00  0.10566000000E+00 0. -1.
     999900   -1    0    0    0    0 -0.00000000000E+00 -0.00000000000E+00 -0.74505805969E-08  0.93827000000E+00  0.93827000000E+00 0.  1.
     999902    2    1    2    0    0  0.38094909477E-02  0.78046475447E-02 -0.73107198846E-02  0.10325778473E+01  0.10325154427E+01 0.  0.
     999903    2    3    3    0    0 -0.66785351047E-01  0.98835191945E-02  0.11535188677E+00  0.14126753747E+00  0.45743767843E-01 0.  0.
         14    1    1    2    0    0 -0.38094909477E-02 -0.78046475447E-02  0.73107198846E-02  0.11352152651E-01  0.00000000000E+00 0. -1.
     999901    1    3    3    0    0  0.70594841994E-01 -0.20788716498E-02 -0.12266260665E+00  0.89131030988E+00  0.88000000000E+00 0.  1.
        -11    1    4    4    0    0 -0.17562210729E-01 -0.11093319349E-01  0.99002178691E-02  0.23016698606E-01  0.51100000000E-03 0.  1.
         11    1    4    4    0    0 -0.49223140318E-01  0.20976838544E-01  0.10545166890E+00  0.11825083887E+00  0.51100000000E-03 0. -1.
</event>
<event>
 7    1  0.2922807E+004  0.1043930E+01  0.7957747E-01            NaN
         13   -1    0    0    0    0  0.00000000000E+00  0.00000000000E+00  0.74505805969E-08  0.10566000000E+00  0.10566000000E+00 0. -1.
     999900   -1    0    0    0    0 -0.00000000000E+00 -0.00000000000E+00 -0.74505805969E-08  0.93827000000E+00  0.93827000000E+00 0.  1.
     999903    2    1    2    0    0 -0.19517905485E-01 -0.44053800807E-01  0.59559959357E-01  0.88837021994E-01  0.44977124386E-01 0.  0.
         14    1    1    2    0    0 -0.30332795666E-03 -0.53443186902E-01 -0.44199975152E-01  0.69353471705E-01  0.00000000000E+00 0. -1.
     999901    1    1    2    0    0  0.19821233441E-01  0.97496987710E-01 -0.15359984205E-01  0.88573950630E+00  0.88000000000E+00 0. -1.
        -11    1    3    3    0    0 -0.32801878346E-01 -0.32305068328E-01  0.32035608537E-01  0.56090302174E-01  0.51100000000E-03 0. -1.
         11    1    3    3    0    0  0.13283972862E-01 -0.11748732480E-01  0.27524350820E-01  0.32746719819E-01  0.51100000000E-03 0.  1.
</event>
<event>
 8    1  0.2922807E+004  0.1043930E+01  0.7957747E-01            NaN
         13   -1    0    0    0    0  0.00000000000E+00  0.00000000000E+00  0.74505805969E-08  0.10566000000E+00  0.10566000000E+00 0.  1.
     999900   -1    0    0    0    0 -0.00000000000E+00 -0.00000000000E+00 -0.74505805969E-08  0.93827000000E+00  0.93827000000E+00 0. -1.
     999902    2    1    2    0    0 -0.10296002582E-01 -0.12251086858E-02  0.87250218999E-02  0.10303788167E+01  0.10302897027E+01 0.  0.
     999903    2    3    3    0    0  0.23478600923E-01 -0.61270922108E-01 -0.11427584599E+00  0.13915749908E+00  0.44726613755E-01 0.  0.
         14    1    1    2    0    0  0.10296002582E-01  0.12251086858E-02 -0.87250218999E-02  0.13551183256E-01  0.00000000000E+00 0.  1.
     999901    1    3    3    0    0 -0.33774603506E-01  0.60045813422E-01  0.12300086789E+00  0.89122131766E+00  0.88000000000E+00 0.  1.
        -11    1    4    4    0    0 -0.64233318528E-02 -0.41682247042E-01 -0.48342933082E-01  0.64155819771E-01  0.51100000000E-03 0.  1.
         11    1    4    4    0    0  0.29901932776E-01 -0.19588675066E-01 -0.65932912905E-01  0.75001679313E-01  0.51100000000E-03 0. -1.
</event>
<event>
 8    1  0.2922807E+004  0.1043930E+01  0.7957747E-01            NaN
         13   -1    0    0    0    0  0.00000000000E+00  0.00000000000E+00  0.74505805969E-08  0.10566000000E+00  0.10566000000E+00 0. -1.
     999900   -1    0    0    0    0 -0.00000000000E+00 -0.00000000000E+00 -0.74505805969E-08  0.93827000000E+00  0.93827000000E+00 0. -1.
     999902    2    1    2    0    0 -0.62428427757E-02 -0.12125033392E-01 -0.37613959199E-02  0.10297829996E+01  0.10296858204E+01 0.  0.
     999903    2    3    3    0    0 -0.94784239102E-01  0.90892540257E-01  0.12837445361E-01  0.13920581549E+00  0.44361618627E-01 0.  0.
         14    1    1    2    0    0  0.62428427757E-02  0.12125033392E-01  0.37613959199E-02  0.14147000386E-01  0.00000000000E+00 0. -1.
     999901    1    3    3    0    0  0.88541396326E-01 -0.10301757365E+00 -0.16598841281E-01  0.89057718412E+00  0.88000000000E+00 0.  1.
        -11    1    4    4    0    0 -0.63854242347E-01  0.86101111002E-01  0.75755596242E-02  0.10746355571E+00  0.51100000000E-03 0.  1.
         11    1    4    4    0    0 -0.30929996755E-01  0.47914292550E-02  0.52618857367E-02  0.31742259782E-01  0.51100000000E-03 0. -1.
</event>
<event>
 8    1  0.2922807E+004  0.1043930E+01  0.7957747E-01            NaN
         13   -1    0    0    0    0  0.00000000000E+00  0.00000000000E+00  0.74505805969E-08  0.10566000000E+00  0.10566000000E+00 0. -1.
     999900   -1    0    0    0    0 -0.00000000000E+00 -0.00000000000E+00 -0.74505805969E-08  0.93827000000E+00  0.93827000000E+00 0. -1.
     999902    2    1    2    0    0  0.49067496783E-02 -0.13091955994E-01 -0.12954361311E-02  0.10298888583E+01  0.10297931379E+01 0.  0.
     999903    2    3    3    0    0  0.12010008675E+00  0.21443018608E-01 -0.51820296439E-01  0.14027381189E+00  0.45908226859E-01 0.  0.
         14    1    1    2    0    0 -0.49067496783E-02  0.13091955994E-01  0.12954361311E-02  0.14041141654E-01  0.00000000000E+00 0.  1.
     999901    1    3    3    0    0 -0.11519333707E+00 -0.34534974603E-01  0.50524860308E-01  0.88961504646E+00  0.88000000000E+00 0.  1.
        -11    1    4    4    0    0  0.33078462886E-01 -0.13343690237E-01 -0.68475001865E-02  0.36323383045E-01  0.51100000000E-03 0. -1.
         11    1    4    4    0    0  0.87021623866E-01  0.34786708845E-01 -0.44972796253E-01  0.10395042884E+00  0.51100000000E-03 0.  1.
</event>
<event>
 8    1  0.2922807E+004  0.1043930E+01  0.7957747E-01            NaN
         13   -1    0    0    0    0  0.00000000000E+00  0.00000000000E+00  0.74505805969E-08  0.10566000000E+00  0.10566000000E+00 0. -1.
     999900   -1    0    0    0    0 -0.00000000000E+00 -0.00000000000E+00 -0.74505805969E-08  0.93827000000E+00  0.93827000000E+00 0. -1.
     999902    2    1    2    0    0  0.48074769828E-02  0.23065882562E-02  0.13128828386E-01  0.10297596676E+01  0.10296621654E+01 0.  0.
     999903    2    3    3    0    0  0.13136642933E+00 -0.24087907060E-03  0.19184398675E-01  0.14068130893E+00  0.46540227243E-01 0.  0.
         14    1    1    2    0    0 -0.48074769828E-02 -0.23065882562E-02 -0.13128828386E-01  0.14170332357E-01  0.00000000000E+00 0.  1.
     999901    1    3    3    0    0 -0.12655895234E+00  0.25474673268E-02 -0.60555702893E-02  0.88907835872E+00  0.88000000000E+00 0. -1.
        -11    1    4    4    0    0  0.73590025292E-01  0.19168987091E-01 -0.22220105128E-02  0.76079828734E-01  0.51100000000E-03 0.  1.
         11    1    4    4    0    0  0.57776404035E-01 -0.19409866161E-01  0.21406409188E-01  0.64601480191E-01  0.51100000000E-03 0. -1.
</event>
<event>
 8    1  0.2922807E+004  0.1043930E+01  0.7957747E-01            NaN
         13   -1    0    0    0    0  0.00000000000E+00  0.00000000000E+00  0.74505805969E-08  0.10566000000E+00  0.10566000000E+00 0. -1.
     999900   -1    0    0    0    0 -0.00000000000E+00 -0.00000000000E+00 -0.74505805969E-08  0.93827000000E+00  0.93827000000E+00 0.  1.
     999902    2    1    2    0    0  0.20150244674E-02 -0.58533155656E-02  0.13795440936E-01  0.10288092918E+01  0.10286981691E+01 0.  0.
     999903    2    3    3    0    0  0.20617293763E-01  0.26539144388E-01  0.12888230662E+00  0.14052988610E+00  0.44817417817E-01 0.  0.
         14    1    1    2    0    0 -0.20150244674E-02  0.58533155656E-02 -0.13795440936E-01  0.15120708228E-01  0.00000000000E+00 0.  1.
     999901    1    3    3    0    0 -0.18602269296E-01 -0.32392459953E-01 -0.11508686569E+00  0.88827940567E+00  0.88000000000E+00 0.  1.
        -11    1    4    4    0    0  0.18901986483E-01 -0.52911943195E-02  0.24555465615E-01  0.31440639989E-01  0.51100000000E-03 0.  1.
         11    1    4    4    0    0  0.17153072799E-02  0.31830338707E-01  0.10432684101E+00  0.10908924611E+00  0.51100000000E-03 0. -1.
</event>
<event>
 8    1  0.2922807E+004  0.1043930E+01  0.7957747E-01            NaN
         13   -1    0    0    0    0  0.00000000000E+00  0.00000000000E+00  0.74505805969E-08  0.10566000000E+00  0.10566000000E+00 0. -1.
     999900   -1    0    0    0    0 -0.00000000000E+00 -0.00000000000E+00 -0.74505805969E-08  0.93827000000E+00  0.93827000000E+00 0.  1.
     999902    2    1    2    0    0  0.34200115981E-02  0.11167838719E-01 -0.70860890931E-02  0.10302687497E+01  0.10301781724E+01 0.  0.
     999903    2    3    3    0    0 -0.12288419831E+00  0.20372947555E-01 -0.46496643143E-01  0.14033016798E+00  0.44889141631E-01 0.  0.
         14    1    1    2    0    0 -0.34200115981E-02 -0.11167838719E-01  0.70860890931E-02  0.13661250295E-01  0.00000000000E+00 0. -1.
     999901    1    3    3    0    0  0.12630420991E+00 -0.92051088362E-02  0.39410554049E-01  0.88993858172E+00  0.88000000000E+00 0. -1.
        -11    1    4    4    0    0 -0.32049275092E-01 -0.12376111738E-01 -0.32012633565E-02  0.34508453801E-01  0.51100000000E-03 0. -1.
         11    1    4    4    0    0 -0.90834923216E-01  0.32749059294E-01 -0.43295379786E-01  0.10582171418E+00  0.51100000000E-03 0.  1.
</event>
<event>
 8    1  0.2922807E+004  0.1043930E+01  0.7957747E-01            NaN
         13   -1    0    0    0    0  0.00000000000E+00  0.00000000000E+00  0.74505805969E-08  0.10566000000E+00  0.10566000000E+00 0.  1.
     999900   -1    0    0    0    0 -0.00000000000E+00 -0.00000000000E+00 -0.74505805969E-08  0.93827000000E+00  0.93827000000E+00 0.  1.
     999902    2    1    2    0    0 -0.70920657542E-02 -0.11204541492E-01  0.46624972239E-02  0.10298737549E+01  0.10297778270E+01 0.  0.
     999903    2    3    3    0    0 -0.61062736622E-01  0.11278042589E+00 -0.27119698045E-01  0.13897801833E+00  0.46166322022E-01 0.  0.
         14    1    1    2    0    0  0.70920657542E-02  0.11204541492E-01 -0.46624972239E-02  0.14056245127E-01  0.00000000000E+00 0. -1.
     999901    1    3    3    0    0  0.53970670868E-01 -0.12398496738E+00  0.31782195269E-01  0.89089573654E+00  0.88000000000E+00 0.  1.
        -11    1    4    4    0    0 -0.50020583170E-01  0.10388339290E+00 -0.85625322939E-02  0.11561745604E+00  0.51100000000E-03 0. -1.
         11    1    4    4    0    0 -0.11042153453E-01  0.88970329972E-02 -0.18557165751E-01  0.23360562295E-01  0.51100000000E-03 0.  1.
</event>
<event>
 8    1  0.2922807E+004  0.1043930E+01  0.7957747E-01            NaN
         13   -1    0    0    0    0  0.00000000000E+00  0.00000000000E+00  0.74505805969E-08  0.10566000000E+00  0.10566000000E+00 0.  1.
     999900   -1    0    0    0    0 -0.00000000000E+00 -0.00000000000E+00 -0.74505805969E-08  0.93827000000E+00  0.93827000000E+00 0. -1.
     999902    2    1    2    0    0  0.60336913301E-02  0.48230342962E-02 -0.10420425855E-01  0.10309587870E+01  0.10308771839E+01 0.  0.
     999903    2    3    3    0    0  0.65849517924E-01  0.28055473281E-01 -0.11500818876E+00  0.14244526463E+00  0.44051121937E-01 0.  0.
         14    1    1    2    0    0 -0.60336913301E-02 -0.48230342962E-02  0.10420425855E-01  0.12971212969E-01  0.00000000000E+00 0.  1.
     999901    1    3    3    0    0 -0.59815826594E-01 -0.23232438985E-01  0.10458776290E+00  0.88851352240E+00  0.88000000000E+00 0.  1.
        -11    1    4    4    0    0  0.27409310578E-01 -0.82478530498E-02 -0.24768954102E-01  0.37855773597E-01  0.51100000000E-03 0.  1.
         11    1    4    4    0    0  0.38440207346E-01  0.36303326331E-01 -0.90239234655E-01  0.10458949104E+00  0.51100000000E-03 0. -1.
</event>
<event>
 7    1  0.2922807E+004  0.1043930E+01  0.7957747E-01            NaN
         13   -1    0    0    0    0  0.00000000000E+00  0.00000000000E+00  0.74505805969E-08  0.10566000000E+00  0.10566000000E+00 0. -1.
     999900   -1    0    0    0    0 -0.00000000000E+00 -0.00000000000E+00 -0.74505805969E-08  0.93827000000E+00  0.93827000000E+00 0. -1.
     999903    2    1    2    0    0 -0.77364770972E-01  0.51269623256E-01 -0.12864469849E-01  0.10315184421E+00  0.43138455265E-01 0.  0.
         14    1    1    2    0    0 -0.38401188352E-01  0.24608331039E-01  0.20311230987E-01  0.49927620888E-01  0.00000000000E+00 0.  1.
     999901    1    1    2    0    0  0.11576595932E+00 -0.75877954295E-01 -0.74467611383E-02  0.89085053490E+00  0.88000000000E+00 0.  1.
        -11    1    3    3    0    0 -0.29102932742E-01 -0.13863818926E-02  0.48934135817E-02  0.29548424094E-01  0.51100000000E-03 0. -1.
         11    1    3    3    0    0 -0.48261838230E-01  0.52656005149E-01 -0.17757883431E-01  0.73603420114E-01  0.51100000000E-03 0.  1.
</event>
<event>
 8    1  0.2922807E+004  0.1043930E+01  0.7957747E-01            NaN
         13   -1    0    0    0    0  0.00000000000E+00  0.00000000000E+00  0.74505805969E-08  0.10566000000E+00  0.10566000000E+00 0. -1.
     999900   -1    0    0    0    0 -0.00000000000E+00 -0.00000000000E+00 -0.74505805969E-08  0.93827000000E+00  0.93827000000E+00 0.  1.
     999902    2    1    2    0    0  0.39995055522E-02  0.77225938360E-02 -0.25583264243E-01  0.10169089358E+01  0.10165498738E+01 0.  0.
     999903    2    3    3    0    0  0.75174722324E-01 -0.67059032389E-01 -0.68228378304E-01  0.12984816628E+00  0.45357270399E-01 0.  0.
         14    1    1    2    0    0 -0.39995055522E-02 -0.77225938360E-02  0.25583264243E-01  0.27021064183E-01  0.00000000000E+00 0.  1.
     999901    1    3    3    0    0 -0.71175216772E-01  0.74781626225E-01  0.42645114061E-01  0.88706076954E+00  0.88000000000E+00 0. -1.
        -11    1    4    4    0    0  0.63312193426E-01 -0.28405130234E-01 -0.49777698734E-01  0.85401204162E-01  0.51100000000E-03 0.  1.
         11    1    4    4    0    0  0.11862528898E-01 -0.38653902155E-01 -0.18450679571E-01  0.44446962116E-01  0.51100000000E-03 0. -1.
</event>
<event>
 8    1  0.2922807E+004  0.1043930E+01  0.7957747E-01            NaN
         13   -1    0    0    0    0  0.00000000000E+00  0.00000000000E+00  0.74505805969E-08  0.10566000000E+00  0.10566000000E+00 0. -1.
     999900   -1    0    0    0    0 -0.00000000000E+00 -0.00000000000E+00 -0.74505805969E-08  0.93827000000E+00  0.93827000000E+00 0. -1.
     999902    2    1    2    0    0  0.30056612763E-02 -0.13285397348E-01  0.27036829741E-02  0.10300431111E+01  0.10299494963E+01 0.  0.
     999903    2    3    3    0    0  0.12366250134E-01  0.10205843962E+00  0.81352944786E-01  0.13898894452E+00  0.46160327477E-01 0.  0.
         14    1    1    2    0    0 -0.30056612763E-02  0.13285397348E-01 -0.27036829741E-02  0.13886888926E-01  0.00000000000E+00 0. -1.
     999901    1    3    3    0    0 -0.93605888574E-02 -0.11534383697E+00 -0.78649261812E-01  0.89105416655E+00  0.88000000000E+00 0. -1.
        -11    1    4    4    0    0  0.29666608739E-01  0.65985739814E-01  0.47202453693E-01  0.86386100089E-01  0.51100000000E-03 0.  1.
         11    1    4    4    0    0 -0.17300358605E-01  0.36072699808E-01  0.34150491092E-01  0.52602844431E-01  0.51100000000E-03 0. -1.
</event>
<event>
 8    1  0.2922807E+004  0.1043930E+01  0.7957747E-01            NaN
         13   -1    0    0    0    0  0.00000000000E+00  0.00000000000E+00  0.74505805969E-08  0.10566000000E+00  0.10566000000E+00 0. -1.
     999900   -1    0    0    0    0 -0.00000000000E+00 -0.00000000000E+00 -0.74505805969E-08  0.93827000000E+00  0.93827000000E+00 0. -1.
     999902    2    1    2    0    0  0.13664574828E-01 -0.22751626684E-02  0.46666653192E-02  0.10293123827E+01  0.10292085826E+01 0.  0.
     999903    2    3    3    0    0  0.12618177827E+00 -0.35598986119E-01 -0.22021117990E-01  0.14112161712E+00  0.47341865207E-01 0.  0.
         14    1    1    2    0    0 -0.13664574828E-01  0.22751626684E-02 -0.46666653192E-02  0.14617617302E-01  0.00000000000E+00 0. -1.
     999901    1    3    3    0    0 -0.11251720344E+00  0.33323823450E-01  0.26687783309E-01  0.88819076558E+00  0.88000000000E+00 0.  1.
        -11    1    4    4    0    0  0.72866715385E-01  0.39138433279E-02 -0.95248050903E-02  0.73592522810E-01  0.51100000000E-03 0. -1.
         11    1    4    4    0    0  0.53315062884E-01 -0.39512829447E-01 -0.12496312899E-01  0.67529094310E-01  0.51100000000E-03 0.  1.
</event>
<event>
 8    1  0.2922807E+004  0.1043930E+01  0.7957747E-01            NaN
         13   -1    0    0    0    0  0.00000000000E+00  0.00000000000E+00  0.74505805969E-08  0.10566000000E+00  0.10566000000E+00 0. -1.
     999900   -1    0    0    0    0 -0.00000000000E+00 -0.00000000000E+00 -0.74505805969E-08  0.93827000000E+00  0.93827000000E+00 0. -1.
     999902    2    1    2    0    0 -0.13498286194E-01  0.22592148558E-02 -0.32165206168E-02  0.10298710603E+01  0.10297750953E+01 0.  0.
     999903    2    3    3    0    0 -0.82638144077E-01 -0.99230856579E-01  0.33378071538E-01  0.14059061027E+00  0.44449952555E-01 0.  0.
         14    1    1    2    0    0  0.13498286194E-01 -0.22592148558E-02  0.32165206168E-02  0.14058939748E-01  0.00000000000E+00 0.  1.
     999901    1    3    3    0    0  0.69139857883E-01  0.10149007144E+00 -0.36594592155E-01  0.88928044998E+00  0.88000000000E+00 0. -1.
        -11    1    4    4    0    0 -0.86124552226E-01 -0.82608168970E-01  0.26416737459E-01  0.12222787414E+00  0.51100000000E-03 0. -1.
         11    1    4    4    0    0  0.34864081489E-02 -0.16622687609E-01  0.69613340793E-02  0.18362736133E-01  0.51100000000E-03 0.  1.
</event>
<event>
 8    1  0.2922807E+004  0.1043930E+01  0.7957747E-01            NaN
         13   -1    0    0    0    0  0.00000000000E+00  0.00000000000E+00  0.74505805969E-08  0.10566000000E+00  0.10566000000E+00 0.  1.
     999900   -1    0    0    0    0 -0.00000000000E+00 -0.00000000000E+00 -0.74505805969E-08  0.93827000000E+00  0.93827000000E+00 0.  1.
     999902    2    1    2    0    0  0.64860566654E-02 -0.96811822157E-02 -0.49239010838E-02  0.10312793470E+01  0.10312017516E+01 0.  0.
     999903    2    3    3    0    0 -0.10333046640E+00 -0.80912358504E-01 -0.26521756689E-01  0.14133551921E+00  0.45258483924E-01 0.  0.
         14    1    1    2    0    0 -0.64860566654E-02  0.96811822157E-02  0.49239010838E-02  0.12650653028E-01  0.00000000000E+00 0.  1.
     999901    1    3    3    0    0  0.10981652306E+00  0.71231176288E-01  0.21597855605E-01  0.88994382777E+00  0.88000000000E+00 0. -1.
        -11    1    4    4    0    0 -0.72666629223E-01 -0.46042075072E-01 -0.37136499658E-01  0.93700012846E-01  0.51100000000E-03 0.  1.
         11    1    4    4    0    0 -0.30663837172E-01 -0.34870283432E-01  0.10614742970E-01  0.47635506359E-01  0.51100000000E-03 0. -1.
</event>
<event>
 8    1  0.2922807E+004  0.1043930E+01  0.7957747E-01            NaN
         13   -1    0    0    0    0  0.00000000000E+00  0.00000000000E+00  0.74505805969E-08  0.10566000000E+00  0.10566000000E+00 0.  1.
     999900   -1    0    0    0    0 -0.00000000000E+00 -0.00000000000E+00 -0.74505805969E-08  0.93827000000E+00  0.93827000000E+00 0.  1.
     999902    2    1    2    0    0  0.76007300358E-02  0.11903714025E-01  0.29461872375E-02  0.10295026120E+01  0.10294015148E+01 0.  0.
     999903    2    3    3    0    0  0.29708776533E-01  0.81871098096E-01  0.10127130310E+00  0.14099148155E+00  0.45135716810E-01 0.  0.
         14    1    1    2    0    0 -0.76007300358E-02 -0.11903714025E-01 -0.29461872375E-02  0.14427387979E-01  0.00000000000E+00 0. -1.
     999901    1    3    3    0    0 -0.22108046497E-01 -0.69967384071E-01 -0.98325115866E-01  0.88851113047E+00  0.88000000000E+00 0.  1.
        -11    1    4    4    0    0  0.14862555572E-01  0.74489780096E-01  0.98154138450E-01  0.12411333092E+00  0.51100000000E-03 0. -1.
         11    1    4    4    0    0  0.14846220961E-01  0.73813179999E-02  0.31171646536E-02  0.16878150631E-01  0.51100000000E-03 0.  1.
</event>
<event>
 8    1  0.2922807E+004  0.1043930E+01  0.7957747E-01            NaN
         13   -1    0    0    0    0  0.00000000000E+00  0.00000000000E+00  0.74505805969E-08  0.10566000000E+00  0.10566000000E+00 0. -1.
     999900   -1    0    0    0    0 -0.00000000000E+00 -0.00000000000E+00 -0.74505805969E-08  0.93827000000E+00  0.93827000000E+00 0. -1.
     999902    2    1    2    0    0 -0.92239611238E-03 -0.12489014711E-01  0.85456622264E-02  0.10287690421E+01  0.10286573226E+01 0.  0.
     999903    2    3    3    0    0 -0.12704482151E+00 -0.14346019345E-01 -0.30923770060E-01  0.13889930398E+00  0.44615492239E-01 0.  0.
         14    1    1    2    0    0  0.92239611238E-03  0.12489014711E-01 -0.85456622264E-02  0.15160957949E-01  0.00000000000E+00 0.  1.
     999901    1    3    3    0    0  0.12612242540E+00  0.18570046338E-02  0.39469432287E-01  0.88986973807E+00  0.88000000000E+00 0.  1.
        -11    1    4    4    0    0 -0.10345836767E+00 -0.14460224731E-02 -0.83762159723E-02  0.10380822192E+00  0.51100000000E-03 0.  1.
         11    1    4    4    0    0 -0.23586453833E-01 -0.12899996872E-01 -0.22547554088E-01  0.35091082059E-01  0.51100000000E-03 0. -1.
</event>
<event>
 7    1  0.2922807E+004  0.1043930E+01  0.7957747E-01            NaN
         13   -1    0    0    0    0  0.00000000000E+00  0.00000000000E+00  0.74505805969E-08  0.10566000000E+00  0.10566000000E+00 0. -1.
     999900   -1    0    0    0    0 -0.00000000000E+00 -0.00000000000E+00 -0.74505805969E-08  0.93827000000E+00  0.93827000000E+00 0. -1.
     999903    2    1    2    0    0 -0.68366347356E-01  0.12019535892E-01  0.73718610078E-01  0.11019499326E+00  0.43475008623E-01 0.  0.
         14    1    1    2    0    0  0.36986142385E-01 -0.15952747266E-01 -0.33261772890E-01  0.52238016900E-01  0.00000000000E+00 0.  1.
     999901    1    1    2    0    0  0.31380204971E-01  0.39332113744E-02 -0.40456837188E-01  0.88149698984E+00  0.88000000000E+00 0. -1.
        -11    1    3    3    0    0 -0.24698097844E-01  0.25582330935E-01  0.25637939286E-01  0.43840811409E-01  0.51100000000E-03 0. -1.
         11    1    3    3    0    0 -0.43668249512E-01 -0.13562795043E-01  0.48080670791E-01  0.66354181855E-01  0.51100000000E-03 0.  1.
</event>
<event>
 8    1  0.2922807E+004  0.1043930E+01  0.7957747E-01            NaN
         13   -1    0    0    0    0  0.00000000000E+00  0.00000000000E+00  0.74505805969E-08  0.10566000000E+00  0.10566000000E+00 0. -1.
     999900   -1    0    0    0    0 -0.00000000000E+00 -0.00000000000E+00 -0.74505805969E-08  0.93827000000E+00  0.93827000000E+00 0. -1.
     999902    2    1    2    0    0 -0.39189907338E-02 -0.74255166465E-02 -0.13171153370E-01  0.10283102667E+01  0.10281916303E+01 0.  0.
     999903    2    3    3    0    0 -0.11206148355E+00  0.36580580418E-01 -0.59537399394E-01  0.13938891809E+00  0.44594322490E-01 0.  0.
         14    1    1    2    0    0  0.39189907338E-02  0.74255166465E-02  0.13171153370E-01  0.15619733255E-01  0.00000000000E+00 0. -1.
     999901    1    3    3    0    0  0.10814249282E+00 -0.44006097064E-01  0.46366246024E-01  0.88892134866E+00  0.88000000000E+00 0.  1.
        -11    1    4    4    0    0 -0.63292076501E-01  0.12539744153E-01 -0.55070963874E-01  0.84830444501E-01  0.51100000000E-03 0.  1.
         11    1    4    4    0    0 -0.48769407054E-01  0.24040836264E-01 -0.44664355205E-02  0.54558473585E-01  0.51100000000E-03 0. -1.
</event>
<event>
 8    1  0.2922807E+004  0.1043930E+01  0.7957747E-01            NaN
         13   -1    0    0    0    0  0.00000000000E+00  0.00000000000E+00  0.74505805969E-08  0.10566000000E+00  0.10566000000E+00 0.  1.
     999900   -1    0    0    0    0 -0.00000000000E+00 -0.00000000000E+00 -0.74505805969E-08  0.93827000000E+00  0.93827000000E+00 0. -1.
     999902    2    1    2    0    0  0.15494876658E-01 -0.92313717247E-03  0.44425355189E-04  0.10284075853E+01  0.10282904337E+01 0.  0.
     999903    2    3    3    0    0 -0.54931309749E-01 -0.10276746213E+00 -0.58308277962E-01  0.13782510610E+00  0.44914413361E-01 0.  0.
         14    1    1    2    0    0 -0.15494876658E-01  0.92313717247E-03 -0.44425355189E-04  0.15522414712E-01  0.00000000000E+00 0. -1.
     999901    1    3    3    0    0  0.70426186407E-01  0.10184432496E+00  0.58352703317E-01  0.89058247919E+00  0.88000000000E+00 0.  1.
        -11    1    4    4    0    0 -0.21049371580E-01 -0.31544925807E-01 -0.43257273068E-01  0.57529220249E-01  0.51100000000E-03 0.  1.
         11    1    4    4    0    0 -0.33881938169E-01 -0.71222536326E-01 -0.15051004893E-01  0.80295885847E-01  0.51100000000E-03 0. -1.
</event>
<event>
 8    1  0.2922807E+004  0.1043930E+01  0.7957747E-01            NaN
         13   -1    0    0    0    0  0.00000000000E+00  0.00000000000E+00  0.74505805969E-08  0.10566000000E+00  0.10566000000E+00 0. -1.
     999900   -1    0    0    0    0 -0.00000000000E+00 -0.00000000000E+00 -0.74505805969E-08  0.93827000000E+00  0.93827000000E+00 0. -1.
     999902    2    1    2    0    0 -0.23004849430E-02 -0.14096324190E-01 -0.70129507350E-02  0.10280183670E+01  0.10278952198E+01 0.  0.
     999903    2    3    3    0    0 -0.70458025219E-01 -0.49149266402E-01  0.98894022629E-01  0.13836087894E+00  0.44538987466E-01 0.  0.
         14    1    1    2    0    0  0.23004849430E-02  0.14096324190E-01  0.70129507350E-02  0.15911632997E-01  0.00000000000E+00 0.  1.
     999901    1    3    3    0    0  0.68157540276E-01  0.35052942213E-01 -0.10590697336E+00  0.88965748806E+00  0.88000000000E+00 0. -1.
        -11    1    4    4    0    0 -0.92139001473E-02 -0.85901596410E-02 -0.27958857005E-02  0.12913748349E-01  0.51100000000E-03 0. -1.
         11    1    4    4    0    0 -0.61244125072E-01 -0.40559106761E-01  0.10168990833E+00  0.12544713059E+00  0.51100000000E-03 0.  1.
</event>
<event>
 8    1  0.2922807E+004  0.1043930E+01  0.7957747E-01            NaN
         13   -1    0    0    0    0  0.00000000000E+00  0.00000000000E+00  0.74505805969E-08  0.10566000000E+00  0.10566000000E+00 0. -1.
     999900   -1    0    0    0    0 -0.00000000000E+00 -0.00000000000E+00 -0.74505805969E-08  0.93827000000E+00  0.93827000000E+00 0. -1.
     999902    2    1    2    0    0 -0.74846907066E-02 -0.15763832818E-01 -0.21047163822E-02  0.10263530591E+01  0.10262025400E+01 0.  0.
     999903    2    3    3    0    0 -0.11971275808E+00 -0.21951730800E-01  0.47067973540E-01  0.13784229236E+00  0.44408112980E-01 0.  0.
         14    1    1    2    0    0  0.74846907066E-02  0.15763832818E-01  0.21047163822E-02  0.17576940892E-01  0.00000000000E+00 0. -1.
     999901    1    3    3    0    0  0.11222806737E+00  0.61878979828E-02 -0.49172689922E-01  0.88851076675E+00  0.88000000000E+00 0. -1.
        -11    1    4    4    0    0 -0.51869922541E-01 -0.98503473976E-03 -0.13438293438E-02  0.51899192249E-01  0.51100000000E-03 0.  1.
         11    1    4    4    0    0 -0.67842835539E-01 -0.20966696061E-01  0.48411802884E-01  0.85943100113E-01  0.51100000000E-03 0. -1.
</event>
<event>
 8    1  0.2922807E+004  0.1043930E+01  0.7957747E-01            NaN
         13   -1    0    0    0    0  0.00000000000E+00  0.00000000000E+00  0.74505805969E-08  0.10566000000E+00  0.10566000000E+00 0. -1.
     999900   -1    0    0    0    0 -0.00000000000E+00 -0.00000000000E+00 -0.74505805969E-08  0.93827000000E+00  0.93827000000E+00 0. -1.
     999902    2    1    2    0    0 -0.41171334202E-02  0.12561627200E-01 -0.42577343389E-02  0.10300421072E+01  0.10299484788E+01 0.  0.
     999903    2    3    3    0    0 -0.44721832310E-01 -0.49003877946E-01  0.11376320758E+00  0.13910552372E+00  0.44797957472E-01 0.  0.
         14    1    1    2    0    0  0.41171334202E-02 -0.12561627200E-01  0.42577343389E-02  0.13887892828E-01  0.00000000000E+00 0. -1.
     999901    1    3    3    0    0  0.40604698890E-01  0.61565505146E-01 -0.11802094191E+00  0.89093658345E+00  0.88000000000E+00 0. -1.
        -11    1    4    4    0    0 -0.51369859931E-01 -0.30459043833E-01  0.77604129092E-01  0.97924858098E-01  0.51100000000E-03 0. -1.
         11    1    4    4    0    0  0.66480276211E-02 -0.18544834114E-01  0.36159078484E-01  0.41180665625E-01  0.51100000000E-03 0.  1.
</event>
<event>
 8    1  0.2922807E+004  0.1043930E+01  0.7957747E-01            NaN
         13   -1    0    0    0    0  0.00000000000E+00  0.00000000000E+00  0.74505805969E-08  0.10566000000E+00  0.10566000000E+00 0.  1.
     999900   -1    0    0    0    0 -0.00000000000E+00 -0.00000000000E+00 -0.74505805969E-08  0.93827000000E+00  0.93827000000E+00 0. -1.
     999902    2    1    2    0    0  0.70068350842E-02  0.10746903821E-01  0.14345320700E-01  0.10246847433E+01  0.10245039986E+01 0.  0.
     999903    2    3    3    0    0  0.73127210817E-01 -0.86129671081E-01 -0.56310463191E-01  0.13409549193E+00  0.45219724552E-01 0.  0.
         14    1    1    2    0    0 -0.70068350842E-02 -0.10746903821E-01 -0.14345320700E-01  0.19245256705E-01  0.00000000000E+00 0. -1.
     999901    1    3    3    0    0 -0.66120375733E-01  0.96876574902E-01  0.70655783891E-01  0.89058925137E+00  0.88000000000E+00 0.  1.
        -11    1    4    4    0    0  0.55551194650E-01 -0.41921268937E-01 -0.15242823603E-01  0.71245580977E-01  0.51100000000E-03 0. -1.
         11    1    4    4    0    0  0.17576016167E-01 -0.44208402144E-01 -0.41067639588E-01  0.62849910953E-01  0.51100000000E-03 0.  1.
</event>
<event>
 8    1  0.2922807E+004  0.1043930E+01  0.7957747E-01            NaN
         13   -1    0    0    0    0  0.00000000000E+00  0.00000000000E+00  0.74505805969E-08  0.10566000000E+00  0.10566000000E+00 0.  1.
     999900   -1    0    0    0    0 -0.00000000000E+00 -0.00000000000E+00 -0.74505805969E-08  0.93827000000E+00  0.93827000000E+00 0.  1.
     999902    2    1    2    0    0 -0.11055860076E-01  0.64728806862E-02 -0.54889248509E-02  0.10299923344E+01  0.10298980291E+01 0.  0.
     999903    2    3    3    0    0  0.11982950296E+00 -0.52275428094E-01 -0.91786549252E-02  0.13836687707E+00  0.44376962532E-01 0.  0.
         14    1    1    2    0    0  0.11055860076E-01 -0.64728806862E-02  0.54889248509E-02  0.13937665602E-01  0.00000000000E+00 0.  1.
     999901    1    3    3    0    0 -0.13088536303E+00  0.58748308780E-01  0.36897300742E-02  0.89162545732E+00  0.88000000000E+00 0. -1.
        -11    1    4    4    0    0  0.15852625737E-01  0.70890165283E-02 -0.66696238005E-02  0.18609269216E-01  0.51100000000E-03 0. -1.
         11    1    4    4    0    0  0.10397687722E+00 -0.59364444622E-01 -0.25090311247E-02  0.11975760786E+00  0.51100000000E-03 0.  1.
</event>
<event>
 8    1  0.2922807E+004  0.1043930E+01  0.7957747E-01            NaN
         13   -1    0    0    0    0  0.00000000000E+00  0.00000000000E+00  0.74505805969E-08  0.10566000000E+00  0.10566000000E+00 0. -1.
     999900   -1    0    0    0    0 -0.00000000000E+00 -0.00000000000E+00 -0.74505805969E-08  0.93827000000E+00  0.93827000000E+00 0.  1.
     999902    2    1    2    0    0  0.19397622495E-02  0.54714281047E-02 -0.12778325775E-01  0.10298948722E+01  0.10297992343E+01 0.  0.
     999903    2    3    3    0    0  0.13122384383E+00 -0.52585797128E-02 -0.20162135569E-01  0.14035340184E+00  0.45224062712E-01 0.  0.
         14    1    1    2    0    0 -0.19397622495E-02 -0.54714281047E-02  0.12778325775E-01  0.14035127812E-01  0.00000000000E+00 0. -1.
     999901    1    3    3    0    0 -0.12928408158E+00  0.10730007817E-01  0.73838097944E-02  0.88954147035E+00  0.88000000000E+00 0. -1.
        -11    1    4    4    0    0  0.72327066678E-01 -0.19146071589E-02  0.11717424908E-01  0.73296858475E-01  0.51100000000E-03 0.  1.
         11    1    4    4    0    0  0.58896777151E-01 -0.33439725539E-02 -0.31879560477E-01  0.67056543368E-01  0.51100000000E-03 0. -1.
</event>
<event>
 8    1  0.2922807E+004  0.1043930E+01  0.7957747E-01            NaN
         13   -1    0    0    0    0  0.00000000000E+00  0.00000000000E+00  0.74505805969E-08  0.10566000000E+00  0.10566000000E+00 0. -1.
     999900   -1    0    0    0    0 -0.00000000000E+00 -0.00000000000E+00 -0.74505805969E-08  0.93827000000E+00  0.93827000000E+00 0.  1.
     999902    2    1    2    0    0  0.81891841581E-02 -0.47386170395E-02 -0.10460273739E-01  0.10298255838E+01  0.10297289928E+01 0.  0.
     999903    2    3    3    0    0  0.23254015943E-01  0.12920159485E+00 -0.22907110393E-01  0.13947629661E+00  0.41171595076E-01 0.  0.
         14    1    1    2    0    0 -0.81891841581E-02  0.47386170395E-02  0.10460273739E-01  0.14104416164E-01  0.00000000000E+00 0.  1.
     999901    1    3    3    0    0 -0.15064831785E-01 -0.13394021189E+00  0.12446836653E-01  0.89034928722E+00  0.88000000000E+00 0. -1.
        -11    1    4    4    0    0 -0.59406534136E-02  0.40418507046E-01 -0.21133319640E-01  0.45998102078E-01  0.51100000000E-03 0.  1.
         11    1    4    4    0    0  0.29194669357E-01  0.88783087803E-01 -0.17737907528E-02  0.93478194534E-01  0.51100000000E-03 0. -1.
</event>
<event>
 8    1  0.2922807E+004  0.1043930E+01  0.7957747E-01            NaN
         13   -1    0    0    0    0  0.00000000000E+00  0.00000000000E+00  0.74505805969E-08  0.10566000000E+00  0.10566000000E+00 0.  1.
     999900   -1    0    0    0    0 -0.00000000000E+00 -0.00000000000E+00 -0.74505805969E-08  0.93827000000E+00  0.93827000000E+00 0. -1.
     999902    2    1    2    0    0 -0.48558627678E-02  0.58909781267E-02  0.10436869707E-01  0.10309989801E+01  0.10309178850E+01 0.  0.
     999903    2    3    3    0    0 -0.47696778866E-02 -0.93316841355E-01  0.96066015128E-01  0.14129422602E+00  0.44772718668E-01 0.  0.
         14    1    1    2    0    0  0.48558627678E-02 -0.58909781267E-02 -0.10436869707E-01  0.12931019905E-01  0.00000000000E+00 0. -1.
     999901    1    3    3    0    0 -0.86184881188E-04  0.99207819482E-01 -0.85629145422E-01  0.88970475407E+00  0.88000000000E+00 0. -1.
        -11    1    4    4    0    0  0.28701081651E-02 -0.55374806270E-01  0.25992877524E-01  0.61241305451E-01  0.51100000000E-03 0.  1.
         11    1    4    4    0    0 -0.76397860517E-02 -0.37942035085E-01  0.70073137604E-01  0.80052920572E-01  0.51100000000E-03 0. -1.
</event>
<event>
 8    1  0.2922807E+004  0.1043930E+01  0.7957747E-01            NaN
         13   -1    0    0    0    0  0.00000000000E+00  0.00000000000E+00  0.74505805969E-08  0.10566000000E+00  0.10566000000E+00 0. -1.
     999900   -1    0    0    0    0 -0.00000000000E+00 -0.00000000000E+00 -0.74505805969E-08  0.93827000000E+00  0.93827000000E+00 0. -1.
     999902    2    1    2    0    0  0.12998471253E-01 -0.20907549277E-02 -0.50052797426E-02  0.10298451025E+01  0.10297487805E+01 0.  0.
     999903    2    3    3    0    0 -0.79953447230E-01 -0.82880306660E-01 -0.64060599943E-01  0.13930900464E+00  0.45183396881E-01 0.  0.
         14    1    1    2    0    0 -0.12998471253E-01  0.20907549277E-02  0.50052797426E-02  0.14084897457E-01  0.00000000000E+00 0. -1.
     999901    1    3    3    0    0  0.92951918482E-01  0.80789551732E-01  0.59055320201E-01  0.89053609790E+00  0.88000000000E+00 0.  1.
        -11    1    4    4    0    0 -0.40702824949E-01 -0.72136685789E-01 -0.39397732783E-01  0.91721665189E-01  0.51100000000E-03 0. -1.
         11    1    4    4    0    0 -0.39250622281E-01 -0.10743620871E-01 -0.24662867160E-01  0.47587339455E-01  0.51100000000E-03 0.  1.
</event>
<event>
 8    1  0.2922807E+004  0.1043930E+01  0.7957747E-01            NaN
         13   -1    0    0    0    0  0.00000000000E+00  0.00000000000E+00  0.74505805969E-08  0.10566000000E+00  0.10566000000E+00 0.  1.
     999900   -1    0    0    0    0 -0.00000000000E+00 -0.00000000000E+00 -0.74505805969E-08  0.93827000000E+00  0.93827000000E+00 0. -1.
     999902    2    1    2    0    0  0.25471557115E-02 -0.84448876996E-02  0.87923935984E-02  0.10314756708E+01  0.10314004795E+01 0.  0.
     999903    2    3    3    0    0 -0.84807393961E-02 -0.81682755393E-01 -0.10552688917E+00  0.14099585736E+00  0.44720375521E-01 0.  0.
         14    1    1    2    0    0 -0.25471557115E-02  0.84448876996E-02 -0.87923935984E-02  0.12454329194E-01  0.00000000000E+00 0. -1.
     999901    1    3    3    0    0  0.11027895108E-01  0.73237867693E-01  0.11431928277E+00  0.89047981344E+00  0.88000000000E+00 0.  1.
        -11    1    4    4    0    0 -0.12270063115E-01 -0.19270792681E-01 -0.62883710668E-02  0.23700688410E-01  0.51100000000E-03 0. -1.
         11    1    4    4    0    0  0.37893237193E-02 -0.62411962712E-01 -0.99238518103E-01  0.11729516895E+00  0.51100000000E-03 0.  1.
</event>
<event>
 8    1  0.2922807E+004  0.1043930E+01  0.7957747E-01            NaN
         13   -1    0    0    0    0  0.00000000000E+00  0.00000000000E+00  0.74505805969E-08  0.10566000000E+00  0.10566000000E+00 0. -1.
     999900   -1    0    0    0    0 -0.00000000000E+00 -0.00000000000E+00 -0.74505805969E-08  0.93827000000E+00  0.93827000000E+00 0.  1.
     999902    2    1    2    0    0 -0.17368693297E-01 -0.82126327472E-02 -0.29900609976E-02  0.10244862527E+01  0.10243017244E+01 0.  0.
     999903    2    3    3    0    0 -0.58413409522E-01 -0.11496788414E+00  0.71103453976E-02  0.13702731246E+00  0.45784129929E-01 0.  0.
         14    1    1    2    0    0  0.17368693297E-01  0.82126327472E-02  0.29900609976E-02  0.19443747279E-01  0.00000000000E+00 0.  1.
     999901    1    3    3    0    0  0.41044716225E-01  0.10675525140E+00 -0.10100406395E-01  0.88745894026E+00  0.88000000000E+00 0.  1.
        -11    1    4    4    0    0 -0.57192543797E-01 -0.94555460767E-01  0.20753369903E-01  0.11243969811E+00  0.51100000000E-03 0.  1.
         11    1    4    4    0    0 -0.12208657251E-02 -0.20412423376E-01 -0.13643024505E-01  0.24587614359E-01  0.51100000000E-03 0. -1.
</event>
<event>
 8    1  0.2922807E+004  0.1043930E+01  0.7957747E-01            NaN
         13   -1    0    0    0    0  0.00000000000E+00  0.00000000000E+00  0.74505805969E-08  0.10566000000E+00  0.10566000000E+00 0. -1.
     999900   -1    0    0    0    0 -0.00000000000E+00 -0.00000000000E+00 -0.74505805969E-08  0.93827000000E+00  0.93827000000E+00 0.  1.
     999902    2    1    2    0    0  0.16240359069E-02  0.67550269525E-02 -0.11819627571E-01  0.10302197309E+01  0.10301284981E+01 0.  0.
     999903    2    3    3    0    0  0.60680116915E-01 -0.80258162162E-01  0.82456571614E-01  0.13895831165E+00  0.48855675122E-01 0.  0.
         14    1    1    2    0    0 -0.16240359069E-02 -0.67550269525E-02  0.11819627571E-01  0.13710269060E-01  0.00000000000E+00 0. -1.
     999901    1    3    3    0    0 -0.59056081008E-01  0.87013189115E-01 -0.94276199186E-01  0.89126141929E+00  0.88000000000E+00 0.  1.
        -11    1    4    4    0    0  0.25402961076E-01 -0.37885328072E-01  0.80066262556E-02  0.46313882363E-01  0.51100000000E-03 0. -1.
         11    1    4    4    0    0  0.35277155839E-01 -0.42372834090E-01  0.74449945358E-01  0.92644429286E-01  0.51100000000E-03 0.  1.
</event>
<event>
 7    1  0.2922807E+004  0.1043930E+01  0.7957747E-01            NaN
         13   -1    0    0    0    0  0.00000000000E+00  0.00000000000E+00  0.74505805969E-08  0.10566000000E+00  0.10566000000E+00 0. -1.
     999900   -1    0    0    0    0 -0.00000000000E+00 -0.00000000000E+00 -0.74505805969E-08  0.93827000000E+00  0.93827000000E+00 0.  1.
     999902    2    1    2    0    0 -0.61487065832E-02  0.75551258550E-02  0.51260112757E-02  0.10329226156E+01  0.10328639636E+01 0.  0.
         14    1    1    2    0    0  0.61487065832E-02 -0.75551258550E-02 -0.51260112757E-02  0.11007384382E-01  0.00000000000E+00 0.  1.
     999901    1    3    3    0    0 -0.12513127714E+00  0.34199161384E-01  0.20393683324E-01  0.88974340204E+00  0.88000000000E+00 0. -1.
        -11    1    3    3    0    0  0.10335682617E+00 -0.22801791929E-01  0.16922490638E-01  0.10718762541E+00  0.51100000000E-03 0. -1.
         11    1    3    3    0    0  0.15625744388E-01 -0.38422436000E-02 -0.32190162686E-01  0.35991588161E-01  0.51100000000E-03 0.  1.
</event>
<event>
 8    1  0.2922807E+004  0.1043930E+01  0.7957747E-01            NaN
         13   -1    0    0    0    0  0.00000000000E+00  0.00000000000E+00  0.74505805969E-08  0.10566000000E+00  0.10566000000E+00 0.  1.
     999900   -1    0    0    0    0 -0.00000000000E+00 -0.00000000000E+00 -0.74505805969E-08  0.93827000000E+00  0.93827000000E+00 0.  1.
     999902    2    1    2    0    0 -0.94076515795E-02  0.87712275283E-02 -0.12536680763E-02  0.10310067642E+01  0.10309257673E+01 0.  0.
     999903    2    3    3    0    0  0.12029721048E+00  0.48772014844E-01 -0.27066122611E-01  0.14022637764E+00  0.45615060129E-01 0.  0.
         14    1    1    2    0    0  0.94076515795E-02 -0.87712275283E-02  0.12536680763E-02  0.12923235827E-01  0.00000000000E+00 0. -1.
     999901    1    3    3    0    0 -0.12970486206E+00 -0.40000787315E-01  0.25812454535E-01  0.89078038654E+00  0.88000000000E+00 0.  1.
        -11    1    4    4    0    0  0.67689649492E-01  0.23990966831E-01  0.80900062723E-02  0.72271463665E-01  0.51100000000E-03 0. -1.
         11    1    4    4    0    0  0.52607560989E-01  0.24781048013E-01 -0.35156128884E-01  0.67954913972E-01  0.51100000000E-03 0.  1.
</event>
<event>
 8    1  0.2922807E+004  0.1043930E+01  0.7957747E-01            NaN
         13   -1    0    0    0    0  0.00000000000E+00  0.00000000000E+00  0.74505805969E-08  0.10566000000E+00  0.10566000000E+00 0.  1.
     999900   -1    0    0    0    0 -0.00000000000E+00 -0.00000000000E+00 -0.74505805969E-08  0.93827000000E+00  0.93827000000E+00 0. -1.
     999902    2    1    2    0    0  0.13023697719E-01 -0.54956127755E-02  0.40683035800E-02  0.10292204944E+01  0.10291153757E+01 0.  0.
     999903    2    3    3    0    0 -0.12950332503E+00  0.38768496092E-02 -0.46206683486E-02  0.13766158240E+00  0.46294919129E-01 0.  0.
         14    1    1    2    0    0 -0.13023697719E-01  0.54956127755E-02 -0.40683035800E-02  0.14709505637E-01  0.00000000000E+00 0.  1.
     999901    1    3    3    0    0  0.14252702275E+00 -0.93724623848E-02  0.86889719285E-02  0.89155891196E+00  0.88000000000E+00 0.  1.
        -11    1    4    4    0    0 -0.47976876535E-01 -0.12322761321E-01  0.15933262049E-01  0.52036151752E-01  0.51100000000E-03 0. -1.
         11    1    4    4    0    0 -0.81526448493E-01  0.16199610931E-01 -0.20553930397E-01  0.85625430650E-01  0.51100000000E-03 0.  1.
</event>
<event>
 8    1  0.2922807E+004  0.1043930E+01  0.7957747E-01            NaN
         13   -1    0    0    0    0  0.00000000000E+00  0.00000000000E+00  0.74505805969E-08  0.10566000000E+00  0.10566000000E+00 0. -1.
     999900   -1    0    0    0    0 -0.00000000000E+00 -0.00000000000E+00 -0.74505805969E-08  0.93827000000E+00  0.93827000000E+00 0.  1.
     999902    2    1    2    0    0  0.58624250229E-02 -0.29648971758E-02  0.90637552437E-02  0.10327357916E+01  0.10326751207E+01 0.  0.
     999903    2    3    3    0    0  0.10881633958E+00  0.41563347991E-01  0.70400361091E-01  0.14349766132E+00  0.45462735358E-01 0.  0.
         14    1    1    2    0    0 -0.58624250229E-02  0.29648971758E-02 -0.90637552437E-02  0.11194208392E-01  0.00000000000E+00 0.  1.
     999901    1    3    3    0    0 -0.10295391456E+00 -0.44528245167E-01 -0.61336605847E-01  0.88923813029E+00  0.88000000000E+00 0.  1.
        -11    1    4    4    0    0  0.72887120044E-01  0.49203588993E-01  0.54559814578E-01  0.10349183507E+00  0.51100000000E-03 0. -1.
         11    1    4    4    0    0  0.35929219539E-01 -0.76402410019E-02  0.15840546513E-01  0.40005826251E-01  0.51100000000E-03 0.  1.
</event>
<event>
 8    1  0.2922807E+004  0.1043930E+01  0.7957747E-01            NaN
         13   -1    0    0    0    0  0.00000000000E+00  0.00000000000E+00  0.74505805969E-08  0.10566000000E+00  0.10566000000E+00 0.  1.
     999900   -1    0    0    0    0 -0.00000000000E+00 -0.00000000000E+00 -0.74505805969E-08  0.93827000000E+00  0.93827000000E+00 0. -1.
     999902    2    1    2    0    0  0.37606373834E-02 -0.40410658458E-02  0.12701691189E-01  0.10300806114E+01  0.10299875049E+01 0.  0.
     999903    2    3    3    0    0  0.10693877719E+00  0.70376697393E-01  0.36654793948E-01  0.14061027281E+00  0.45154106116E-01 0.  0.
         14    1    1    2    0    0 -0.37606373834E-02  0.40410658458E-02 -0.12701691189E-01  0.13849388642E-01  0.00000000000E+00 0. -1.
     999901    1    3    3    0    0 -0.10317813980E+00 -0.74417763238E-01 -0.23953102759E-01  0.88947033854E+00  0.88000000000E+00 0. -1.
        -11    1    4    4    0    0  0.10029267565E+00  0.66962033203E-01  0.45614973363E-01  0.12893223645E+00  0.51100000000E-03 0.  1.
         11    1    4    4    0    0  0.66461015362E-02  0.34146641893E-02 -0.89601794156E-02  0.11678036364E-01  0.51100000000E-03 0. -1.
</event>
<event>
 8    1  0.2922807E+004  0.1043930E+01  0.7957747E-01            NaN
         13   -1    0    0    0    0  0.00000000000E+00  0.00000000000E+00  0.74505805969E-08  0.10566000000E+00  0.10566000000E+00 0. -1.
     999900   -1    0    0    0    0 -0.00000000000E+00 -0.00000000000E+00 -0.74505805969E-08  0.93827000000E+00  0.93827000000E+00 0. -1.
     999902    2    1    2    0    0  0.13393545861E-01  0.79256887037E-03 -0.63170312911E-03  0.10304981615E+01  0.10304106204E+01 0.  0.
     999903    2    3    3    0    0 -0.21613848233E-01  0.13062039455E+00  0.20872602676E-02  0.14028011254E+00  0.46317463344E-01 0.  0.
         14    1    1    2    0    0 -0.13393545861E-01 -0.79256887037E-03  0.63170312911E-03  0.13431838481E-01  0.00000000000E+00 0. -1.
     999901    1    3    3    0    0  0.35007394094E-01 -0.12982782568E+00 -0.27189633967E-02  0.89021804898E+00  0.88000000000E+00 0. -1.
        -11    1    4    4    0    0 -0.26825071363E-02  0.10696538129E+00 -0.10403034024E-01  0.10750475746E+00  0.51100000000E-03 0. -1.
         11    1    4    4    0    0 -0.18931341097E-01  0.23655013267E-01  0.12490294291E-01  0.32775355084E-01  0.51100000000E-03 0.  1.
</event>
<event>
 8    1  0.2922807E+004  0.1043930E+01  0.7957747E-01            NaN
         13   -1    0    0    0    0  0.00000000000E+00  0.00000000000E+00  0.74505805969E-08  0.10566000000E+00  0.10566000000E+00 0. -1.
     999900   -1    0    0    0    0 -0.00000000000E+00 -0.00000000000E+00 -0.74505805969E-08  0.93827000000E+00  0.93827000000E+00 0.  1.
     999902    2    1    2    0    0 -0.19200019097E-02 -0.11211237609E-01  0.75562271563E-02  0.10302744215E+01  0.10301839199E+01 0.  0.
     999903    2    3    3    0    0  0.13262502954E+00  0.22802857884E-02  0.34142072637E-02  0.13993654009E+00  0.44451999710E-01 0.  0.
         14    1    1    2    0    0  0.19200019097E-02  0.11211237609E-01 -0.75562271563E-02  0.13655578526E-01  0.00000000000E+00 0. -1.
     999901    1    3    3    0    0 -0.13454503145E+00 -0.13491523397E-01  0.41420198926E-02  0.89033788138E+00  0.88000000000E+00 0.  1.
        -11    1    4    4    0    0  0.79123149685E-01  0.22570507819E-01 -0.31340804887E-02  0.82340659585E-01  0.51100000000E-03 0. -1.
         11    1    4    4    0    0  0.53501879855E-01 -0.20290222031E-01  0.65482877524E-02  0.57595880509E-01  0.51100000000E-03 0.  1.
</event>
<event>
 8    1  0.2922807E+004  0.1043930E+01  0.7957747E-01            NaN
         13   -1    0    0    0    0  0.00000000000E+00  0.00000000000E+00  0.74505805969E-08  0.10566000000E+00  0.10566000000E+00 0. -1.
     999900   -1    0    0    0    0 -0.00000000000E+00 -0.00000000000E+00 -0.74505805969E-08  0.93827000000E+00  0.93827000000E+00 0.  1.
     999902    2    1    2    0    0 -0.99024678917E-02 -0.90323457376E-02  0.63110536841E-04  0.10305267868E+01  0.10304396209E+01 0.  0.
     999903    2    3    3    0    0 -0.11347498051E+00 -0.27539468120E-02 -0.71625239733E-01  0.14153527776E+00  0.44921091484E-01 0.  0.
         14    1    1    2    0    0  0.99024678917E-02  0.90323457376E-02 -0.63110536841E-04  0.13403213152E-01  0.00000000000E+00 0.  1.
     999901    1    3    3    0    0  0.10357251262E+00 -0.62783989256E-02  0.71688350270E-01  0.88899150909E+00  0.88000000000E+00 0. -1.
        -11    1    4    4    0    0 -0.56886675399E-01  0.20205888075E-01 -0.42801775622E-01  0.74004221962E-01  0.51100000000E-03 0.  1.
         11    1    4    4    0    0 -0.56588305108E-01 -0.22959834887E-01 -0.28823464111E-01  0.67531055800E-01  0.51100000000E-03 0. -1.
</event>
<event>
 8    1  0.2922807E+004  0.1043930E+01  0.7957747E-01            NaN
         13   -1    0    0    0    0  0.00000000000E+00  0.00000000000E+00  0.74505805969E-08  0.10566000000E+00  0.10566000000E+00 0. -1.
     999900   -1    0    0    0    0 -0.00000000000E+00 -0.00000000000E+00 -0.74505805969E-08  0.93827000000E+00  0.93827000000E+00 0. -1.
     999902    2    1    2    0    0  0.11949794265E-01  0.28095729644E-02 -0.52070793535E-02  0.10305956474E+01  0.10305093806E+01 0.  0.
     999903    2    3    3    0    0 -0.14391769289E-01 -0.13799780732E-01 -0.13203598524E+00  0.14095790094E+00  0.45145004917E-01 0.  0.
         14    1    1    2    0    0 -0.11949794265E-01 -0.28095729644E-02  0.52070793535E-02  0.13334352576E-01  0.00000000000E+00 0.  1.
     999901    1    3    3    0    0  0.26341563554E-01  0.16609353696E-01  0.12682890588E+00  0.88963774648E+00  0.88000000000E+00 0.  1.
        -11    1    4    4    0    0 -0.22626879945E-01 -0.12512518128E-01 -0.12974684422E+00  0.13229906845E+00  0.51100000000E-03 0.  1.
         11    1    4    4    0    0  0.82351106562E-02 -0.12872626036E-02 -0.22891410132E-02  0.86588324910E-02  0.51100000000E-03 0. -1.
</event>
<event>
 8    1  0.2922807E+004  0.1043930E+01  0.7957747E-01            NaN
         13   -1    0    0    0    0  0.00000000000E+00  0.00000000000E+00  0.74505805969E-08  0.10566000000E+00  0.10566000000E+00 0. -1.
     999900   -1    0    0    0    0 -0.00000000000E+00 -0.00000000000E+00 -0.74505805969E-08  0.93827000000E+00  0.93827000000E+00 0.  1.
     999902    2    1    2    0    0 -0.42508792612E-02 -0.14437439870E-01 -0.73049758020E-03  0.10288620449E+01  0.10287517019E+01 0.  0.
     999903    2    3    3    0    0  0.70247010797E-01 -0.10382723954E+00  0.42883633484E-01  0.14013111579E+00  0.45639734846E-01 0.  0.
         14    1    1    2    0    0  0.42508792612E-02  0.14437439870E-01  0.73049758020E-03  0.15067955110E-01  0.00000000000E+00 0.  1.
     999901    1    3    3    0    0 -0.74497890058E-01  0.89389799665E-01 -0.43614131064E-01  0.88873092910E+00  0.88000000000E+00 0.  1.
        -11    1    4    4    0    0  0.68567242170E-02  0.32495783474E-02  0.76894954767E-02  0.10814984425E-01  0.51100000000E-03 0. -1.
         11    1    4    4    0    0  0.63390286580E-01 -0.10707681788E+00  0.35194138007E-01  0.12931613137E+00  0.51100000000E-03 0.  1.
</event>
<event>
 8    1  0.2922807E+004  0.1043930E+01  0.7957747E-01            NaN
         13   -1    0    0    0    0  0.00000000000E+00  0.00000000000E+00  0.74505805969E-08  0.10566000000E+00  0.10566000000E+00 0.  1.
     999900   -1    0    0    0    0 -0.00000000000E+00 -0.00000000000E+00 -0.74505805969E-08  0.93827000000E+00  0.93827000000E+00 0.  1.
     999902    2    1    2    0    0  0.14773365735E-02 -0.99511758407E-02  0.97222043145E-02  0.10299396576E+01  0.10298446332E+01 0.  0.
     999903    2    3    3    0    0 -0.61015090837E-01  0.72000960156E-01  0.93300269868E-01  0.13999204727E+00  0.44562914714E-01 0.  0.
         14    1    1    2    0    0 -0.14773365735E-02  0.99511758407E-02 -0.97222043145E-02  0.13990342408E-01  0.00000000000E+00 0. -1.
     999901    1    3    3    0    0  0.62492427411E-01 -0.81952135996E-01 -0.83578065554E-01  0.88994761032E+00  0.88000000000E+00 0.  1.
        -11    1    4    4    0    0 -0.62209813054E-01  0.57466058378E-01  0.92444565565E-01  0.12537411028E+00  0.51100000000E-03 0.  1.
         11    1    4    4    0    0  0.11947222170E-02  0.14534901778E-01  0.85570430313E-03  0.14617936986E-01  0.51100000000E-03 0. -1.
</event>
<event>
 8    1  0.2922807E+004  0.1043930E+01  0.7957747E-01            NaN
         13   -1    0    0    0    0  0.00000000000E+00  0.00000000000E+00  0.74505805969E-08  0.10566000000E+00  0.10566000000E+00 0. -1.
     999900   -1    0    0    0    0 -0.00000000000E+00 -0.00000000000E+00 -0.74505805969E-08  0.93827000000E+00  0.93827000000E+00 0. -1.
     999902    2    1    2    0    0  0.80092808156E-02 -0.12733980169E-02 -0.98443341259E-02  0.10311753524E+01  0.10310964680E+01 0.  0.
     999903    2    3    3    0    0  0.11960697869E+00 -0.62194728553E-01  0.71306031410E-02  0.14187585098E+00  0.43633679416E-01 0.  0.
         14    1    1    2    0    0 -0.80092808156E-02  0.12733980169E-02  0.98443341259E-02  0.12754647626E-01  0.00000000000E+00 0. -1.
     999901    1    3    3    0    0 -0.11159769787E+00  0.60921330536E-01 -0.16974937267E-01  0.88929950139E+00  0.88000000000E+00 0. -1.
        -11    1    4    4    0    0  0.53417198566E-01 -0.51176182604E-01  0.10340038660E-01  0.74696561427E-01  0.51100000000E-03 0.  1.
         11    1    4    4    0    0  0.66189780121E-01 -0.11018545949E-01 -0.32094355191E-02  0.67179289552E-01  0.51100000000E-03 0. -1.
</event>
<event>
 8    1  0.2922807E+004  0.1043930E+01  0.7957747E-01            NaN
         13   -1    0    0    0    0  0.00000000000E+00  0.00000000000E+00  0.74505805969E-08  0.10566000000E+00  0.10566000000E+00 0. -1.
     999900   -1    0    0    0    0 -0.00000000000E+00 -0.00000000000E+00 -0.74505805969E-08  0.93827000000E+00  0.93827000000E+00 0.  1.
     999902    2    1    2    0    0  0.16808840956E-02 -0.10406683731E-01 -0.89720744671E-02  0.10300872200E+01  0.10299942030E+01 0.  0.
     999903    2    3    3    0    0  0.35466728256E-02  0.67024207243E-01 -0.11510367097E+00  0.14033279332E+00  0.44041055445E-01 0.  0.
         14    1    1    2    0    0 -0.16808840956E-02  0.10406683731E-01  0.89720744671E-02  0.13842779991E-01  0.00000000000E+00 0. -1.
     999901    1    3    3    0    0 -0.18657887299E-02 -0.77430890975E-01  0.10613159650E+00  0.88975442669E+00  0.88000000000E+00 0. -1.
        -11    1    4    4    0    0 -0.10537656457E-01  0.50703047113E-01 -0.50941798866E-01  0.72644126968E-01  0.51100000000E-03 0. -1.
         11    1    4    4    0    0  0.14084329283E-01  0.16321160130E-01 -0.64161872102E-01  0.67688666348E-01  0.51100000000E-03 0.  1.
</event>
<event>
 8    1  0.2922807E+004  0.1043930E+01  0.7957747E-01            NaN
         13   -1    0    0    0    0  0.00000000000E+00  0.00000000000E+00  0.74505805969E-08  0.10566000000E+00  0.10566000000E+00 0.  1.
     999900   -1    0    0    0    0 -0.00000000000E+00 -0.00000000000E+00 -0.74505805969E-08  0.93827000000E+00  0.93827000000E+00 0. -1.
     999902    2    1    2    0    0  0.10623405784E-01  0.53283940580E-03  0.97880630519E-02  0.10294750062E+01  0.10293735189E+01 0.  0.
     999903    2    3    3    0    0  0.13300052885E+00 -0.35665208559E-02 -0.83997540905E-02  0.14081097421E+00  0.45335569307E-01 0.  0.
         14    1    1    2    0    0 -0.10623405784E-01 -0.53283940580E-03 -0.97880630519E-02  0.14454993829E-01  0.00000000000E+00 0. -1.
     999901    1    3    3    0    0 -0.12237712307E+00  0.40993602617E-02  0.18187817142E-01  0.88866403196E+00  0.88000000000E+00 0.  1.
        -11    1    4    4    0    0  0.77267583982E-01  0.12949159387E-01  0.11883941155E-01  0.79242977238E-01  0.51100000000E-03 0. -1.
         11    1    4    4    0    0  0.55732944868E-01 -0.16515680243E-01 -0.20283695245E-01  0.61567996974E-01  0.51100000000E-03 0.  1.
</event>
<event>
 8    1  0.2922807E+004  0.1043930E+01  0.7957747E-01            NaN
         13   -1    0    0    0    0  0.00000000000E+00  0.00000000000E+00  0.74505805969E-08  0.10566000000E+00  0.10566000000E+00 0.  1.
     999900   -1    0    0    0    0 -0.00000000000E+00 -0.00000000000E+00 -0.74505805969E-08  0.93827000000E+00  0.93827000000E+00 0. -1.
     999902    2    1    2    0    0  0.52680396390E-02 -0.49586228162E-02 -0.11673222856E-01  0.10301966714E+01  0.10301051293E+01 0.  0.
     999903    2    3    3    0    0 -0.33101895293E-01  0.12801679411E+00  0.23257345364E-02  0.13926980337E+00  0.43665020837E-01 0.  0.
         14    1    1    2    0    0 -0.52680396390E-02  0.49586228162E-02  0.11673222856E-01  0.13733328574E-01  0.00000000000E+00 0.  1.
     999901    1    3    3    0    0  0.38369934931E-01 -0.13297541692E+00 -0.13998957392E-01  0.89092686805E+00  0.88000000000E+00 0.  1.
        -11    1    4    4    0    0 -0.15096976736E-01  0.66675195502E-01 -0.20521499405E-01  0.71378522404E-01  0.51100000000E-03 0. -1.
         11    1    4    4    0    0 -0.18004918557E-01  0.61341598605E-01  0.22847233941E-01  0.67891280968E-01  0.51100000000E-03 0.  1.
</event>
<event>
 7    1  0.2922807E+004  0.1043930E+01  0.7957747E-01            NaN
         13   -1    0    0    0    0  0.00000000000E+00  0.00000000000E+00  0.74505805969E-08  0.10566000000E+00  0.10566000000E+00 0.  1.
     999900   -1    0    0    0    0 -0.00000000000E+00 -0.00000000000E+00 -0.74505805969E-08  0.93827000000E+00  0.93827000000E+00 0. -1.
     999903    2    1    2    0    0  0.90122730415E-01 -0.59434920935E-01 -0.27109789044E-01  0.12030345068E+00  0.45643873840E-01 0.  0.
         14    1    1    2    0    0  0.29663101072E-01  0.56862179444E-02  0.15187060646E-01  0.33806500126E-01  0.00000000000E+00 0.  1.
     999901    1    1    2    0    0 -0.11978583149E+00  0.53748702991E-01  0.11922728399E-01  0.88982004920E+00  0.88000000000E+00 0. -1.
        -11    1    3    3    0    0  0.46395080652E-01 -0.42514746380E-02 -0.73084900603E-02  0.47161994161E-01  0.51100000000E-03 0.  1.
         11    1    3    3    0    0  0.43727649763E-01 -0.55183446297E-01 -0.19801298984E-01  0.73141456517E-01  0.51100000000E-03 0. -1.
</event>
<event>
 8    1  0.2922807E+004  0.1043930E+01  0.7957747E-01            NaN
         13   -1    0    0    0    0  0.00000000000E+00  0.00000000000E+00  0.74505805969E-08  0.10566000000E+00  0.10566000000E+00 0. -1.
     999900   -1    0    0    0    0 -0.00000000000E+00 -0.00000000000E+00 -0.74505805969E-08  0.93827000000E+00  0.93827000000E+00 0. -1.
     999902    2    1    2    0    0  0.40689121277E-02  0.82476467638E-02  0.12096704780E-01  0.10287342773E+01  0.10286220410E+01 0.  0.
     999903    2    3    3    0    0  0.94952199917E-01  0.90423645860E-01 -0.16906853638E-01  0.13977203215E+00  0.45365441390E-01 0.  0.
         14    1    1    2    0    0 -0.40689121277E-02 -0.82476467638E-02 -0.12096704780E-01  0.15195722739E-01  0.00000000000E+00 0.  1.
     999901    1    3    3    0    0 -0.90883287789E-01 -0.82175999096E-01  0.29003558418E-01  0.88896224511E+00  0.88000000000E+00 0. -1.
        -11    1    4    4    0    0  0.63331070492E-01  0.82630136200E-01 -0.24554300357E-02  0.10413862951E+00  0.51100000000E-03 0.  1.
         11    1    4    4    0    0  0.31621129425E-01  0.77935096596E-02 -0.14451423602E-01  0.35633402645E-01  0.51100000000E-03 0. -1.
</event>
<event>
 8    1  0.2922807E+004  0.1043930E+01  0.7957747E-01            NaN
         13   -1    0    0    0    0  0.00000000000E+00  0.00000000000E+00  0.74505805969E-08  0.10566000000E+00  0.10566000000E+00 0. -1.
     999900   -1    0    0    0    0 -0.00000000000E+00 -0.00000000000E+00 -0.74505805969E-08  0.93827000000E+00  0.93827000000E+00 0. -1.
     999902    2    1    2    0    0 -0.12239426931E-01  0.39216215866E-02 -0.11170689796E-01  0.10269015826E+01  0.10267603875E+01 0.  0.
     999903    2    3    3    0    0  0.25504711612E-01  0.19218214095E-01 -0.12724464445E+00  0.13834558064E+00  0.43914349290E-01 0.  0.
         14    1    1    2    0    0  0.12239426931E-01 -0.39216215866E-02  0.11170689796E-01  0.17028417366E-01  0.00000000000E+00 0. -1.
     999901    1    3    3    0    0 -0.37744138544E-01 -0.15296592508E-01  0.11607395465E+00  0.88855600200E+00  0.88000000000E+00 0.  1.
        -11    1    4    4    0    0  0.13340327945E-01  0.32349345966E-01 -0.68341276317E-01  0.76780438289E-01  0.51100000000E-03 0. -1.
         11    1    4    4    0    0  0.12164383668E-01 -0.13131131871E-01 -0.58903368131E-01  0.61565142348E-01  0.51100000000E-03 0.  1.
</event>
<event>
 8    1  0.2922807E+004  0.1043930E+01  0.7957747E-01            NaN
         13   -1    0    0    0    0  0.00000000000E+00  0.00000000000E+00  0.74505805969E-08  0.10566000000E+00  0.10566000000E+00 0. -1.
     999900   -1    0    0    0    0 -0.00000000000E+00 -0.00000000000E+00 -0.74505805969E-08  0.93827000000E+00  0.93827000000E+00 0.  1.
     999902    2    1    2    0    0 -0.12973208665E-01 -0.10526744365E-01  0.33033883886E-02  0.10268997662E+01  0.10267585407E+01 0.  0.
     999903    2    3    3    0    0  0.28147660912E-01  0.21589536591E-01  0.12455307776E+00  0.13705490968E+00  0.44857331433E-01 0.  0.
         14    1    1    2    0    0  0.12973208665E-01  0.10526744365E-01 -0.33033883886E-02  0.17030233846E-01  0.00000000000E+00 0. -1.
     999901    1    3    3    0    0 -0.41120869577E-01 -0.32116280956E-01 -0.12124968937E+00  0.88984485647E+00  0.88000000000E+00 0.  1.
        -11    1    4    4    0    0  0.25473573638E-01  0.37136376991E-02  0.11229622067E+00  0.11521022679E+00  0.51100000000E-03 0. -1.
         11    1    4    4    0    0  0.26740872744E-02  0.17875898892E-01  0.12256857088E-01  0.21844682891E-01  0.51100000000E-03 0.  1.
</event>
<event>
 8    1  0.2922807E+004  0.1043930E+01  0.7957747E-01            NaN
         13   -1    0    0    0    0  0.00000000000E+00  0.00000000000E+00  0.74505805969E-08  0.10566000000E+00  0.10566000000E+00 0. -1.
     999900   -1    0    0    0    0 -0.00000000000E+00 -0.00000000000E+00 -0.74505805969E-08  0.93827000000E+00  0.93827000000E+00 0.  1.
     999902    2    1    2    0    0 -0.78584303445E-02  0.31237313151E-02  0.88851878234E-02  0.10316638194E+01  0.10315908961E+01 0.  0.
     999903    2    3    3    0    0 -0.10867430101E+00  0.29349262685E-01 -0.72403155903E-01  0.14179899081E+00  0.46832188601E-01 0.  0.
         14    1    1    2    0    0  0.78584303445E-02 -0.31237313151E-02 -0.88851878234E-02  0.12266180639E-01  0.00000000000E+00 0.  1.
     999901    1    3    3    0    0  0.10081587066E+00 -0.26225531370E-01  0.81288343726E-01  0.88986482855E+00  0.88000000000E+00 0. -1.
        -11    1    4    4    0    0 -0.28670170787E-01  0.30194545433E-01 -0.29310705693E-01  0.50922174503E-01  0.51100000000E-03 0.  1.
         11    1    4    4    0    0 -0.80004130221E-01 -0.84528274730E-03 -0.43092450209E-01  0.90876816303E-01  0.51100000000E-03 0. -1.
</event>
<event>
 8    1  0.2922807E+004  0.1043930E+01  0.7957747E-01            NaN
         13   -1    0    0    0    0  0.00000000000E+00  0.00000000000E+00  0.74505805969E-08  0.10566000000E+00  0.10566000000E+00 0.  1.
     999900   -1    0    0    0    0 -0.00000000000E+00 -0.00000000000E+00 -0.74505805969E-08  0.93827000000E+00  0.93827000000E+00 0. -1.
     999902    2    1    2    0    0 -0.10199108148E-01  0.57333775087E-02 -0.75367923087E-02  0.10300125051E+01  0.10299184745E+01 0.  0.
     999903    2    3    3    0    0 -0.69335914360E-02 -0.12328448418E-01 -0.13129020146E+00  0.14116392444E+00  0.49900613532E-01 0.  0.
         14    1    1    2    0    0  0.10199108148E-01 -0.57333775087E-02  0.75367923087E-02  0.13917494853E-01  0.00000000000E+00 0.  1.
     999901    1    3    3    0    0 -0.32655167119E-02  0.18061825927E-01  0.12375340916E+00  0.88884858071E+00  0.88000000000E+00 0.  1.
        -11    1    4    4    0    0  0.53677342902E-02  0.11226252228E-01 -0.74683164596E-02  0.14521645301E-01  0.51100000000E-03 0. -1.
         11    1    4    4    0    0 -0.12301325726E-01 -0.23554700647E-01 -0.12382188501E+00  0.12664227913E+00  0.51100000000E-03 0.  1.
</event>
<event>
 8    1  0.2922807E+004  0.1043930E+01  0.7957747E-01            NaN
         13   -1    0    0    0    0  0.00000000000E+00  0.00000000000E+00  0.74505805969E-08  0.10566000000E+00  0.10566000000E+00 0. -1.
     999900   -1    0    0    0    0 -0.00000000000E+00 -0.00000000000E+00 -0.74505805969E-08  0.93827000000E+00  0.93827000000E+00 0. -1.
     999902    2    1    2    0    0 -0.34825828332E-02 -0.58591194214E-02 -0.12124090842E-01  0.10300213249E+01  0.10299274142E+01 0.  0.
     999903    2    3    3    0    0 -0.42928571504E-01  0.91191240796E-01 -0.88137396373E-01  0.14055362958E+00  0.42759998833E-01 0.  0.
         14    1    1    2    0    0  0.34825828332E-02  0.58591194214E-02  0.12124090842E-01  0.13908675074E-01  0.00000000000E+00 0. -1.
     999901    1    3    3    0    0  0.39445988671E-01 -0.97050360217E-01  0.76013305531E-01  0.88946769534E+00  0.88000000000E+00 0. -1.
        -11    1    4    4    0    0 -0.10916017483E-01  0.25054077185E-01 -0.51825271792E-01  0.58591690013E-01  0.51100000000E-03 0.  1.
         11    1    4    4    0    0 -0.32012554022E-01  0.66137163611E-01 -0.36312124581E-01  0.81961939569E-01  0.51100000000E-03 0. -1.
</event>
<event>
 8    1  0.2922807E+004  0.1043930E+01  0.7957747E-01            NaN
         13   -1    0    0    0    0  0.00000000000E+00  0.00000000000E+00  0.74505805969E-08  0.10566000000E+00  0.10566000000E+00 0. -1.
     999900   -1    0    0    0    0 -0.00000000000E+00 -0.00000000000E+00 -0.74505805969E-08  0.93827000000E+00  0.93827000000E+00 0. -1.
     999902    2    1    2    0    0 -0.46941439249E-02 -0.11050899787E-01 -0.70644400687E-02  0.10299993257E+01  0.10299051156E+01 0.  0.
     999903    2    3    3    0    0 -0.82023300152E-01  0.71002458614E-01 -0.75264050358E-01  0.14018825649E+00  0.47105191688E-01 0.  0.
         14    1    1    2    0    0  0.46941439249E-02  0.11050899787E-01  0.70644400687E-02  0.13930674311E-01  0.00000000000E+00 0. -1.
     999901    1    3    3    0    0  0.77329156227E-01 -0.82053358400E-01  0.68199610289E-01  0.88981106920E+00  0.88000000000E+00 0.  1.
        -11    1    4    4    0    0 -0.33085101007E-01  0.14429769830E-01 -0.49096714221E-01  0.60939237230E-01  0.51100000000E-03 0.  1.
         11    1    4    4    0    0 -0.48938199146E-01  0.56572688784E-01 -0.26167336138E-01  0.79249019258E-01  0.51100000000E-03 0. -1.
</event>
<event>
 8    1  0.2922807E+004  0.1043930E+01  0.7957747E-01            NaN
         13   -1    0    0    0    0  0.00000000000E+00  0.00000000000E+00  0.74505805969E-08  0.10566000000E+00  0.10566000000E+00 0.  1.
     999900   -1    0    0    0    0 -0.00000000000E+00 -0.00000000000E+00 -0.74505805969E-08  0.93827000000E+00  0.93827000000E+00 0. -1.
     999902    2    1    2    0    0  0.71302655352E-02 -0.93966007664E-02 -0.63482552578E-02  0.10305345852E+01  0.10304475213E+01 0.  0.
     999903    2    3    3    0    0 -0.60086652249E-01  0.37593588544E-02 -0.11893977728E+00  0.14072109681E+00  0.45069034950E-01 0.  0.
         14    1    1    2    0    0 -0.71302655352E-02  0.93966007664E-02  0.63482552578E-02  0.13395414789E-01  0.00000000000E+00 0.  1.
     999901    1    3    3    0    0  0.67216917784E-01 -0.13155959621E-01  0.11259152202E+00  0.88981348840E+00  0.88000000000E+00 0.  1.
        -11    1    4    4    0    0 -0.47113129855E-01 -0.17506828979E-01 -0.81219631821E-01  0.95514531773E-01  0.51100000000E-03 0.  1.
         11    1    4    4    0    0 -0.12973522394E-01  0.21266187833E-01 -0.37720145455E-01  0.45206565036E-01  0.51100000000E-03 0. -1.
</event>
<event>
 8    1  0.2922807E+004  0.1043930E+01  0.7957747E-01            NaN
         13   -1    0    0    0    0  0.00000000000E+00  0.00000000000E+00  0.74505805969E-08  0.10566000000E+00  0.10566000000E+00 0.  1.
     999900   -1    0    0    0    0 -0.00000000000E+00 -0.00000000000E+00 -0.74505805969E-08  0.93827000000E+00  0.93827000000E+00 0. -1.
     999902    2    1    2    0    0 -0.98885385836E-02  0.40029518237E-02 -0.90309435478E-02  0.10299527056E+01  0.10298578596E+01 0.  0.
     999903    2    3    3    0    0  0.10269386069E+00  0.40044590160E-01  0.70985406408E-01  0.13845037097E+00  0.44496955780E-01 0.  0.
         14    1    1    2    0    0  0.98885385836E-02 -0.40029518237E-02  0.90309435478E-02  0.13977294444E-01  0.00000000000E+00 0.  1.
     999901    1    3    3    0    0 -0.11258239927E+00 -0.36041638336E-01 -0.80016349956E-01  0.89150233459E+00  0.88000000000E+00 0. -1.
        -11    1    4    4    0    0  0.12363861253E-01  0.21962805606E-01  0.24937633152E-01  0.35459505967E-01  0.51100000000E-03 0.  1.
         11    1    4    4    0    0  0.90329999434E-01  0.18081784554E-01  0.46047773255E-01  0.10299086500E+00  0.51100000000E-03 0. -1.
</event>
<event>
 7    1  0.2922807E+004  0.1043930E+01  0.7957747E-01            NaN
         13   -1    0    0    0    0  0.00000000000E+00  0.00000000000E+00  0.74505805969E-08  0.10566000000E+00  0.10566000000E+00 0. -1.
     999900   -1    0    0    0    0 -0.00000000000E+00 -0.00000000000E+00 -0.74505805969E-08  0.93827000000E+00  0.93827000000E+00 0. -1.
     999903    2    1    2    0    0  0.54615484748E-01  0.37969250874E-01 -0.32562382977E-01  0.86523673215E-01  0.44738373410E-01 0.  0.
         14    1    1    2    0    0 -0.26310366094E-01 -0.65015049538E-01  0.30630579324E-01  0.76533812267E-01  0.00000000000E+00 0.  1.
     999901    1    1    2    0    0 -0.28305118653E-01  0.27045798663E-01  0.19318036532E-02  0.88087251452E+00  0.88000000000E+00 0. -1.
        -11    1    3    3    0    0  0.45372582781E-02 -0.16577235062E-03  0.96882082595E-02  0.10711521528E-01  0.51100000000E-03 0. -1.
         11    1    3    3    0    0  0.50078226469E-01  0.38135023225E-01 -0.42250591236E-01  0.75812151688E-01  0.51100000000E-03 0.  1.
</event>
<event>
 8    1  0.2922807E+004  0.1043930E+01  0.7957747E-01            NaN
         13   -1    0    0    0    0  0.00000000000E+00  0.00000000000E+00  0.74505805969E-08  0.10566000000E+00  0.10566000000E+00 0.  1.
     999900   -1    0    0    0    0 -0.00000000000E+00 -0.00000000000E+00 -0.74505805969E-08  0.93827000000E+00  0.93827000000E+00 0. -1.
     999902    2    1    2    0    0 -0.75171752394E-02 -0.83528623525E-02 -0.86727897575E-02  0.10297350884E+01  0.10296372452E+01 0.  0.
     999903    2    3    3    0    0 -0.10105716123E+00 -0.80334732768E-01  0.33134066980E-01  0.14087124511E+00  0.45613837575E-01 0.  0.
         14    1    1    2    0    0  0.75171752394E-02  0.83528623525E-02  0.86727897575E-02  0.14194911597E-01  0.00000000000E+00 0.  1.
     999901    1    3    3    0    0  0.93539985993E-01  0.71981870416E-01 -0.41806856738E-01  0.88886384330E+00  0.88000000000E+00 0. -1.
        -11    1    4    4    0    0 -0.31374031352E-01 -0.52375670001E-01  0.74172877864E-02  0.61504617147E-01  0.51100000000E-03 0.  1.
         11    1    4    4    0    0 -0.69683129880E-01 -0.27959062767E-01  0.25716779194E-01  0.79366627961E-01  0.51100000000E-03 0. -1.
</event>
<event>
 8    1  0.2922807E+004  0.1043930E+01  0.7957747E-01            NaN
         13   -1    0    0    0    0  0.00000000000E+00  0.00000000000E+00  0.74505805969E-08  0.10566000000E+00  0.10566000000E+00 0. -1.
     999900   -1    0    0    0    0 -0.00000000000E+00 -0.00000000000E+00 -0.74505805969E-08  0.93827000000E+00  0.93827000000E+00 0.  1.
     999902    2    1    2    0    0 -0.12380937873E-01  0.58817510226E-03 -0.32490066213E-04  0.10315350563E+01  0.10314605847E+01 0.  0.
     999903    2    3    3    0    0  0.11512781885E+00  0.18571878708E-01 -0.62816412945E-01  0.13995010941E+00  0.45175236971E-01 0.  0.
         14    1    1    2    0    0  0.12380937873E-01 -0.58817510226E-03  0.32490066213E-04  0.12394943654E-01  0.00000000000E+00 0. -1.
     999901    1    3    3    0    0 -0.12750875672E+00 -0.17983703606E-01  0.62783922879E-01  0.89158494694E+00  0.88000000000E+00 0.  1.
        -11    1    4    4    0    0  0.94254589363E-01  0.27769914741E-01 -0.35780079451E-01  0.10457328047E+00  0.51100000000E-03 0.  1.
         11    1    4    4    0    0  0.20873229488E-01 -0.91980360331E-02 -0.27036333494E-01  0.35376828941E-01  0.51100000000E-03 0. -1.
</event>
<event>
 8    1  0.2922807E+004  0.1043930E+01  0.7957747E-01            NaN
         13   -1    0    0    0    0  0.00000000000E+00  0.00000000000E+00  0.74505805969E-08  0.10566000000E+00  0.10566000000E+00 0. -1.
     999900   -1    0    0    0    0 -0.00000000000E+00 -0.00000000000E+00 -0.74505805969E-08  0.93827000000E+00  0.93827000000E+00 0. -1.
     999902    2    1    2    0    0 -0.24159909175E-02 -0.15484450165E-02 -0.99110618514E-02  0.10336118683E+01  0.10335603662E+01 0.  0.
     999903    2    3    3    0    0 -0.68369176106E-01  0.11719861908E+00 -0.71173521243E-02  0.14318585081E+00  0.45184849394E-01 0.  0.
         14    1    1    2    0    0  0.24159909175E-02  0.15484450165E-02  0.99110618514E-02  0.10318131667E-01  0.00000000000E+00 0. -1.
     999901    1    3    3    0    0  0.65953185188E-01 -0.11874706410E+00 -0.27937097271E-02  0.89042601752E+00  0.88000000000E+00 0.  1.
        -11    1    4    4    0    0 -0.39070746730E-02  0.33977085212E-02 -0.11180464335E-01  0.12331810874E-01  0.51100000000E-03 0. -1.
         11    1    4    4    0    0 -0.64462101433E-01  0.11380091056E+00  0.40631122105E-02  0.13085403994E+00  0.51100000000E-03 0.  1.
</event>
<event>
 8    1  0.2922807E+004  0.1043930E+01  0.7957747E-01            NaN
         13   -1    0    0    0    0  0.00000000000E+00  0.00000000000E+00  0.74505805969E-08  0.10566000000E+00  0.10566000000E+00 0. -1.
     999900   -1    0    0    0    0 -0.00000000000E+00 -0.00000000000E+00 -0.74505805969E-08  0.93827000000E+00  0.93827000000E+00 0. -1.
     999902    2    1    2    0    0  0.15519081625E-01 -0.85677292326E-03 -0.13296086758E-01  0.10234761036E+01  0.10232717004E+01 0.  0.
     999903    2    3    3    0    0  0.10394374884E+00 -0.58802140001E-01  0.44071120878E-01  0.13529392419E+00  0.45827804157E-01 0.  0.
         14    1    1    2    0    0 -0.15519081625E-01  0.85677292326E-03  0.13296086758E-01  0.20453896387E-01  0.00000000000E+00 0. -1.
     999901    1    3    3    0    0 -0.88424667219E-01  0.57945367078E-01 -0.57367207636E-01  0.88818217943E+00  0.88000000000E+00 0.  1.
        -11    1    4    4    0    0  0.64171125796E-01 -0.45774312999E-01  0.49513728048E-01  0.93086473252E-01  0.51100000000E-03 0. -1.
         11    1    4    4    0    0  0.39772623048E-01 -0.13027827003E-01 -0.54426071698E-02  0.42207450934E-01  0.51100000000E-03 0.  1.
</event>
<event>
 8    1  0.2922807E+004  0.1043930E+01  0.7957747E-01            NaN
         13   -1    0    0    0    0  0.00000000000E+00  0.00000000000E+00  0.74505805969E-08  0.10566000000E+00  0.10566000000E+00 0.  1.
     999900   -1    0    0    0    0 -0.00000000000E+00 -0.00000000000E+00 -0.74505805969E-08  0.93827000000E+00  0.93827000000E+00 0.  1.
     999902    2    1    2    0    0 -0.35940985004E-02 -0.94304530198E-02 -0.90511305720E-02  0.10303736748E+01  0.10302844926E+01 0.  0.
     999903    2    3    3    0    0 -0.45509558493E-01  0.15779403082E-01  0.12526626565E+00  0.13883926405E+00  0.35561136894E-01 0.  0.
         14    1    1    2    0    0  0.35940985004E-02  0.94304530198E-02  0.90511305720E-02  0.13556325196E-01  0.00000000000E+00 0. -1.
     999901    1    3    3    0    0  0.41915459992E-01 -0.25209856102E-01 -0.13431739622E+00  0.89153441075E+00  0.88000000000E+00 0.  1.
        -11    1    4    4    0    0  0.94803481943E-03  0.13029452826E-01  0.33097717216E-01  0.35586309402E-01  0.51100000000E-03 0.  1.
         11    1    4    4    0    0 -0.46457593312E-01  0.27499502565E-02  0.92168548430E-01  0.10325295465E+00  0.51100000000E-03 0. -1.
</event>
<event>
 8    1  0.2922807E+004  0.1043930E+01  0.7957747E-01            NaN
         13   -1    0    0    0    0  0.00000000000E+00  0.00000000000E+00  0.74505805969E-08  0.10566000000E+00  0.10566000000E+00 0. -1.
     999900   -1    0    0    0    0 -0.00000000000E+00 -0.00000000000E+00 -0.74505805969E-08  0.93827000000E+00  0.93827000000E+00 0.  1.
     999902    2    1    2    0    0 -0.74406024062E-02 -0.12839527728E-02  0.11281846509E-01  0.10303546120E+01  0.10302651772E+01 0.  0.
     999903    2    3    3    0    0  0.11335746640E+00 -0.36169183317E-01 -0.56286649405E-01  0.13885326349E+00  0.44203131925E-01 0.  0.
         14    1    1    2    0    0  0.74406024062E-02  0.12839527728E-02 -0.11281846509E-01  0.13575388007E-01  0.00000000000E+00 0.  1.
     999901    1    3    3    0    0 -0.12079806880E+00  0.34885230544E-01  0.67568495914E-01  0.89150134850E+00  0.88000000000E+00 0. -1.
        -11    1    4    4    0    0  0.44119070462E-01 -0.33829243298E-01 -0.12789050305E-01  0.57050249861E-01  0.51100000000E-03 0.  1.
         11    1    4    4    0    0  0.69238395934E-01 -0.23399400188E-02 -0.43497599101E-01  0.81803013632E-01  0.51100000000E-03 0. -1.
</event>
<event>
 8    1  0.2922807E+004  0.1043930E+01  0.7957747E-01            NaN
         13   -1    0    0    0    0  0.00000000000E+00  0.00000000000E+00  0.74505805969E-08  0.10566000000E+00  0.10566000000E+00 0. -1.
     999900   -1    0    0    0    0 -0.00000000000E+00 -0.00000000000E+00 -0.74505805969E-08  0.93827000000E+00  0.93827000000E+00 0. -1.
     999902    2    1    2    0    0 -0.52933239076E-02  0.76339982455E-02 -0.97901036767E-02  0.10304339511E+01  0.10303455654E+01 0.  0.
     999903    2    3    3    0    0  0.80965619084E-01 -0.99782825012E-01  0.24925036245E-01  0.13903947042E+00  0.46890012383E-01 0.  0.
         14    1    1    2    0    0  0.52933239076E-02 -0.76339982455E-02  0.97901036767E-02  0.13496048948E-01  0.00000000000E+00 0.  1.
     999901    1    3    3    0    0 -0.86258942992E-01  0.10741682326E+00 -0.34715139921E-01  0.89139448063E+00  0.88000000000E+00 0.  1.
        -11    1    4    4    0    0  0.49846376001E-01 -0.89254677283E-01  0.92893627639E-02  0.10265287136E+00  0.51100000000E-03 0. -1.
         11    1    4    4    0    0  0.31119243083E-01 -0.10528147730E-01  0.15635673481E-01  0.36386599056E-01  0.51100000000E-03 0.  1.
</event>
<event>
 8    1  0.2922807E+004  0.1043930E+01  0.7957747E-01            NaN
         13   -1    0    0    0    0  0.00000000000E+00  0.00000000000E+00  0.74505805969E-08  0.10566000000E+00  0.10566000000E+00 0. -1.
     999900   -1    0    0    0    0 -0.00000000000E+00 -0.00000000000E+00 -0.74505805969E-08  0.93827000000E+00  0.93827000000E+00 0.  1.
     999902    2    1    2    0    0 -0.59793331308E-02  0.26878283425E-01  0.59022391595E-02  0.10157691944E+01  0.10153787595E+01 0.  0.
     999903    2    3    3    0    0  0.41206650117E-01 -0.70955164855E-01  0.83655610658E-01  0.12568858716E+00  0.45461371670E-01 0.  0.
         14    1    1    2    0    0  0.59793331308E-02 -0.26878283425E-01 -0.59022391595E-02  0.28160805593E-01  0.00000000000E+00 0.  1.
     999901    1    3    3    0    0 -0.47185983248E-01  0.97833448280E-01 -0.77753371499E-01  0.89008060725E+00  0.88000000000E+00 0.  1.
        -11    1    4    4    0    0  0.41685238930E-01 -0.34284740649E-01  0.33404489128E-01  0.63476165612E-01  0.51100000000E-03 0. -1.
         11    1    4    4    0    0 -0.47858881215E-03 -0.36670424207E-01  0.50251121531E-01  0.62212421548E-01  0.51100000000E-03 0.  1.
</event>
<event>
 8    1  0.2922807E+004  0.1043930E+01  0.7957747E-01            NaN
         13   -1    0    0    0    0  0.00000000000E+00  0.00000000000E+00  0.74505805969E-08  0.10566000000E+00  0.10566000000E+00 0.  1.
     999900   -1    0    0    0    0 -0.00000000000E+00 -0.00000000000E+00 -0.74505805969E-08  0.93827000000E+00  0.93827000000E+00 0.  1.
     999902    2    1    2    0    0  0.37771334578E-02 -0.83765976841E-02  0.98443391230E-02  0.10304635551E+01  0.10303755593E+01 0.  0.
     999903    2    3    3    0    0  0.25664882124E-02 -0.11190381124E+00  0.74818388631E-01  0.14201492026E+00  0.45181815669E-01 0.  0.
         14    1    1    2    0    0 -0.37771334578E-02  0.83765976841E-02 -0.98443391230E-02  0.13466444916E-01  0.00000000000E+00 0. -1.
     999901    1    3    3    0    0  0.12106452454E-02  0.10352721356E+00 -0.64974049508E-01  0.88844863482E+00  0.88000000000E+00 0. -1.
        -11    1    4    4    0    0  0.34750700389E-02 -0.62047183070E-01  0.67263760427E-01  0.91578401528E-01  0.51100000000E-03 0.  1.
         11    1    4    4    0    0 -0.90858182649E-03 -0.49856628171E-01  0.75546282047E-02  0.50436518733E-01  0.51100000000E-03 0. -1.
</event>
<event>
 8    1  0.2922807E+004  0.1043930E+01  0.7957747E-01            NaN
         13   -1    0    0    0    0  0.00000000000E+00  0.00000000000E+00  0.74505805969E-08  0.10566000000E+00  0.10566000000E+00 0.  1.
     999900   -1    0    0    0    0 -0.00000000000E+00 -0.00000000000E+00 -0.74505805969E-08  0.93827000000E+00  0.93827000000E+00 0.  1.
     999902    2    1    2    0    0 -0.75264938912E-02  0.16365278055E-01  0.43288913396E-02  0.10254040793E+01  0.10252367123E+01 0.  0.
     999903    2    3    3    0    0  0.11549346800E+00  0.17178926666E-01  0.57805848303E-01  0.13523872505E+00  0.36251068706E-01 0.  0.
         14    1    1    2    0    0  0.75264938912E-02 -0.16365278055E-01 -0.43288913396E-02  0.18525920661E-01  0.00000000000E+00 0. -1.
     999901    1    3    3    0    0 -0.12301996190E+00 -0.81364861158E-03 -0.53476956963E-01  0.89016535429E+00  0.88000000000E+00 0.  1.
        -11    1    4    4    0    0  0.70207738582E-01  0.27803062730E-01  0.31719894705E-01  0.81905736643E-01  0.51100000000E-03 0. -1.
         11    1    4    4    0    0  0.45285729423E-01 -0.10624136064E-01  0.26085953598E-01  0.53332988408E-01  0.51100000000E-03 0.  1.
</event>
<event>
 8    1  0.2922807E+004  0.1043930E+01  0.7957747E-01            NaN
         13   -1    0    0    0    0  0.00000000000E+00  0.00000000000E+00  0.74505805969E-08  0.10566000000E+00  0.10566000000E+00 0.  1.
     999900   -1    0    0    0    0 -0.00000000000E+00 -0.00000000000E+00 -0.74505805969E-08  0.93827000000E+00  0.93827000000E+00 0. -1.
     999902    2    1    2    0    0  0.61462599892E-02 -0.77967030229E-02 -0.67864644815E-02  0.10319041449E+01  0.10318340676E+01 0.  0.
     999903    2    3    3    0    0  0.35918153674E-01 -0.52124706338E-01 -0.12007023424E+00  0.14303714137E+00  0.45118332046E-01 0.  0.
         14    1    1    2    0    0 -0.61462599892E-02  0.77967030229E-02  0.67864644815E-02  0.12025855065E-01  0.00000000000E+00 0. -1.
     999901    1    3    3    0    0 -0.29771893685E-01  0.44328003315E-01  0.11328376976E+00  0.88886700356E+00  0.88000000000E+00 0.  1.
        -11    1    4    4    0    0  0.27713331833E-02 -0.34672298326E-01 -0.31741620360E-01  0.47091826710E-01  0.51100000000E-03 0.  1.
         11    1    4    4    0    0  0.33146820491E-01 -0.17452408011E-01 -0.88328613883E-01  0.95945314662E-01  0.51100000000E-03 0. -1.
</event>
<event>
 8    1  0.2922807E+004  0.1043930E+01  0.7957747E-01            NaN
         13   -1    0    0    0    0  0.00000000000E+00  0.00000000000E+00  0.74505805969E-08  0.10566000000E+00  0.10566000000E+00 0.  1.
     999900   -1    0    0    0    0 -0.00000000000E+00 -0.00000000000E+00 -0.74505805969E-08  0.93827000000E+00  0.93827000000E+00 0. -1.
     999902    2    1    2    0    0  0.94754450463E-03  0.13409630864E-01 -0.15349524618E-02  0.10303995854E+01  0.10303107461E+01 0.  0.
     999903    2    3    3    0    0 -0.12066680990E+00  0.20923809097E-01 -0.52906066585E-01  0.14052009611E+00  0.44142504824E-01 0.  0.
         14    1    1    2    0    0 -0.94754450463E-03 -0.13409630864E-01  0.15349524618E-02  0.13530414611E-01  0.00000000000E+00 0. -1.
     999901    1    3    3    0    0  0.12161435440E+00 -0.75141782338E-02  0.51371114123E-01  0.88987948928E+00  0.88000000000E+00 0.  1.
        -11    1    4    4    0    0 -0.48238454594E-01 -0.12523202822E-01 -0.26730883243E-01  0.56555993056E-01  0.51100000000E-03 0. -1.
         11    1    4    4    0    0 -0.72428355301E-01  0.33447011919E-01 -0.26175183342E-01  0.83964103056E-01  0.51100000000E-03 0.  1.
</event>
<event>
 8    1  0.2922807E+004  0.1043930E+01  0.7957747E-01            NaN
         13   -1    0    0    0    0  0.00000000000E+00  0.00000000000E+00  0.74505805969E-08  0.10566000000E+00  0.10566000000E+00 0. -1.
     999900   -1    0    0    0    0 -0.00000000000E+00 -0.00000000000E+00 -0.74505805969E-08  0.93827000000E+00  0.93827000000E+00 0.  1.
     999902    2    1    2    0    0  0.96823011324E-02  0.84705736881E-03 -0.10004304367E-01  0.10299818615E+01  0.10298874135E+01 0.  0.
     999903    2    3    3    0    0 -0.50492952560E-01 -0.18618798427E-01  0.11921439095E+00  0.13829948986E+00  0.44927496833E-01 0.  0.
         14    1    1    2    0    0 -0.96823011324E-02 -0.84705736881E-03  0.10004304367E-01  0.13948138488E-01  0.00000000000E+00 0. -1.
     999901    1    3    3    0    0  0.60175253692E-01  0.19465855796E-01 -0.12921869532E+00  0.89168237165E+00  0.88000000000E+00 0.  1.
        -11    1    4    4    0    0 -0.12314932294E-02 -0.19716255015E-01  0.23991475641E-01  0.31082138148E-01  0.51100000000E-03 0. -1.
         11    1    4    4    0    0 -0.49261459330E-01  0.10974565883E-02  0.95222915311E-01  0.10721735171E+00  0.51100000000E-03 0.  1.
</event>
<event>
 8    1  0.2922807E+004  0.1043930E+01  0.7957747E-01            NaN
         13   -1    0    0    0    0  0.00000000000E+00  0.00000000000E+00  0.74505805969E-08  0.10566000000E+00  0.10566000000E+00 0. -1.
     999900   -1    0    0    0    0 -0.00000000000E+00 -0.00000000000E+00 -0.74505805969E-08  0.93827000000E+00  0.93827000000E+00 0.  1.
     999902    2    1    2    0    0 -0.46755993177E-02  0.18060504681E-01 -0.84347101283E-02  0.10234559336E+01  0.10232511230E+01 0.  0.
     999903    2    3    3    0    0  0.70007124562E-02  0.37809172292E-01 -0.12204148002E+00  0.13585644947E+00  0.45654228010E-01 0.  0.
         14    1    1    2    0    0  0.46755993177E-02 -0.18060504681E-01  0.84347101283E-02  0.20474066359E-01  0.00000000000E+00 0. -1.
     999901    1    3    3    0    0 -0.11676311774E-01 -0.19748667611E-01  0.11360676989E+00  0.88759948417E+00  0.88000000000E+00 0. -1.
        -11    1    4    4    0    0  0.22613012910E-01  0.27592345173E-01 -0.10378863643E+00  0.10974984299E+00  0.51100000000E-03 0. -1.
         11    1    4    4    0    0 -0.15612300454E-01  0.10216827119E-01 -0.18252843590E-01  0.26106606481E-01  0.51100000000E-03 0.  1.
</event>
<event>
 8    1  0.2922807E+004  0.1043930E+01  0.7957747E-01            NaN
         13   -1    0    0    0    0  0.00000000000E+00  0.00000000000E+00  0.74505805969E-08  0.10566000000E+00  0.10566000000E+00 0. -1.
     999900   -1    0    0    0    0 -0.00000000000E+00 -0.00000000000E+00 -0.74505805969E-08  0.93827000000E+00  0.93827000000E+00 0.  1.
     999902    2    1    2    0    0 -0.43499613352E-02 -0.13205295998E-01 -0.24296633069E-03  0.10300245680E+01  0.10299307014E+01 0.  0.
     999903    2    3    3    0    0  0.53035763303E-01  0.31780017593E-01 -0.11593968082E+00  0.13946152725E+00  0.46741269635E-01 0.  0.
         14    1    1    2    0    0  0.43499613352E-02  0.13205295998E-01  0.24296633069E-03  0.13905431984E-01  0.00000000000E+00 0.  1.
     999901    1    3    3    0    0 -0.57385724638E-01 -0.44985313592E-01  0.11569671449E+00  0.89056304076E+00  0.88000000000E+00 0. -1.
        -11    1    4    4    0    0  0.45331506718E-01  0.10524468434E-01 -0.10388789903E+00  0.11383613935E+00  0.51100000000E-03 0. -1.
         11    1    4    4    0    0  0.77042565848E-02  0.21255549159E-01 -0.12051781792E-01  0.25625387899E-01  0.51100000000E-03 0.  1.
</event>
<event>
 8    1  0.2922807E+004  0.1043930E+01  0.7957747E-01            NaN
         13   -1    0    0    0    0  0.00000000000E+00  0.00000000000E+00  0.74505805969E-08  0.10566000000E+00  0.10566000000E+00 0. -1.
     999900   -1    0    0    0    0 -0.00000000000E+00 -0.00000000000E+00 -0.74505805969E-08  0.93827000000E+00  0.93827000000E+00 0. -1.
     999902    2    1    2    0    0 -0.78292889558E-02 -0.48402722232E-02  0.11526506426E-01  0.10291791915E+01  0.10290734774E+01 0.  0.
     999903    2    3    3    0    0  0.27438948527E-01  0.35171459735E-01 -0.12191715281E+00  0.13752230825E+00  0.45372520789E-01 0.  0.
         14    1    1    2    0    0  0.78292889558E-02  0.48402722232E-02 -0.11526506426E-01  0.14750808491E-01  0.00000000000E+00 0. -1.
     999901    1    3    3    0    0 -0.35268237482E-01 -0.40011731958E-01  0.13344365923E+00  0.89165688326E+00  0.88000000000E+00 0.  1.
        -11    1    4    4    0    0  0.31155099785E-01  0.21927070908E-01 -0.11676542476E+00  0.12282451800E+00  0.51100000000E-03 0.  1.
         11    1    4    4    0    0 -0.37161512586E-02  0.13244388827E-01 -0.51517280500E-02  0.14697790258E-01  0.51100000000E-03 0. -1.
</event>
<event>
 8    1  0.2922807E+004  0.1043930E+01  0.7957747E-01            NaN
         13   -1    0    0    0    0  0.00000000000E+00  0.00000000000E+00  0.74505805969E-08  0.10566000000E+00  0.10566000000E+00 0. -1.
     999900   -1    0    0    0    0 -0.00000000000E+00 -0.00000000000E+00 -0.74505805969E-08  0.93827000000E+00  0.93827000000E+00 0. -1.
     999902    2    1    2    0    0 -0.42176531449E-02  0.53714521811E-02 -0.12125395061E-01  0.10300135959E+01  0.10299195801E+01 0.  0.
     999903    2    3    3    0    0 -0.33080404636E-01  0.90806329686E-01  0.89893156486E-01  0.13954183245E+00  0.45288417261E-01 0.  0.
         14    1    1    2    0    0  0.42176531449E-02 -0.53714521811E-02  0.12125395061E-01  0.13916404060E-01  0.00000000000E+00 0. -1.
     999901    1    3    3    0    0  0.28862751491E-01 -0.85434877505E-01 -0.10201855155E+00  0.89047176349E+00  0.88000000000E+00 0. -1.
        -11    1    4    4    0    0 -0.10628921138E-01  0.28289840565E-02  0.26802688889E-01  0.28976237990E-01  0.51100000000E-03 0.  1.
         11    1    4    4    0    0 -0.22451483498E-01  0.87977345629E-01  0.63090467596E-01  0.11056559446E+00  0.51100000000E-03 0. -1.
</event>
<event>
 8    1  0.2922807E+004  0.1043930E+01  0.7957747E-01            NaN
         13   -1    0    0    0    0  0.00000000000E+00  0.00000000000E+00  0.74505805969E-08  0.10566000000E+00  0.10566000000E+00 0.  1.
     999900   -1    0    0    0    0 -0.00000000000E+00 -0.00000000000E+00 -0.74505805969E-08  0.93827000000E+00  0.93827000000E+00 0.  1.
     999902    2    1    2    0    0  0.42704428506E-02 -0.11945850935E-01 -0.73471628043E-02  0.10292698214E+01  0.10291654115E+01 0.  0.
     999903    2    3    3    0    0  0.12459946676E+00 -0.35303951914E-01  0.30966167511E-01  0.13994840243E+00  0.43072678985E-01 0.  0.
         14    1    1    2    0    0 -0.42704428506E-02  0.11945850935E-01  0.73471628043E-02  0.14660178647E-01  0.00000000000E+00 0.  1.
     999901    1    3    3    0    0 -0.12032902391E+00  0.23358100979E-01 -0.38313330315E-01  0.88932141892E+00  0.88000000000E+00 0.  1.
        -11    1    4    4    0    0  0.75585841117E-01 -0.14339024883E-01  0.38629142205E-01  0.86088900333E-01  0.51100000000E-03 0.  1.
         11    1    4    4    0    0  0.49013625641E-01 -0.20964927031E-01 -0.76629746944E-02  0.53859502097E-01  0.51100000000E-03 0. -1.
</event>
<event>
 8    1  0.2922807E+004  0.1043930E+01  0.7957747E-01            NaN
         13   -1    0    0    0    0  0.00000000000E+00  0.00000000000E+00  0.74505805969E-08  0.10566000000E+00  0.10566000000E+00 0. -1.
     999900   -1    0    0    0    0 -0.00000000000E+00 -0.00000000000E+00 -0.74505805969E-08  0.93827000000E+00  0.93827000000E+00 0. -1.
     999902    2    1    2    0    0  0.42183877326E-02 -0.11642364244E-01 -0.20617194498E-02  0.10313765094E+01  0.10313001086E+01 0.  0.
     999903    2    3    3    0    0  0.96250424966E-01 -0.88340033711E-01  0.34534225654E-01  0.14250548858E+00  0.45244841382E-01 0.  0.
         14    1    1    2    0    0 -0.42183877326E-02  0.11642364244E-01  0.20617194498E-02  0.12553490644E-01  0.00000000000E+00 0. -1.
     999901    1    3    3    0    0 -0.92032037233E-01  0.76697669467E-01 -0.36595945104E-01  0.88887102078E+00  0.88000000000E+00 0.  1.
        -11    1    4    4    0    0  0.61761177348E-01 -0.76916015032E-01  0.38631754599E-01  0.10593955815E+00  0.51100000000E-03 0. -1.
         11    1    4    4    0    0  0.34489247618E-01 -0.11424018679E-01 -0.40975289443E-02  0.36565930433E-01  0.51100000000E-03 0.  1.
</event>
<event>
 8    1  0.2922807E+004  0.1043930E+01  0.7957747E-01            NaN
         13   -1    0    0    0    0  0.00000000000E+00  0.00000000000E+00  0.74505805969E-08  0.10566000000E+00  0.10566000000E+00 0.  1.
     999900   -1    0    0    0    0 -0.00000000000E+00 -0.00000000000E+00 -0.74505805969E-08  0.93827000000E+00  0.93827000000E+00 0.  1.
     999902    2    1    2    0    0  0.69570426651E-02 -0.10940444095E-01  0.67517480471E-02  0.10293122074E+01  0.10292084047E+01 0.  0.
     999903    2    3    3    0    0 -0.11087810189E+00  0.67818061197E-01  0.50352699081E-02  0.13796997806E+00  0.46012150569E-01 0.  0.
         14    1    1    2    0    0 -0.69570426651E-02  0.10940444095E-01 -0.67517480471E-02  0.14617792629E-01  0.00000000000E+00 0.  1.
     999901    1    3    3    0    0  0.11783514456E+00 -0.78758505292E-01  0.17164781390E-02  0.89134222931E+00  0.88000000000E+00 0. -1.
        -11    1    4    4    0    0 -0.86134403989E-01  0.27929505205E-01 -0.15731158496E-02  0.90564499811E-01  0.51100000000E-03 0. -1.
         11    1    4    4    0    0 -0.24743697905E-01  0.39888555992E-01  0.66083857578E-02  0.47405478254E-01  0.51100000000E-03 0.  1.
</event>
<event>
 8    1  0.2922807E+004  0.1043930E+01  0.7957747E-01            NaN
         13   -1    0    0    0    0  0.00000000000E+00  0.00000000000E+00  0.74505805969E-08  0.10566000000E+00  0.10566000000E+00 0. -1.
     999900   -1    0    0    0    0 -0.00000000000E+00 -0.00000000000E+00 -0.74505805969E-08  0.93827000000E+00  0.93827000000E+00 0.  1.
     999902    2    1    2    0    0  0.49103608774E-03 -0.12499681835E-01 -0.60335127725E-02  0.10300416438E+01  0.10299480091E+01 0.  0.
     999903    2    3    3    0    0  0.42326518878E-01 -0.80503792083E-03 -0.12641430064E+00  0.14078436581E+00  0.45249087978E-01 0.  0.
         14    1    1    2    0    0 -0.49103608774E-03  0.12499681835E-01  0.60335127725E-02  0.13888356231E-01  0.00000000000E+00 0. -1.
     999901    1    3    3    0    0 -0.41835482791E-01 -0.11694643914E-01  0.12038078787E+00  0.88925727796E+00  0.88000000000E+00 0. -1.
        -11    1    4    4    0    0  0.20909248315E-01 -0.29891594787E-02 -0.11871344335E-01  0.24234720481E-01  0.51100000000E-03 0.  1.
         11    1    4    4    0    0  0.21417270564E-01  0.21841215579E-02 -0.11454295631E+00  0.11654964533E+00  0.51100000000E-03 0. -1.
</event>
<event>
 8    1  0.2922807E+004  0.1043930E+01  0.7957747E-01            NaN
         13   -1    0    0    0    0  0.00000000000E+00  0.00000000000E+00  0.74505805969E-08  0.10566000000E+00  0.10566000000E+00 0. -1.
     999900   -1    0    0    0    0 -0.00000000000E+00 -0.00000000000E+00 -0.74505805969E-08  0.93827000000E+00  0.93827000000E+00 0.  1.
     999902    2    1    2    0    0  0.12260353833E-01  0.40014834021E-02 -0.48592581103E-02  0.10301481084E+01  0.10300559134E+01 0.  0.
     999903    2    3    3    0    0  0.11634942105E+00  0.59447510943E-01 -0.30805414514E-01  0.14190152167E+00  0.45998629903E-01 0.  0.
         14    1    1    2    0    0 -0.12260353833E-01 -0.40014834021E-02  0.48592581103E-02  0.13781891558E-01  0.00000000000E+00 0.  1.
     999901    1    3    3    0    0 -0.10408906721E+00 -0.55446027540E-01  0.25946156404E-01  0.88824658677E+00  0.88000000000E+00 0.  1.
        -11    1    4    4    0    0  0.10827458664E+00  0.39633348929E-01 -0.17294833219E-01  0.11659142694E+00  0.51100000000E-03 0. -1.
         11    1    4    4    0    0  0.80748344054E-02  0.19814162014E-01 -0.13510581295E-01  0.25310094724E-01  0.51100000000E-03 0.  1.
</event>
<event>
 8    1  0.2922807E+004  0.1043930E+01  0.7957747E-01            NaN
         13   -1    0    0    0    0  0.00000000000E+00  0.00000000000E+00  0.74505805969E-08  0.10566000000E+00  0.10566000000E+00 0.  1.
     999900   -1    0    0    0    0 -0.00000000000E+00 -0.00000000000E+00 -0.74505805969E-08  0.93827000000E+00  0.93827000000E+00 0. -1.
     999902    2    1    2    0    0  0.12338740464E-01  0.51756464464E-02  0.69146732302E-03  0.10305318673E+01  0.10304447679E+01 0.  0.
     999903    2    3    3    0    0  0.46236986088E-02  0.51868165028E-01 -0.12278046778E+00  0.14065264409E+00  0.44681516208E-01 0.  0.
         14    1    1    2    0    0 -0.12338740464E-01 -0.51756464464E-02 -0.69146732302E-03  0.13398132685E-01  0.00000000000E+00 0.  1.
     999901    1    3    3    0    0  0.77150418554E-02 -0.46692518581E-01  0.12347193510E+00  0.88987922322E+00  0.88000000000E+00 0.  1.
        -11    1    4    4    0    0 -0.11408265686E-01  0.27537440905E-01 -0.97886456911E-01  0.10232535729E+00  0.51100000000E-03 0. -1.
         11    1    4    4    0    0  0.16031964295E-01  0.24330724123E-01 -0.24894010868E-01  0.38327286802E-01  0.51100000000E-03 0.  1.
</event>
<event>
 8    1  0.2922807E+004  0.1043930E+01  0.7957747E-01            NaN
         13   -1    0    0    0    0  0.00000000000E+00  0.00000000000E+00  0.74505805969E-08  0.10566000000E+00  0.10566000000E+00 0. -1.
     999900   -1    0    0    0    0 -0.00000000000E+00 -0.00000000000E+00 -0.74505805969E-08  0.93827000000E+00  0.93827000000E+00 0.  1.
     999902    2    1    2    0    0 -0.11829664440E-01 -0.29730450542E-02 -0.81781516077E-02  0.10292445609E+01  0.10291397884E+01 0.  0.
     999903    2    3    3    0    0 -0.80359078876E-01 -0.94651012791E-01  0.47009423638E-01  0.14011757398E+00  0.44795678902E-01 0.  0.
         14    1    1    2    0    0  0.11829664440E-01  0.29730450542E-02  0.81781516077E-02  0.14685439094E-01  0.00000000000E+00 0. -1.
     999901    1    3    3    0    0  0.68529414436E-01  0.91677967737E-01 -0.55187575245E-01  0.88912698692E+00  0.88000000000E+00 0.  1.
        -11    1    4    4    0    0 -0.47903588010E-01 -0.23024818929E-01  0.22814422057E-01  0.57841637301E-01  0.51100000000E-03 0.  1.
         11    1    4    4    0    0 -0.32455490866E-01 -0.71626193862E-01  0.24195001581E-01  0.82275936683E-01  0.51100000000E-03 0. -1.
</event>
<event>
 8    1  0.2922807E+004  0.1043930E+01  0.7957747E-01            NaN
         13   -1    0    0    0    0  0.00000000000E+00  0.00000000000E+00  0.74505805969E-08  0.10566000000E+00  0.10566000000E+00 0. -1.
     999900   -1    0    0    0    0 -0.00000000000E+00 -0.00000000000E+00 -0.74505805969E-08  0.93827000000E+00  0.93827000000E+00 0. -1.
     999902    2    1    2    0    0 -0.11544901725E-01  0.53851787891E-02 -0.50748097075E-02  0.10302172833E+01  0.10301260176E+01 0.  0.
     999903    2    3    3    0    0 -0.86197700198E-01 -0.10111480375E+00 -0.72657070833E-02  0.14065554476E+00  0.45573508913E-01 0.  0.
         14    1    1    2    0    0  0.11544901725E-01 -0.53851787891E-02  0.50748097075E-02  0.13712716725E-01  0.00000000000E+00 0.  1.
     999901    1    3    3    0    0  0.74652798473E-01  0.10649998254E+00  0.21908973758E-02  0.88956173852E+00  0.88000000000E+00 0.  1.
        -11    1    4    4    0    0 -0.47254986053E-01 -0.72854974074E-01  0.14152293415E-01  0.87985393584E-01  0.51100000000E-03 0.  1.
         11    1    4    4    0    0 -0.38942714145E-01 -0.28259829678E-01 -0.21418000498E-01  0.52670151175E-01  0.51100000000E-03 0. -1.
</event>
<event>
 8    1  0.2922807E+004  0.1043930E+01  0.7957747E-01            NaN
         13   -1    0    0    0    0  0.00000000000E+00  0.00000000000E+00  0.74505805969E-08  0.10566000000E+00  0.10566000000E+00 0. -1.
     999900   -1    0    0    0    0 -0.00000000000E+00 -0.00000000000E+00 -0.74505805969E-08  0.93827000000E+00  0.93827000000E+00 0. -1.
     999902    2    1    2    0    0  0.10886981737E-02  0.95211161673E-02 -0.91572030412E-02  0.10306751411E+01  0.10305899064E+01 0.  0.
     999903    2    3    3    0    0 -0.10358615846E+00 -0.48667153591E-01  0.63775722138E-01  0.13957362505E+00  0.48113096043E-01 0.  0.
         14    1    1    2    0    0 -0.10886981737E-02 -0.95211161673E-02  0.91572030412E-02  0.13254858895E-01  0.00000000000E+00 0. -1.
     999901    1    3    3    0    0  0.10467485663E+00  0.58188269758E-01 -0.72932925179E-01  0.89110151606E+00  0.88000000000E+00 0. -1.
        -11    1    4    4    0    0 -0.36078221242E-01 -0.43036548403E-01  0.33288563699E-01  0.65285313361E-01  0.51100000000E-03 0. -1.
         11    1    4    4    0    0 -0.67507937219E-01 -0.56306051877E-02  0.30487158439E-01  0.74288311685E-01  0.51100000000E-03 0.  1.
</event>
<event>
 8    1  0.2922807E+004  0.1043930E+01  0.7957747E-01            NaN
         13   -1    0    0    0    0  0.00000000000E+00  0.00000000000E+00  0.74505805969E-08  0.10566000000E+00  0.10566000000E+00 0. -1.
     999900   -1    0    0    0    0 -0.00000000000E+00 -0.00000000000E+00 -0.74505805969E-08  0.93827000000E+00  0.93827000000E+00 0. -1.
     999902    2    1    2    0    0 -0.40630977259E-02  0.74396298328E-03  0.13385446813E-01  0.10299217014E+01  0.10298264313E+01 0.  0.
     999903    2    3    3    0    0 -0.11154770750E+00  0.17703599393E-01  0.73332838547E-01  0.14119550035E+00  0.42451803611E-01 0.  0.
         14    1    1    2    0    0  0.40630977259E-02 -0.74396298328E-03 -0.13385446813E-01  0.14008298627E-01  0.00000000000E+00 0.  1.
     999901    1    3    3    0    0  0.10748460978E+00 -0.16959636410E-01 -0.59947391734E-01  0.88872620102E+00  0.88000000000E+00 0. -1.
        -11    1    4    4    0    0 -0.10367368833E-01  0.99404994760E-02 -0.24014901029E-02  0.14571346611E-01  0.51100000000E-03 0. -1.
         11    1    4    4    0    0 -0.10118033867E+00  0.77630999173E-02  0.75734328650E-01  0.12662415374E+00  0.51100000000E-03 0.  1.
</event>
<event>
 8    1  0.2922807E+004  0.1043930E+01  0.7957747E-01            NaN
         13   -1    0    0    0    0  0.00000000000E+00  0.00000000000E+00  0.74505805969E-08  0.10566000000E+00  0.10566000000E+00 0.  1.
     999900   -1    0    0    0    0 -0.00000000000E+00 -0.00000000000E+00 -0.74505805969E-08  0.93827000000E+00  0.93827000000E+00 0. -1.
     999902    2    1    2    0    0  0.93758252276E-03 -0.13221743868E-01  0.48539044439E-02  0.10298142655E+01  0.10297175183E+01 0.  0.
     999903    2    3    3    0    0 -0.10786281302E+00 -0.54714967474E-01 -0.54759384482E-01  0.14014412557E+00  0.44873952873E-01 0.  0.
         14    1    1    2    0    0 -0.93758252276E-03  0.13221743868E-01 -0.48539044439E-02  0.14115734492E-01  0.00000000000E+00 0.  1.
     999901    1    3    3    0    0  0.10880039554E+00  0.41493223607E-01  0.59613288926E-01  0.88967013993E+00  0.88000000000E+00 0.  1.
        -11    1    4    4    0    0 -0.47828421251E-01 -0.25844764624E-02 -0.31391074384E-01  0.57270394358E-01  0.51100000000E-03 0. -1.
         11    1    4    4    0    0 -0.60034391765E-01 -0.52130491012E-01 -0.23368310099E-01  0.82873731216E-01  0.51100000000E-03 0.  1.
</event>
<event>
 8    1  0.2922807E+004  0.1043930E+01  0.7957747E-01            NaN
         13   -1    0    0    0    0  0.00000000000E+00  0.00000000000E+00  0.74505805969E-08  0.10566000000E+00  0.10566000000E+00 0. -1.
     999900   -1    0    0    0    0 -0.00000000000E+00 -0.00000000000E+00 -0.74505805969E-08  0.93827000000E+00  0.93827000000E+00 0.  1.
     999902    2    1    2    0    0 -0.13006900846E-01  0.30694975100E-04  0.20215063944E-02  0.10307669115E+01  0.10306828605E+01 0.  0.
     999903    2    3    3    0    0 -0.77904745823E-02 -0.10960337552E+00  0.75999312457E-01  0.14086829010E+00  0.44658574095E-01 0.  0.
         14    1    1    2    0    0  0.13006900846E-01 -0.30694975100E-04 -0.20215063944E-02  0.13163088540E-01  0.00000000000E+00 0.  1.
     999901    1    3    3    0    0 -0.52164262641E-02  0.10963407050E+00 -0.73977806063E-01  0.88989862136E+00  0.88000000000E+00 0.  1.
        -11    1    4    4    0    0  0.12238400630E-01 -0.24449733538E-01  0.41378674027E-02  0.27657747336E-01  0.51100000000E-03 0. -1.
         11    1    4    4    0    0 -0.20028875212E-01 -0.85153641984E-01  0.71861445055E-01  0.11321054276E+00  0.51100000000E-03 0.  1.
</event>
<event>
 7    1  0.2922807E+004  0.1043930E+01  0.7957747E-01            NaN
         13   -1    0    0    0    0  0.00000000000E+00  0.00000000000E+00  0.74505805969E-08  0.10566000000E+00  0.10566000000E+00 0. -1.
     999900   -1    0    0    0    0 -0.00000000000E+00 -0.00000000000E+00 -0.74505805969E-08  0.93827000000E+00  0.93827000000E+00 0. -1.
     999903    2    1    2    0    0  0.75573559222E-01 -0.34301763617E-01  0.55945223738E-01  0.10946156844E+00  0.44316961384E-01 0.  0.
         14    1    1    2    0    0  0.14999068088E-01 -0.36448097872E-01 -0.24561554864E-01  0.46440347321E-01  0.00000000000E+00 0.  1.
     999901    1    1    2    0    0 -0.90572627310E-01  0.70749861490E-01 -0.31383668874E-01  0.88802808424E+00  0.88000000000E+00 0. -1.
        -11    1    3    3    0    0  0.22437487713E-01 -0.34189808708E-01  0.22597255594E-01  0.46725592086E-01  0.51100000000E-03 0.  1.
         11    1    3    3    0    0  0.53136071509E-01 -0.11195490943E-03  0.33347968144E-01  0.62735976358E-01  0.51100000000E-03 0. -1.
</event>
<event>
 8    1  0.2922807E+004  0.1043930E+01  0.7957747E-01            NaN
         13   -1    0    0    0    0  0.00000000000E+00  0.00000000000E+00  0.74505805969E-08  0.10566000000E+00  0.10566000000E+00 0.  1.
     999900   -1    0    0    0    0 -0.00000000000E+00 -0.00000000000E+00 -0.74505805969E-08  0.93827000000E+00  0.93827000000E+00 0. -1.
     999902    2    1    2    0    0 -0.78377346440E-02 -0.92634726582E-02  0.51673336135E-02  0.10307412417E+01  0.10306568604E+01 0.  0.
     999903    2    3    3    0    0 -0.54185972439E-01  0.66705720438E-01  0.10231812380E+00  0.14093353575E+00  0.44805025304E-01 0.  0.
         14    1    1    2    0    0  0.78377346440E-02  0.92634726582E-02 -0.51673336135E-02  0.13188758346E-01  0.00000000000E+00 0. -1.
     999901    1    3    3    0    0  0.46348237795E-01 -0.75969193097E-01 -0.97150790191E-01  0.88980770590E+00  0.88000000000E+00 0. -1.
        -11    1    4    4    0    0 -0.18109855596E-01  0.56479401036E-01  0.65838343663E-01  0.88616241335E-01  0.51100000000E-03 0.  1.
         11    1    4    4    0    0 -0.36076116843E-01  0.10226319403E-01  0.36479780141E-01  0.52317294417E-01  0.51100000000E-03 0. -1.
</event>
<event>
 8    1  0.2922807E+004  0.1043930E+01  0.7957747E-01            NaN
         13   -1    0    0    0    0  0.00000000000E+00  0.00000000000E+00  0.74505805969E-08  0.10566000000E+00  0.10566000000E+00 0.  1.
     999900   -1    0    0    0    0 -0.00000000000E+00 -0.00000000000E+00 -0.74505805969E-08  0.93827000000E+00  0.93827000000E+00 0. -1.
     999902    2    1    2    0    0 -0.12749831325E-01  0.43815404215E-02 -0.46622213603E-02  0.10296649236E+01  0.10295661040E+01 0.  0.
     999903    2    3    3    0    0  0.10847584001E-02  0.32440121612E-01 -0.12973275836E+00  0.14027113062E+00  0.42330406377E-01 0.  0.
         14    1    1    2    0    0  0.12749831325E-01 -0.43815404215E-02  0.46622213603E-02  0.14265076351E-01  0.00000000000E+00 0.  1.
     999901    1    3    3    0    0 -0.13834589725E-01 -0.28058581191E-01  0.12507053700E+00  0.88939379303E+00  0.88000000000E+00 0.  1.
        -11    1    4    4    0    0  0.87595328482E-02  0.26026975403E-01 -0.32620068653E-01  0.42643438701E-01  0.51100000000E-03 0.  1.
         11    1    4    4    0    0 -0.76747744481E-02  0.64131462088E-02 -0.97112689704E-01  0.97627691920E-01  0.51100000000E-03 0. -1.
</event>
<event>
 8    1  0.2922807E+004  0.1043930E+01  0.7957747E-01            NaN
         13   -1    0    0    0    0  0.00000000000E+00  0.00000000000E+00  0.74505805969E-08  0.10566000000E+00  0.10566000000E+00 0. -1.
     999900   -1    0    0    0    0 -0.00000000000E+00 -0.00000000000E+00 -0.74505805969E-08  0.93827000000E+00  0.93827000000E+00 0. -1.
     999902    2    1    2    0    0 -0.96161864435E-02  0.27557605573E-02  0.10098196835E-01  0.10297159634E+01  0.10296178545E+01 0.  0.
     999903    2    3    3    0    0  0.45584673138E-02  0.31603265621E-01  0.13032513645E+00  0.14095974462E+00  0.43190998959E-01 0.  0.
         14    1    1    2    0    0  0.96161864435E-02 -0.27557605573E-02 -0.10098196835E-01  0.14214036629E-01  0.00000000000E+00 0.  1.
     999901    1    3    3    0    0 -0.14174653757E-01 -0.28847505063E-01 -0.12022693961E+00  0.88875621875E+00  0.88000000000E+00 0. -1.
        -11    1    4    4    0    0  0.13295715846E-01  0.36874062891E-01  0.74265991747E-01  0.83977206581E-01  0.51100000000E-03 0.  1.
         11    1    4    4    0    0 -0.87372485324E-02 -0.52707972709E-02  0.56059144702E-01  0.56982538040E-01  0.51100000000E-03 0. -1.
</event>
<event>
 7    1  0.2922807E+004  0.1043930E+01  0.7957747E-01            NaN
         13   -1    0    0    0    0  0.00000000000E+00  0.00000000000E+00  0.74505805969E-08  0.10566000000E+00  0.10566000000E+00 0.  1.
     999900   -1    0    0    0    0 -0.00000000000E+00 -0.00000000000E+00 -0.74505805969E-08  0.93827000000E+00  0.93827000000E+00 0. -1.
     999902    2    1    2    0    0 -0.28213718520E-02  0.95738749879E-02 -0.88979339035E-02  0.10305586706E+01  0.10304719216E+01 0.  0.
         14    1    1    2    0    0  0.28213718520E-02 -0.95738749879E-02  0.88979339035E-02  0.13371329372E-01  0.00000000000E+00 0.  1.
     999901    1    3    3    0    0 -0.22873588143E-01  0.67895290452E-01  0.11666492659E+00  0.89058614215E+00  0.88000000000E+00 0.  1.
        -11    1    3    3    0    0  0.75927810134E-02 -0.16791126395E-01 -0.34690934724E-01  0.39285039419E-01  0.51100000000E-03 0. -1.
         11    1    3    3    0    0  0.12459435277E-01 -0.41530289069E-01 -0.90871925773E-01  0.10068748906E+00  0.51100000000E-03 0.  1.
</event>
<event>
 8    1  0.2922807E+004  0.1043930E+01  0.7957747E-01            NaN
         13   -1    0    0    0    0  0.00000000000E+00  0.00000000000E+00  0.74505805969E-08  0.10566000000E+00  0.10566000000E+00 0.  1.
     999900   -1    0    0    0    0 -0.00000000000E+00 -0.00000000000E+00 -0.74505805969E-08  0.93827000000E+00  0.93827000000E+00 0.  1.
     999902    2    1    2    0    0 -0.27459525305E-02 -0.13040808344E-02  0.13728223077E-01  0.10298692393E+01  0.10297732494E+01 0.  0.
     999903    2    3    3    0    0 -0.10768104930E+00  0.60566142561E-01  0.47936762551E-01  0.14081945261E+00  0.47631072054E-01 0.  0.
         14    1    1    2    0    0  0.27459525305E-02  0.13040808344E-02 -0.13728223077E-01  0.14060760683E-01  0.00000000000E+00 0. -1.
     999901    1    3    3    0    0  0.10493509677E+00 -0.61870223395E-01 -0.34208539474E-01  0.88904978671E+00  0.88000000000E+00 0.  1.
        -11    1    4    4    0    0 -0.41849893203E-01  0.46321772259E-03  0.59236085650E-02  0.42272667188E-01  0.51100000000E-03 0.  1.
         11    1    4    4    0    0 -0.65831156099E-01  0.60102924838E-01  0.42013153986E-01  0.98546785418E-01  0.51100000000E-03 0. -1.
</event>
<event>
 8    1  0.2922807E+004  0.1043930E+01  0.7957747E-01            NaN
         13   -1    0    0    0    0  0.00000000000E+00  0.00000000000E+00  0.74505805969E-08  0.10566000000E+00  0.10566000000E+00 0.  1.
     999900   -1    0    0    0    0 -0.00000000000E+00 -0.00000000000E+00 -0.74505805969E-08  0.93827000000E+00  0.93827000000E+00 0.  1.
     999902    2    1    2    0    0 -0.13077163514E-01 -0.65095922080E-02  0.12552071220E-02  0.10292683991E+01  0.10291639689E+01 0.  0.
     999903    2    3    3    0    0  0.11741204714E+00  0.40614018231E-01  0.36798555998E-01  0.13769036078E+00  0.46576973247E-01 0.  0.
         14    1    1    2    0    0  0.13077163514E-01  0.65095922080E-02 -0.12552071220E-02  0.14661600909E-01  0.00000000000E+00 0.  1.
     999901    1    3    3    0    0 -0.13048921065E+00 -0.47123610439E-01 -0.35543348876E-01  0.89157803832E+00  0.88000000000E+00 0.  1.
        -11    1    4    4    0    0  0.39098515194E-01  0.29610610623E-01  0.31785779209E-01  0.58447232892E-01  0.51100000000E-03 0.  1.
         11    1    4    4    0    0  0.78313531945E-01  0.11003407608E-01  0.50127767890E-02  0.79243127883E-01  0.51100000000E-03 0. -1.
</event>
<event>
 8    1  0.2922807E+004  0.1043930E+01  0.7957747E-01            NaN
         13   -1    0    0    0    0  0.00000000000E+00  0.00000000000E+00  0.74505805969E-08  0.10566000000E+00  0.10566000000E+00 0. -1.
     999900   -1    0    0    0    0 -0.00000000000E+00 -0.00000000000E+00 -0.74505805969E-08  0.93827000000E+00  0.93827000000E+00 0.  1.
     999902    2    1    2    0    0  0.10540970787E-02 -0.15073924160E-02  0.14029170833E-01  0.10297807602E+01  0.10296835500E+01 0.  0.
     999903    2    3    3    0    0 -0.70329054639E-01 -0.64903390704E-01  0.93509976769E-01  0.14105594033E+00  0.44654635771E-01 0.  0.
         14    1    1    2    0    0 -0.10540970787E-02  0.15073924160E-02 -0.14029170833E-01  0.14149239796E-01  0.00000000000E+00 0.  1.
     999901    1    3    3    0    0  0.71383151717E-01  0.63395998288E-01 -0.79480805936E-01  0.88872481987E+00  0.88000000000E+00 0.  1.
        -11    1    4    4    0    0 -0.10634813173E-01  0.14353603782E-02 -0.13339507196E-02  0.10825897476E-01  0.51100000000E-03 0.  1.
         11    1    4    4    0    0 -0.59694241465E-01 -0.66338751082E-01  0.94843927489E-01  0.13023004285E+00  0.51100000000E-03 0. -1.
</event>
<event>
 8    1  0.2922807E+004  0.1043930E+01  0.7957747E-01            NaN
         13   -1    0    0    0    0  0.00000000000E+00  0.00000000000E+00  0.74505805969E-08  0.10566000000E+00  0.10566000000E+00 0.  1.
     999900   -1    0    0    0    0 -0.00000000000E+00 -0.00000000000E+00 -0.74505805969E-08  0.93827000000E+00  0.93827000000E+00 0. -1.
     999902    2    1    2    0    0 -0.10267056231E-01  0.94838191704E-02 -0.11059230124E-02  0.10299093604E+01  0.10298139212E+01 0.  0.
     999903    2    3    3    0    0  0.15505063953E-01 -0.10223049944E+00 -0.80479708729E-01  0.13892984938E+00  0.46184819004E-01 0.  0.
         14    1    1    2    0    0  0.10267056231E-01 -0.94838191704E-02  0.11059230124E-02  0.14020639622E-01  0.00000000000E+00 0.  1.
     999901    1    3    3    0    0 -0.25772120184E-01  0.11171431861E+00  0.79373785717E-01  0.89097951100E+00  0.88000000000E+00 0.  1.
        -11    1    4    4    0    0 -0.13771471541E-01 -0.55467127921E-01 -0.49761940495E-01  0.75781050079E-01  0.51100000000E-03 0.  1.
         11    1    4    4    0    0  0.29276535494E-01 -0.46763371523E-01 -0.30717768234E-01  0.63148799300E-01  0.51100000000E-03 0. -1.
</event>
<event>
 8    1  0.2922807E+004  0.1043930E+01  0.7957747E-01            NaN
         13   -1    0    0    0    0  0.00000000000E+00  0.00000000000E+00  0.74505805969E-08  0.10566000000E+00  0.10566000000E+00 0.  1.
     999900   -1    0    0    0    0 -0.00000000000E+00 -0.00000000000E+00 -0.74505805969E-08  0.93827000000E+00  0.93827000000E+00 0. -1.
     999902    2    1    2    0    0  0.75941498039E-02 -0.86094620711E-02  0.85448817188E-02  0.10296188522E+01  0.10295193887E+01 0.  0.
     999903    2    3    3    0    0  0.79190747019E-01  0.41631300719E-01 -0.96577220662E-01  0.13905674688E+00  0.44780349373E-01 0.  0.
         14    1    1    2    0    0 -0.75941498039E-02  0.86094620711E-02 -0.85448817188E-02  0.14311147822E-01  0.00000000000E+00 0. -1.
     999901    1    3    3    0    0 -0.71596597215E-01 -0.50240762791E-01  0.10512210238E+00  0.89056210529E+00  0.88000000000E+00 0.  1.
        -11    1    4    4    0    0  0.23112336206E-01  0.16249798013E-01 -0.62746447027E-01  0.68815795831E-01  0.51100000000E-03 0. -1.
         11    1    4    4    0    0  0.56078410813E-01  0.25381502707E-01 -0.33830773635E-01  0.70240951052E-01  0.51100000000E-03 0.  1.
</event>
<event>
 7    1  0.2922807E+004  0.1043930E+01  0.7957747E-01            NaN
         13   -1    0    0    0    0  0.00000000000E+00  0.00000000000E+00  0.74505805969E-08  0.10566000000E+00  0.10566000000E+00 0. -1.
     999900   -1    0    0    0    0 -0.00000000000E+00 -0.00000000000E+00 -0.74505805969E-08  0.93827000000E+00  0.93827000000E+00 0.  1.
     999902    2    1    2    0    0 -0.10955821633E-01 -0.55656215276E-02  0.67053049501E-02  0.10299311684E+01  0.10298360279E+01 0.  0.
         14    1    1    2    0    0  0.10955821633E-01  0.55656215276E-02 -0.67053049501E-02  0.13998831563E-01  0.00000000000E+00 0. -1.
     999901    1    3    3    0    0  0.14512086177E-01 -0.11443753487E+00 -0.14786528461E-01  0.88765150338E+00  0.88000000000E+00 0.  1.
        -11    1    3    3    0    0  0.12400376485E-01 -0.20120908660E-02 -0.14984245314E-01  0.19560331675E-01  0.51100000000E-03 0.  1.
         11    1    3    3    0    0 -0.37868284295E-01  0.11088400421E+00  0.36476078725E-01  0.12271933338E+00  0.51100000000E-03 0. -1.
</event>
<event>
 8    1  0.2922807E+004  0.1043930E+01  0.7957747E-01            NaN
         13   -1    0    0    0    0  0.00000000000E+00  0.00000000000E+00  0.74505805969E-08  0.10566000000E+00  0.10566000000E+00 0. -1.
     999900   -1    0    0    0    0 -0.00000000000E+00 -0.00000000000E+00 -0.74505805969E-08  0.93827000000E+00  0.93827000000E+00 0.  1.
     999902    2    1    2    0    0  0.96609776387E-02 -0.16151512668E-01  0.16259120434E-03  0.10251089404E+01  0.10249361479E+01 0.  0.
     999903    2    3    3    0    0  0.50402307497E-01 -0.98142806751E-01  0.67296661094E-01  0.13781563394E+00  0.47873847201E-01 0.  0.
         14    1    1    2    0    0 -0.96609776387E-02  0.16151512668E-01 -0.16259120434E-03  0.18821059648E-01  0.00000000000E+00 0. -1.
     999901    1    3    3    0    0 -0.40741329858E-01  0.81991294083E-01 -0.67134069890E-01  0.88729330641E+00  0.88000000000E+00 0.  1.
        -11    1    4    4    0    0  0.24692891657E-01 -0.75614342629E-01  0.24898950781E-01  0.83351584151E-01  0.51100000000E-03 0. -1.
         11    1    4    4    0    0  0.25709415840E-01 -0.22528464122E-01  0.42397710313E-01  0.54464049788E-01  0.51100000000E-03 0.  1.
</event>
<event>
 8    1  0.2922807E+004  0.1043930E+01  0.7957747E-01            NaN
         13   -1    0    0    0    0  0.00000000000E+00  0.00000000000E+00  0.74505805969E-08  0.10566000000E+00  0.10566000000E+00 0.  1.
     999900   -1    0    0    0    0 -0.00000000000E+00 -0.00000000000E+00 -0.74505805969E-08  0.93827000000E+00  0.93827000000E+00 0. -1.
     999902    2    1    2    0    0  0.49635225681E-02  0.12725305882E-01 -0.30176274811E-02  0.10299415747E+01  0.10298465766E+01 0.  0.
     999903    2    3    3    0    0 -0.41514959757E-01 -0.30755972466E-01  0.12084316207E+00  0.13899131457E+00  0.45233770357E-01 0.  0.
         14    1    1    2    0    0 -0.49635225681E-02 -0.12725305882E-01  0.30176274811E-02  0.13988425276E-01  0.00000000000E+00 0. -1.
     999901    1    3    3    0    0  0.46478482325E-01  0.43481278348E-01 -0.12386078955E+00  0.89095026016E+00  0.88000000000E+00 0. -1.
        -11    1    4    4    0    0  0.98337767447E-02 -0.44245994325E-02  0.22763602267E-01  0.25193708627E-01  0.51100000000E-03 0. -1.
         11    1    4    4    0    0 -0.51348736501E-01 -0.26331373033E-01  0.98079559801E-01  0.11379760594E+00  0.51100000000E-03 0.  1.
</event>
<event>
 8    1  0.2922807E+004  0.1043930E+01  0.7957747E-01            NaN
         13   -1    0    0    0    0  0.00000000000E+00  0.00000000000E+00  0.74505805969E-08  0.10566000000E+00  0.10566000000E+00 0. -1.
     999900   -1    0    0    0    0 -0.00000000000E+00 -0.00000000000E+00 -0.74505805969E-08  0.93827000000E+00  0.93827000000E+00 0.  1.
     999902    2    1    2    0    0 -0.47238429277E-02 -0.15043083901E-01 -0.38886425279E-03  0.10281578638E+01  0.10280368829E+01 0.  0.
     999903    2    3    3    0    0  0.12873005737E+00  0.97026569819E-02 -0.13271156417E-01  0.13765898751E+00  0.45916271936E-01 0.  0.
         14    1    1    2    0    0  0.47238429277E-02  0.15043083901E-01  0.38886425279E-03  0.15772136211E-01  0.00000000000E+00 0. -1.
     999901    1    3    3    0    0 -0.13345390029E+00 -0.24745740883E-01  0.12882292164E-01  0.89049887628E+00  0.88000000000E+00 0. -1.
        -11    1    4    4    0    0  0.56640784583E-01 -0.13875681352E-01 -0.19657183282E-01  0.61541684952E-01  0.51100000000E-03 0. -1.
         11    1    4    4    0    0  0.72089272784E-01  0.23578338334E-01  0.63860268657E-02  0.76117302561E-01  0.51100000000E-03 0.  1.
</event>
<event>
 8    1  0.2922807E+004  0.1043930E+01  0.7957747E-01            NaN
         13   -1    0    0    0    0  0.00000000000E+00  0.00000000000E+00  0.74505805969E-08  0.10566000000E+00  0.10566000000E+00 0. -1.
     999900   -1    0    0    0    0 -0.00000000000E+00 -0.00000000000E+00 -0.74505805969E-08  0.93827000000E+00  0.93827000000E+00 0.  1.
     999902    2    1    2    0    0  0.57519127576E-02  0.11805103324E-01  0.53686226258E-02  0.10297431373E+01  0.10296454058E+01 0.  0.
     999903    2    3    3    0    0 -0.14621115346E-01 -0.52453244878E-01 -0.11909015213E+00  0.13843276362E+00  0.44900398618E-01 0.  0.
         14    1    1    2    0    0 -0.57519127576E-02 -0.11805103324E-01 -0.53686226258E-02  0.14186862718E-01  0.00000000000E+00 0.  1.
     999901    1    3    3    0    0  0.20373028104E-01  0.64258348203E-01  0.12445877476E+00  0.89131037366E+00  0.88000000000E+00 0. -1.
        -11    1    4    4    0    0 -0.12149407342E-01 -0.24051241817E-01 -0.10130105922E+00  0.10482478739E+00  0.51100000000E-03 0.  1.
         11    1    4    4    0    0 -0.24717080048E-02 -0.28402003062E-01 -0.17789092910E-01  0.33607976225E-01  0.51100000000E-03 0. -1.
</event>
<event>
 8    1  0.2922807E+004  0.1043930E+01  0.7957747E-01            NaN
         13   -1    0    0    0    0  0.00000000000E+00  0.00000000000E+00  0.74505805969E-08  0.10566000000E+00  0.10566000000E+00 0. -1.
     999900   -1    0    0    0    0 -0.00000000000E+00 -0.00000000000E+00 -0.74505805969E-08  0.93827000000E+00  0.93827000000E+00 0. -1.
     999902    2    1    2    0    0  0.13475585871E-01  0.15686897591E-03 -0.43189501544E-02  0.10297783445E+01  0.10296811009E+01 0.  0.
     999903    2    3    3    0    0 -0.11560760990E+00 -0.50962657600E-01  0.38849350204E-01  0.13784831386E+00  0.39122547052E-01 0.  0.
         14    1    1    2    0    0 -0.13475585871E-01 -0.15686897591E-03  0.43189501544E-02  0.14151655482E-01  0.00000000000E+00 0. -1.
     999901    1    3    3    0    0  0.12908319577E+00  0.51119526576E-01 -0.43168300358E-01  0.89193003065E+00  0.88000000000E+00 0. -1.
        -11    1    4    4    0    0 -0.10028493350E+00 -0.30199376652E-01  0.21985254214E-01  0.10701720778E+00  0.51100000000E-03 0.  1.
         11    1    4    4    0    0 -0.15322676396E-01 -0.20763280948E-01  0.16864095989E-01  0.30831106082E-01  0.51100000000E-03 0. -1.
</event>
<event>
 8    1  0.2922807E+004  0.1043930E+01  0.7957747E-01            NaN
         13   -1    0    0    0    0  0.00000000000E+00  0.00000000000E+00  0.74505805969E-08  0.10566000000E+00  0.10566000000E+00 0.  1.
     999900   -1    0    0    0    0 -0.00000000000E+00 -0.00000000000E+00 -0.74505805969E-08  0.93827000000E+00  0.93827000000E+00 0. -1.
     999902    2    1    2    0    0 -0.32923360786E-02 -0.50380440845E-02 -0.13228888501E-01  0.10293964232E+01  0.10292938216E+01 0.  0.
     999903    2    3    3    0    0  0.77015466078E-01  0.10563678885E+00 -0.12361968900E-01  0.13883535659E+00  0.45076876437E-01 0.  0.
         14    1    1    2    0    0  0.32923360786E-02  0.50380440845E-02  0.13228888501E-01  0.14533576849E-01  0.00000000000E+00 0.  1.
     999901    1    3    3    0    0 -0.80307802157E-01 -0.11067483293E+00 -0.86691960129E-03  0.89056106657E+00  0.88000000000E+00 0.  1.
        -11    1    4    4    0    0  0.53491686983E-01  0.58561484917E-01 -0.27706101847E-01  0.84016053779E-01  0.51100000000E-03 0. -1.
         11    1    4    4    0    0  0.23523779095E-01  0.47075303933E-01  0.15344132947E-01  0.54819302807E-01  0.51100000000E-03 0.  1.
</event>
<event>
 8    1  0.2922807E+004  0.1043930E+01  0.7957747E-01            NaN
         13   -1    0    0    0    0  0.00000000000E+00  0.00000000000E+00  0.74505805969E-08  0.10566000000E+00  0.10566000000E+00 0.  1.
     999900   -1    0    0    0    0 -0.00000000000E+00 -0.00000000000E+00 -0.74505805969E-08  0.93827000000E+00  0.93827000000E+00 0. -1.
     999902    2    1    2    0    0 -0.20461808668E-02  0.42977304924E-02  0.13629329190E-01  0.10294933814E+01  0.10293921538E+01 0.  0.
     999903    2    3    3    0    0 -0.39568495049E-02  0.50868881347E-01  0.12415806923E+00  0.14135537118E+00  0.44303668701E-01 0.  0.
         14    1    1    2    0    0  0.20461808668E-02 -0.42977304924E-02 -0.13629329190E-01  0.14436618638E-01  0.00000000000E+00 0. -1.
     999901    1    3    3    0    0  0.19106686380E-02 -0.46571150854E-01 -0.11052874004E+00  0.88813801018E+00  0.88000000000E+00 0. -1.
        -11    1    4    4    0    0 -0.16926064261E-01  0.37577766475E-01  0.49464042433E-01  0.64385812097E-01  0.51100000000E-03 0. -1.
         11    1    4    4    0    0  0.12969214756E-01  0.13291114871E-01  0.74694026797E-01  0.76969559087E-01  0.51100000000E-03 0.  1.
</event>
<event>
 8    1  0.2922807E+004  0.1043930E+01  0.7957747E-01            NaN
         13   -1    0    0    0    0  0.00000000000E+00  0.00000000000E+00  0.74505805969E-08  0.10566000000E+00  0.10566000000E+00 0.  1.
     999900   -1    0    0    0    0 -0.00000000000E+00 -0.00000000000E+00 -0.74505805969E-08  0.93827000000E+00  0.93827000000E+00 0.  1.
     999902    2    1    2    0    0 -0.90623171578E-03 -0.55049511385E-02 -0.13506049735E-01  0.10293170221E+01  0.10292132883E+01 0.  0.
     999903    2    3    3    0    0 -0.11905096313E+00  0.38255450997E-01  0.40878796624E-01  0.13868193306E+00  0.43874721534E-01 0.  0.
         14    1    1    2    0    0  0.90623171578E-03  0.55049511385E-02  0.13506049735E-01  0.14612977876E-01  0.00000000000E+00 0.  1.
     999901    1    3    3    0    0  0.11814473142E+00 -0.43760402135E-01 -0.54384846360E-01  0.89063508906E+00  0.88000000000E+00 0. -1.
        -11    1    4    4    0    0 -0.79863130365E-01  0.43931877678E-01  0.38688881215E-01  0.99021311437E-01  0.51100000000E-03 0. -1.
         11    1    4    4    0    0 -0.39187832770E-01 -0.56764266815E-02  0.21899154092E-02  0.39660621624E-01  0.51100000000E-03 0.  1.
</event>
<event>
 8    1  0.2922807E+004  0.1043930E+01  0.7957747E-01            NaN
         13   -1    0    0    0    0  0.00000000000E+00  0.00000000000E+00  0.74505805969E-08  0.10566000000E+00  0.10566000000E+00 0.  1.
     999900   -1    0    0    0    0 -0.00000000000E+00 -0.00000000000E+00 -0.74505805969E-08  0.93827000000E+00  0.93827000000E+00 0. -1.
     999902    2    1    2    0    0  0.28806762560E-02 -0.12143589133E-01  0.67468326697E-02  0.10297425124E+01  0.10296447723E+01 0.  0.
     999903    2    3    3    0    0 -0.42297644674E-01  0.11535676966E+00 -0.44242882931E-01  0.13794804436E+00  0.44451717641E-01 0.  0.
         14    1    1    2    0    0 -0.28806762560E-02  0.12143589133E-01 -0.67468326697E-02  0.14187487579E-01  0.00000000000E+00 0. -1.
     999901    1    3    3    0    0  0.45178320930E-01 -0.12750035879E+00  0.50989715601E-01  0.89179446806E+00  0.88000000000E+00 0.  1.
        -11    1    4    4    0    0 -0.51497322414E-01  0.92367729916E-01 -0.38318185535E-01  0.11248251513E+00  0.51100000000E-03 0.  1.
         11    1    4    4    0    0  0.91996777399E-02  0.22989039740E-01 -0.59246973965E-02  0.25465529229E-01  0.51100000000E-03 0. -1.
</event>
<event>
 8    1  0.2922807E+004  0.1043930E+01  0.7957747E-01            NaN
         13   -1    0    0    0    0  0.00000000000E+00  0.00000000000E+00  0.74505805969E-08  0.10566000000E+00  0.10566000000E+00 0. -1.
     999900   -1    0    0    0    0 -0.00000000000E+00 -0.00000000000E+00 -0.74505805969E-08  0.93827000000E+00  0.93827000000E+00 0.  1.
     999902    2    1    2    0    0  0.72260848091E-02 -0.11855164126E-01 -0.58474343957E-03  0.10300338443E+01  0.10299401037E+01 0.  0.
     999903    2    3    3    0    0 -0.66248526102E-01 -0.11489655839E+00 -0.82482292487E-02  0.14094736010E+00  0.46989772220E-01 0.  0.
         14    1    1    2    0    0 -0.72260848091E-02  0.11855164126E-01  0.58474343957E-03  0.13896155692E-01  0.00000000000E+00 0. -1.
     999901    1    3    3    0    0  0.73474610911E-01  0.10304139427E+00  0.76634858091E-02  0.88908648420E+00  0.88000000000E+00 0.  1.
        -11    1    4    4    0    0 -0.24499997442E-01 -0.65808739801E-01  0.16123339753E-01  0.72050422029E-01  0.51100000000E-03 0.  1.
         11    1    4    4    0    0 -0.41748528659E-01 -0.49087818592E-01 -0.24371569002E-01  0.68896938074E-01  0.51100000000E-03 0. -1.
</event>
<event>
 8    1  0.2922807E+004  0.1043930E+01  0.7957747E-01            NaN
         13   -1    0    0    0    0  0.00000000000E+00  0.00000000000E+00  0.74505805969E-08  0.10566000000E+00  0.10566000000E+00 0.  1.
     999900   -1    0    0    0    0 -0.00000000000E+00 -0.00000000000E+00 -0.74505805969E-08  0.93827000000E+00  0.93827000000E+00 0.  1.
     999902    2    1    2    0    0  0.37395418879E-02 -0.62770142720E-02  0.11473953392E-01  0.10303271809E+01  0.10302373818E+01 0.  0.
     999903    2    3    3    0    0  0.40610995294E-01  0.10665357048E+00  0.70117338212E-01  0.14041040520E+00  0.42123671908E-01 0.  0.
         14    1    1    2    0    0 -0.37395418879E-02  0.62770142720E-02 -0.11473953392E-01  0.13602819125E-01  0.00000000000E+00 0. -1.
     999901    1    3    3    0    0 -0.36871453406E-01 -0.11293058475E+00 -0.58643384819E-01  0.88991677568E+00  0.88000000000E+00 0.  1.
        -11    1    4    4    0    0  0.26619149782E-01  0.69388924177E-01  0.21087740492E-01  0.77255134805E-01  0.51100000000E-03 0. -1.
         11    1    4    4    0    0  0.13991845512E-01  0.37264646302E-01  0.49029597719E-01  0.63155270393E-01  0.51100000000E-03 0.  1.
</event>
<event>
 8    1  0.2922807E+004  0.1043930E+01  0.7957747E-01            NaN
         13   -1    0    0    0    0  0.00000000000E+00  0.00000000000E+00  0.74505805969E-08  0.10566000000E+00  0.10566000000E+00 0. -1.
     999900   -1    0    0    0    0 -0.00000000000E+00 -0.00000000000E+00 -0.74505805969E-08  0.93827000000E+00  0.93827000000E+00 0.  1.
     999902    2    1    2    0    0  0.13494616713E-01  0.19707441609E-02  0.45148199011E-03  0.10302847683E+01  0.10301944047E+01 0.  0.
     999903    2    3    3    0    0  0.36426857774E-01  0.10362225607E-01 -0.12797177845E+00  0.14062818371E+00  0.44330782620E-01 0.  0.
         14    1    1    2    0    0 -0.13494616713E-01 -0.19707441609E-02 -0.45148199011E-03  0.13645231722E-01  0.00000000000E+00 0. -1.
     999901    1    3    3    0    0 -0.22932241061E-01 -0.83914814461E-02  0.12842326044E+00  0.88965658457E+00  0.88000000000E+00 0. -1.
        -11    1    4    4    0    0  0.22703031356E-01 -0.11013774337E-02 -0.17429259701E-01  0.28647528335E-01  0.51100000000E-03 0.  1.
         11    1    4    4    0    0  0.13723826418E-01  0.11463603041E-01 -0.11054251875E+00  0.11198065538E+00  0.51100000000E-03 0. -1.
</event>
<event>
 8    1  0.2922807E+004  0.1043930E+01  0.7957747E-01            NaN
         13   -1    0    0    0    0  0.00000000000E+00  0.00000000000E+00  0.74505805969E-08  0.10566000000E+00  0.10566000000E+00 0. -1.
     999900   -1    0    0    0    0 -0.00000000000E+00 -0.00000000000E+00 -0.74505805969E-08  0.93827000000E+00  0.93827000000E+00 0.  1.
     999902    2    1    2    0    0 -0.49974186646E-02  0.26023953718E-02  0.12510493839E-01  0.10302092452E+01  0.10301178718E+01 0.  0.
     999903    2    3    3    0    0 -0.75109662729E-01 -0.49254348169E-01  0.10162092787E+00  0.14142045252E+00  0.40068430965E-01 0.  0.
         14    1    1    2    0    0  0.49974186646E-02 -0.26023953718E-02 -0.12510493839E-01  0.13720754756E-01  0.00000000000E+00 0.  1.
     999901    1    3    3    0    0  0.70112244064E-01  0.51856743541E-01 -0.89110434036E-01  0.88878879272E+00  0.88000000000E+00 0.  1.
        -11    1    4    4    0    0 -0.93947461657E-02 -0.27514795987E-01  0.32197790198E-01  0.43385297836E-01  0.51100000000E-03 0. -1.
         11    1    4    4    0    0 -0.65714916563E-01 -0.21739552182E-01  0.69423137677E-01  0.98035154684E-01  0.51100000000E-03 0.  1.
</event>
<event>
 8    1  0.2922807E+004  0.1043930E+01  0.7957747E-01            NaN
         13   -1    0    0    0    0  0.00000000000E+00  0.00000000000E+00  0.74505805969E-08  0.10566000000E+00  0.10566000000E+00 0.  1.
     999900   -1    0    0    0    0 -0.00000000000E+00 -0.00000000000E+00 -0.74505805969E-08  0.93827000000E+00  0.93827000000E+00 0.  1.
     999902    2    1    2    0    0 -0.33069331087E-02 -0.28354856915E-02  0.13548748824E-01  0.10296981912E+01  0.10295998352E+01 0.  0.
     999903    2    3    3    0    0 -0.30079628437E-01 -0.30622318518E-01 -0.12338641409E+00  0.13827229745E+00  0.45304642368E-01 0.  0.
         14    1    1    2    0    0  0.33069331087E-02  0.28354856915E-02 -0.13548748824E-01  0.14231808753E-01  0.00000000000E+00 0. -1.
     999901    1    3    3    0    0  0.26772695328E-01  0.27786832826E-01  0.13693516292E+00  0.89142589380E+00  0.88000000000E+00 0. -1.
        -11    1    4    4    0    0 -0.38957162936E-02  0.11612007077E-01 -0.18280309988E-01  0.22010137847E-01  0.51100000000E-03 0.  1.
         11    1    4    4    0    0 -0.26183912143E-01 -0.42234325595E-01 -0.10510610411E+00  0.11626215960E+00  0.51100000000E-03 0. -1.
</event>
<event>
 8    1  0.2922807E+004  0.1043930E+01  0.7957747E-01            NaN
         13   -1    0    0    0    0  0.00000000000E+00  0.00000000000E+00  0.74505805969E-08  0.10566000000E+00  0.10566000000E+00 0. -1.
     999900   -1    0    0    0    0 -0.00000000000E+00 -0.00000000000E+00 -0.74505805969E-08  0.93827000000E+00  0.93827000000E+00 0.  1.
     999902    2    1    2    0    0  0.31632343613E-02  0.10981560485E-01  0.56305600951E-02  0.10311901441E+01  0.10311114437E+01 0.  0.
     999903    2    3    3    0    0 -0.27449252993E-01 -0.18204070560E-01 -0.12792601156E+00  0.14010861958E+00  0.46695943860E-01 0.  0.
         14    1    1    2    0    0 -0.31632343613E-02 -0.10981560485E-01 -0.56305600951E-02  0.12739855937E-01  0.00000000000E+00 0.  1.
     999901    1    3    3    0    0  0.30612487354E-01  0.29185631046E-01  0.13355657165E+00  0.89108152448E+00  0.88000000000E+00 0. -1.
        -11    1    4    4    0    0  0.12885607344E-01 -0.13371587589E-02 -0.37253150196E-01  0.39444710554E-01  0.51100000000E-03 0.  1.
         11    1    4    4    0    0 -0.40334860336E-01 -0.16866911802E-01 -0.90672861361E-01  0.10066390903E+00  0.51100000000E-03 0. -1.
</event>
<event>
 8    1  0.2922807E+004  0.1043930E+01  0.7957747E-01            NaN
         13   -1    0    0    0    0  0.00000000000E+00  0.00000000000E+00  0.74505805969E-08  0.10566000000E+00  0.10566000000E+00 0. -1.
     999900   -1    0    0    0    0 -0.00000000000E+00 -0.00000000000E+00 -0.74505805969E-08  0.93827000000E+00  0.93827000000E+00 0. -1.
     999902    2    1    2    0    0 -0.66307316908E-02  0.17633345958E-02  0.10750229387E-01  0.10311768285E+01  0.10310979625E+01 0.  0.
     999903    2    3    3    0    0  0.36464909435E-01  0.96813386594E-02 -0.12604732074E+00  0.13953031849E+00  0.46447440980E-01 0.  0.
         14    1    1    2    0    0  0.66307316908E-02 -0.17633345958E-02 -0.10750229387E-01  0.12753171509E-01  0.00000000000E+00 0.  1.
     999901    1    3    3    0    0 -0.43095641126E-01 -0.79180040636E-02  0.13679755013E+00  0.89164651000E+00  0.88000000000E+00 0.  1.
        -11    1    4    4    0    0 -0.96993391529E-02  0.37000185033E-02 -0.97065750226E-02  0.14221323307E-01  0.51100000000E-03 0.  1.
         11    1    4    4    0    0  0.46164248588E-01  0.59813201561E-02 -0.11634074572E+00  0.12530899519E+00  0.51100000000E-03 0. -1.
</event>
<event>
 8    1  0.2922807E+004  0.1043930E+01  0.7957747E-01            NaN
         13   -1    0    0    0    0  0.00000000000E+00  0.00000000000E+00  0.74505805969E-08  0.10566000000E+00  0.10566000000E+00 0. -1.
     999900   -1    0    0    0    0 -0.00000000000E+00 -0.00000000000E+00 -0.74505805969E-08  0.93827000000E+00  0.93827000000E+00 0. -1.
     999902    2    1    2    0    0 -0.45886119740E-03 -0.64660396038E-02 -0.12611656489E-01  0.10297499400E+01  0.10296523029E+01 0.  0.
     999903    2    3    3    0    0  0.12321651547E+00 -0.46975335938E-01 -0.18198739878E-01  0.14016137366E+00  0.43875103015E-01 0.  0.
         14    1    1    2    0    0  0.45886119740E-03  0.64660396038E-02  0.12611656489E-01  0.14180059984E-01  0.00000000000E+00 0. -1.
     999901    1    3    3    0    0 -0.12367537666E+00  0.40509296334E-01  0.55870833888E-02  0.88958856635E+00  0.88000000000E+00 0. -1.
        -11    1    4    4    0    0  0.37734370131E-01 -0.93920829969E-02  0.14079622679E-01  0.41359289259E-01  0.51100000000E-03 0.  1.
         11    1    4    4    0    0  0.85482145334E-01 -0.37583252941E-01 -0.32278362557E-01  0.98802084406E-01  0.51100000000E-03 0. -1.
</event>
<event>
 8    1  0.2922807E+004  0.1043930E+01  0.7957747E-01            NaN
         13   -1    0    0    0    0  0.00000000000E+00  0.00000000000E+00  0.74505805969E-08  0.10566000000E+00  0.10566000000E+00 0.  1.
     999900   -1    0    0    0    0 -0.00000000000E+00 -0.00000000000E+00 -0.74505805969E-08  0.93827000000E+00  0.93827000000E+00 0.  1.
     999902    2    1    2    0    0 -0.69246401201E-02 -0.94484417507E-02  0.90323781237E-02  0.10291378552E+01  0.10290315435E+01 0.  0.
     999903    2    3    3    0    0  0.15524233928E-01 -0.11850563285E+00 -0.56454060977E-01  0.13970775872E+00  0.45239473789E-01 0.  0.
         14    1    1    2    0    0  0.69246401201E-02  0.94484417507E-02 -0.90323781237E-02  0.14792144769E-01  0.00000000000E+00 0. -1.
     999901    1    3    3    0    0 -0.22448874048E-01  0.10905719110E+00  0.65486439101E-01  0.88943009651E+00  0.88000000000E+00 0. -1.
        -11    1    4    4    0    0 -0.14951902463E-01 -0.31575633364E-01 -0.22356950071E-01  0.41481011885E-01  0.51100000000E-03 0.  1.
         11    1    4    4    0    0  0.30476136390E-01 -0.86929999487E-01 -0.34097110906E-01  0.98226746832E-01  0.51100000000E-03 0. -1.
</event>
<event>
 8    1  0.2922807E+004  0.1043930E+01  0.7957747E-01            NaN
         13   -1    0    0    0    0  0.00000000000E+00  0.00000000000E+00  0.74505805969E-08  0.10566000000E+00  0.10566000000E+00 0.  1.
     999900   -1    0    0    0    0 -0.00000000000E+00 -0.00000000000E+00 -0.74505805969E-08  0.93827000000E+00  0.93827000000E+00 0. -1.
     999902    2    1    2    0    0 -0.57010576792E-02  0.63609299198E-03 -0.13218816422E-01  0.10295201499E+01  0.10294193000E+01 0.  0.
     999903    2    3    3    0    0  0.31156829303E-01  0.35375357180E-01 -0.12491373229E+00  0.14101518391E+00  0.45383671865E-01 0.  0.
         14    1    1    2    0    0  0.57010576792E-02 -0.63609299198E-03  0.13218816422E-01  0.14409850123E-01  0.00000000000E+00 0.  1.
     999901    1    3    3    0    0 -0.36857886982E-01 -0.34739264188E-01  0.11169491587E+00  0.88850496596E+00  0.88000000000E+00 0.  1.
        -11    1    4    4    0    0 -0.86135315030E-02  0.94924420045E-02 -0.87377059659E-02  0.15521211509E-01  0.51100000000E-03 0.  1.
         11    1    4    4    0    0  0.39770360806E-01  0.25882915176E-01 -0.11617602632E+00  0.12549397241E+00  0.51100000000E-03 0. -1.
</event>
<event>
 8    1  0.2922807E+004  0.1043930E+01  0.7957747E-01            NaN
         13   -1    0    0    0    0  0.00000000000E+00  0.00000000000E+00  0.74505805969E-08  0.10566000000E+00  0.10566000000E+00 0.  1.
     999900   -1    0    0    0    0 -0.00000000000E+00 -0.00000000000E+00 -0.74505805969E-08  0.93827000000E+00  0.93827000000E+00 0. -1.
     999902    2    1    2    0    0  0.64892665579E-02  0.11025583880E-02  0.14889132330E-01  0.10276507962E+01  0.10275218472E+01 0.  0.
     999903    2    3    3    0    0  0.80619612638E-01 -0.10298719449E+00  0.52105326326E-02  0.13836813012E+00  0.44863187715E-01 0.  0.
         14    1    1    2    0    0 -0.64892665579E-02 -0.11025583880E-02 -0.14889132330E-01  0.16279203820E-01  0.00000000000E+00 0. -1.
     999901    1    3    3    0    0 -0.74130346081E-01  0.10408975288E+00  0.96785996974E-02  0.88928266606E+00  0.88000000000E+00 0.  1.
        -11    1    4    4    0    0  0.71558949449E-01 -0.58418824378E-01  0.84885752609E-02  0.92767231924E-01  0.51100000000E-03 0. -1.
         11    1    4    4    0    0  0.90606631891E-02 -0.44568370111E-01 -0.32780426282E-02  0.45600898195E-01  0.51100000000E-03 0.  1.
</event>
<event>
 8    1  0.2922807E+004  0.1043930E+01  0.7957747E-01            NaN
         13   -1    0    0    0    0  0.00000000000E+00  0.00000000000E+00  0.74505805969E-08  0.10566000000E+00  0.10566000000E+00 0.  1.
     999900   -1    0    0    0    0 -0.00000000000E+00 -0.00000000000E+00 -0.74505805969E-08  0.93827000000E+00  0.93827000000E+00 0.  1.
     999902    2    1    2    0    0 -0.30968138284E-02 -0.59837846592E-02 -0.12163258280E-01  0.10300252962E+01  0.10299314395E+01 0.  0.
     999903    2    3    3    0    0 -0.55221493913E-01  0.66154092262E-01 -0.10245652153E+00  0.14093940109E+00  0.44054496512E-01 0.  0.
         14    1    1    2    0    0  0.30968138284E-02  0.59837846592E-02  0.12163258280E-01  0.13904703762E-01  0.00000000000E+00 0.  1.
     999901    1    3    3    0    0  0.52124680085E-01 -0.72137876921E-01  0.90293263249E-01  0.88908589515E+00  0.88000000000E+00 0. -1.
        -11    1    4    4    0    0 -0.18155822986E-01 -0.57299641728E-04 -0.34895056937E-01  0.39339081219E-01  0.51100000000E-03 0.  1.
         11    1    4    4    0    0 -0.37065670927E-01  0.66211391904E-01 -0.67561464592E-01  0.10160031987E+00  0.51100000000E-03 0. -1.
</event>
<event>
 8    1  0.2922807E+004  0.1043930E+01  0.7957747E-01            NaN
         13   -1    0    0    0    0  0.00000000000E+00  0.00000000000E+00  0.74505805969E-08  0.10566000000E+00  0.10566000000E+00 0. -1.
     999900   -1    0    0    0    0 -0.00000000000E+00 -0.00000000000E+00 -0.74505805969E-08  0.93827000000E+00  0.93827000000E+00 0.  1.
     999902    2    1    2    0    0  0.72142998179E-02 -0.99541388408E-02  0.71766158652E-02  0.10296950143E+01  0.10295966141E+01 0.  0.
     999903    2    3    3    0    0 -0.66240222125E-01  0.13321969583E-01  0.11357189227E+00  0.13994375759E+00  0.46048221179E-01 0.  0.
         14    1    1    2    0    0 -0.72142998179E-02  0.99541388408E-02 -0.71766158652E-02  0.14234985676E-01  0.00000000000E+00 0.  1.
     999901    1    3    3    0    0  0.73454521943E-01 -0.23276108424E-01 -0.10639527641E+00  0.88975125673E+00  0.88000000000E+00 0.  1.
        -11    1    4    4    0    0 -0.34838123637E-01 -0.16411506818E-01  0.54185522882E-01  0.66478300412E-01  0.51100000000E-03 0.  1.
         11    1    4    4    0    0 -0.31402098488E-01  0.29733476401E-01  0.59386369389E-01  0.73465457179E-01  0.51100000000E-03 0. -1.
</event>
<event>
 7    1  0.2922807E+004  0.1043930E+01  0.7957747E-01            NaN
         13   -1    0    0    0    0  0.00000000000E+00  0.00000000000E+00  0.74505805969E-08  0.10566000000E+00  0.10566000000E+00 0. -1.
     999900   -1    0    0    0    0 -0.00000000000E+00 -0.00000000000E+00 -0.74505805969E-08  0.93827000000E+00  0.93827000000E+00 0.  1.
     999903    2    1    2    0    0  0.37333348127E-01 -0.51540465029E-01  0.93911156193E-01  0.12165577718E+00  0.43938871685E-01 0.  0.
         14    1    1    2    0    0  0.27165368555E-01  0.68183804846E-02  0.15534978707E-01  0.32027849203E-01  0.00000000000E+00 0. -1.
     999901    1    1    2    0    0 -0.64498716682E-01  0.44722084544E-01 -0.10944613490E+00  0.89024637362E+00  0.88000000000E+00 0.  1.
        -11    1    3    3    0    0  0.19355184762E-01 -0.41440811821E-01  0.89574926990E-01  0.10057779441E+00  0.51100000000E-03 0. -1.
         11    1    3    3    0    0  0.17978163365E-01 -0.10099653208E-01  0.43362292038E-02  0.21077982769E-01  0.51100000000E-03 0.  1.
</event>
<event>
 8    1  0.2922807E+004  0.1043930E+01  0.7957747E-01            NaN
         13   -1    0    0    0    0  0.00000000000E+00  0.00000000000E+00  0.74505805969E-08  0.10566000000E+00  0.10566000000E+00 0. -1.
     999900   -1    0    0    0    0 -0.00000000000E+00 -0.00000000000E+00 -0.74505805969E-08  0.93827000000E+00  0.93827000000E+00 0.  1.
     999902    2    1    2    0    0  0.10077212930E-01  0.81359457336E-02 -0.17815791108E-03  0.10309771789E+01  0.10308958085E+01 0.  0.
     999903    2    3    3    0    0  0.39457519942E-01  0.12579346535E+00  0.29116726198E-01  0.14217760389E+00  0.44562265414E-01 0.  0.
         14    1    1    2    0    0 -0.10077212930E-01 -0.81359457336E-02  0.17815791108E-03  0.12952821069E-01  0.00000000000E+00 0.  1.
     999901    1    3    3    0    0 -0.29380307013E-01 -0.11765751961E+00 -0.29294884109E-01  0.88879957504E+00  0.88000000000E+00 0.  1.
        -11    1    4    4    0    0  0.16648504817E-01  0.86806677453E-02  0.10198216466E-01  0.21372679880E-01  0.51100000000E-03 0.  1.
         11    1    4    4    0    0  0.22809015125E-01  0.11711279760E+00  0.18918509731E-01  0.12080492401E+00  0.51100000000E-03 0. -1.
</event>
<event>
 8    1  0.2922807E+004  0.1043930E+01  0.7957747E-01            NaN
         13   -1    0    0    0    0  0.00000000000E+00  0.00000000000E+00  0.74505805969E-08  0.10566000000E+00  0.10566000000E+00 0.  1.
     999900   -1    0    0    0    0 -0.00000000000E+00 -0.00000000000E+00 -0.74505805969E-08  0.93827000000E+00  0.93827000000E+00 0. -1.
     999902    2    1    2    0    0  0.11234862690E-01  0.37994516139E-02  0.51771890775E-02  0.10309893177E+01  0.10309081006E+01 0.  0.
     999903    2    3    3    0    0 -0.60260920744E-01  0.11801404530E+00  0.14235180753E-01  0.14068674682E+00  0.45071353462E-01 0.  0.
         14    1    1    2    0    0 -0.11234862690E-01 -0.37994516139E-02 -0.51771890775E-02  0.12940682323E-01  0.00000000000E+00 0. -1.
     999901    1    3    3    0    0  0.71495783434E-01 -0.11421459369E+00 -0.90579916755E-02  0.89030257086E+00  0.88000000000E+00 0. -1.
        -11    1    4    4    0    0 -0.11206600455E-02  0.17075908034E-01  0.16358018857E-01  0.23678860109E-01  0.51100000000E-03 0. -1.
         11    1    4    4    0    0 -0.59140260699E-01  0.10093813727E+00 -0.21228381038E-02  0.11700788671E+00  0.51100000000E-03 0.  1.
</event>
<event>
 8    1  0.2922807E+004  0.1043930E+01  0.7957747E-01            NaN
         13   -1    0    0    0    0  0.00000000000E+00  0.00000000000E+00  0.74505805969E-08  0.10566000000E+00  0.10566000000E+00 0.  1.
     999900   -1    0    0    0    0 -0.00000000000E+00 -0.00000000000E+00 -0.74505805969E-08  0.93827000000E+00  0.93827000000E+00 0. -1.
     999902    2    1    2    0    0  0.39381902181E-02  0.37460896380E-02  0.12674988414E-01  0.10301387759E+01  0.10300464552E+01 0.  0.
     999903    2    3    3    0    0  0.11005821214E-01 -0.56267382363E-01 -0.11827270568E+00  0.13839953893E+00  0.43345738532E-01 0.  0.
         14    1    1    2    0    0 -0.39381902181E-02 -0.37460896380E-02 -0.12674988414E-01  0.13791224059E-01  0.00000000000E+00 0.  1.
     999901    1    3    3    0    0 -0.70676309957E-02  0.60013472001E-01  0.13094769410E+00  0.89173923701E+00  0.88000000000E+00 0.  1.
        -11    1    4    4    0    0 -0.12137549445E-01 -0.24572332559E-01 -0.75628397718E-01  0.80442745454E-01  0.51100000000E-03 0.  1.
         11    1    4    4    0    0  0.23143370659E-01 -0.31695049804E-01 -0.42644307965E-01  0.57956793479E-01  0.51100000000E-03 0. -1.
</event>
<event>
 8    1  0.2922807E+004  0.1043930E+01  0.7957747E-01            NaN
         13   -1    0    0    0    0  0.00000000000E+00  0.00000000000E+00  0.74505805969E-08  0.10566000000E+00  0.10566000000E+00 0.  1.
     999900   -1    0    0    0    0 -0.00000000000E+00 -0.00000000000E+00 -0.74505805969E-08  0.93827000000E+00  0.93827000000E+00 0. -1.
     999902    2    1    2    0    0 -0.88738208057E-02 -0.53922389198E-02 -0.93566876442E-02  0.10299525703E+01  0.10298577225E+01 0.  0.
     999903    2    3    3    0    0  0.52743353721E-01  0.98147450192E-01  0.68918716030E-01  0.13830006951E+00  0.44298267072E-01 0.  0.
         14    1    1    2    0    0  0.88738208057E-02  0.53922389198E-02  0.93566876442E-02  0.13977429661E-01  0.00000000000E+00 0.  1.
     999901    1    3    3    0    0 -0.61617174527E-01 -0.10353968911E+00 -0.78275403675E-01  0.89165250083E+00  0.88000000000E+00 0. -1.
        -11    1    4    4    0    0  0.27767234852E-01  0.82422159383E-01  0.64875298989E-01  0.10850574745E+00  0.51100000000E-03 0.  1.
         11    1    4    4    0    0  0.24976118869E-01  0.15725290809E-01  0.40434170411E-02  0.29794322062E-01  0.51100000000E-03 0. -1.
</event>
<event>
 8    1  0.2922807E+004  0.1043930E+01  0.7957747E-01            NaN
         13   -1    0    0    0    0  0.00000000000E+00  0.00000000000E+00  0.74505805969E-08  0.10566000000E+00  0.10566000000E+00 0. -1.
     999900   -1    0    0    0    0 -0.00000000000E+00 -0.00000000000E+00 -0.74505805969E-08  0.93827000000E+00  0.93827000000E+00 0.  1.
     999902    2    1    2    0    0  0.13103520232E-01 -0.14419963791E-03  0.63853072056E-02  0.10293527854E+01  0.10292495624E+01 0.  0.
     999903    2    3    3    0    0  0.57969115367E-01  0.99765883760E-01 -0.64743344695E-01  0.13971565070E+00  0.44890004131E-01 0.  0.
         14    1    1    2    0    0 -0.13103520232E-01  0.14419963791E-03 -0.63853072056E-02  0.14577214553E-01  0.00000000000E+00 0.  1.
     999901    1    3    3    0    0 -0.44865595134E-01 -0.99910083398E-01  0.71128651900E-01  0.88963713474E+00  0.88000000000E+00 0. -1.
        -11    1    4    4    0    0  0.36289225885E-01  0.72352588025E-01 -0.20816060361E-01  0.83578552268E-01  0.51100000000E-03 0. -1.
         11    1    4    4    0    0  0.21679889482E-01  0.27413295734E-01 -0.43927284334E-01  0.56137098437E-01  0.51100000000E-03 0.  1.
</event>
<event>
 8    1  0.2922807E+004  0.1043930E+01  0.7957747E-01            NaN
         13   -1    0    0    0    0  0.00000000000E+00  0.00000000000E+00  0.74505805969E-08  0.10566000000E+00  0.10566000000E+00 0. -1.
     999900   -1    0    0    0    0 -0.00000000000E+00 -0.00000000000E+00 -0.74505805969E-08  0.93827000000E+00  0.93827000000E+00 0.  1.
     999902    2    1    2    0    0  0.12932613205E-01  0.43590421974E-03 -0.22064015120E-02  0.10308032828E+01  0.10307196986E+01 0.  0.
     999903    2    3    3    0    0  0.49870402311E-01 -0.91216461365E-01 -0.85574290908E-01  0.14135695988E+00  0.43027096002E-01 0.  0.
         14    1    1    2    0    0 -0.12932613205E-01 -0.43590421974E-03  0.22064015120E-02  0.13126717200E-01  0.00000000000E+00 0.  1.
     999901    1    3    3    0    0 -0.36937789106E-01  0.91652365584E-01  0.83367889396E-01  0.88944632292E+00  0.88000000000E+00 0. -1.
        -11    1    4    4    0    0  0.48442568197E-01 -0.44605983024E-01 -0.48680600216E-01  0.81892845190E-01  0.51100000000E-03 0.  1.
         11    1    4    4    0    0  0.14278341147E-02 -0.46610478341E-01 -0.36893690693E-01  0.59464114686E-01  0.51100000000E-03 0. -1.
</event>
<event>
 8    1  0.2922807E+004  0.1043930E+01  0.7957747E-01            NaN
         13   -1    0    0    0    0  0.00000000000E+00  0.00000000000E+00  0.74505805969E-08  0.10566000000E+00  0.10566000000E+00 0. -1.
     999900   -1    0    0    0    0 -0.00000000000E+00 -0.00000000000E+00 -0.74505805969E-08  0.93827000000E+00  0.93827000000E+00 0. -1.
     999902    2    1    2    0    0 -0.10657317507E-01 -0.75036029604E-02 -0.58450204591E-02  0.10296455071E+01  0.10295464164E+01 0.  0.
     999903    2    3    3    0    0 -0.28012797672E-01  0.30842911053E-01  0.12493409656E+00  0.13898572620E+00  0.44412854101E-01 0.  0.
         14    1    1    2    0    0  0.10657317507E-01  0.75036029604E-02  0.58450204591E-02  0.14284492920E-01  0.00000000000E+00 0.  1.
     999901    1    3    3    0    0  0.17355480165E-01 -0.38346514013E-01 -0.13077911702E+00  0.89065978088E+00  0.88000000000E+00 0. -1.
        -11    1    4    4    0    0 -0.53395503533E-02  0.36297438408E-01  0.64494225907E-01  0.74200951000E-01  0.51100000000E-03 0.  1.
         11    1    4    4    0    0 -0.22673247318E-01 -0.54545273551E-02  0.60439870649E-01  0.64784775200E-01  0.51100000000E-03 0. -1.
</event>
<event>
 8    1  0.2922807E+004  0.1043930E+01  0.7957747E-01            NaN
         13   -1    0    0    0    0  0.00000000000E+00  0.00000000000E+00  0.74505805969E-08  0.10566000000E+00  0.10566000000E+00 0.  1.
     999900   -1    0    0    0    0 -0.00000000000E+00 -0.00000000000E+00 -0.74505805969E-08  0.93827000000E+00  0.93827000000E+00 0.  1.
     999902    2    1    2    0    0  0.13092394878E-01 -0.16394421838E-02  0.76323623513E-02  0.10286869186E+01  0.10285739765E+01 0.  0.
     999903    2    3    3    0    0 -0.10584885759E+00 -0.27865672674E-01 -0.68824004198E-01  0.13701410158E+00  0.45339211624E-01 0.  0.
         14    1    1    2    0    0 -0.13092394878E-01  0.16394421838E-02 -0.76323623513E-02  0.15243081361E-01  0.00000000000E+00 0. -1.
     999901    1    3    3    0    0  0.11894125246E+00  0.26226230490E-01  0.76456366550E-01  0.89167281706E+00  0.88000000000E+00 0.  1.
        -11    1    4    4    0    0 -0.38316014972E-01  0.71477975958E-02 -0.39474588676E-01  0.55477133000E-01  0.51100000000E-03 0. -1.
         11    1    4    4    0    0 -0.67532842615E-01 -0.35013470270E-01 -0.29349415523E-01  0.81536968575E-01  0.51100000000E-03 0.  1.
</event>
<event>
 8    1  0.2922807E+004  0.1043930E+01  0.7957747E-01            NaN
         13   -1    0    0    0    0  0.00000000000E+00  0.00000000000E+00  0.74505805969E-08  0.10566000000E+00  0.10566000000E+00 0.  1.
     999900   -1    0    0    0    0 -0.00000000000E+00 -0.00000000000E+00 -0.74505805969E-08  0.93827000000E+00  0.93827000000E+00 0. -1.
     999902    2    1    2    0    0  0.37620401205E-02  0.11389348842E-01 -0.74006775702E-02  0.10298360211E+01  0.10297395739E+01 0.  0.
     999903    2    3    3    0    0 -0.80200748597E-01 -0.10182582987E+00 -0.19749505960E-01  0.13853364808E+00  0.44731073764E-01 0.  0.
         14    1    1    2    0    0 -0.37620401205E-02 -0.11389348842E-01  0.74006775702E-02  0.14093978906E-01  0.00000000000E+00 0. -1.
     999901    1    3    3    0    0  0.83962788717E-01  0.11321517871E+00  0.12348828390E-01  0.89130237302E+00  0.88000000000E+00 0. -1.
        -11    1    4    4    0    0 -0.42518694483E-01 -0.29332567915E-01 -0.23483473677E-01  0.56744811023E-01  0.51100000000E-03 0.  1.
         11    1    4    4    0    0 -0.37682054114E-01 -0.72493261954E-01  0.37339677169E-02  0.81788837056E-01  0.51100000000E-03 0. -1.
</event>
<event>
 8    1  0.2922807E+004  0.1043930E+01  0.7957747E-01            NaN
         13   -1    0    0    0    0  0.00000000000E+00  0.00000000000E+00  0.74505805969E-08  0.10566000000E+00  0.10566000000E+00 0.  1.
     999900   -1    0    0    0    0 -0.00000000000E+00 -0.00000000000E+00 -0.74505805969E-08  0.93827000000E+00  0.93827000000E+00 0. -1.
     999902    2    1    2    0    0 -0.11621362974E-02 -0.98040841454E-02  0.15341598731E-01  0.10256862263E+01  0.10255239634E+01 0.  0.
     999903    2    3    3    0    0 -0.44576636463E-01  0.70955149872E-01 -0.94611090166E-01  0.13411656190E+00  0.44880775195E-01 0.  0.
         14    1    1    2    0    0  0.11621362974E-02  0.98040841454E-02 -0.15341598731E-01  0.18243773687E-01  0.00000000000E+00 0. -1.
     999901    1    3    3    0    0  0.43414500166E-01 -0.80759234017E-01  0.10995268890E+00  0.89156966441E+00  0.88000000000E+00 0.  1.
        -11    1    4    4    0    0 -0.17302812982E-01  0.53419600114E-01 -0.81864209550E-01  0.99272609212E-01  0.51100000000E-03 0. -1.
         11    1    4    4    0    0 -0.27273823481E-01  0.17535549758E-01 -0.12746880616E-01  0.34843952689E-01  0.51100000000E-03 0.  1.
</event>
<event>
 8    1  0.2922807E+004  0.1043930E+01  0.7957747E-01            NaN
         13   -1    0    0    0    0  0.00000000000E+00  0.00000000000E+00  0.74505805969E-08  0.10566000000E+00  0.10566000000E+00 0. -1.
     999900   -1    0    0    0    0 -0.00000000000E+00 -0.00000000000E+00 -0.74505805969E-08  0.93827000000E+00  0.93827000000E+00 0.  1.
     999902    2    1    2    0    0  0.12019507546E-01  0.12048776866E-02  0.19654005965E-02  0.10316914097E+01  0.10316188162E+01 0.  0.
     999903    2    3    3    0    0  0.10535323117E+00  0.19153479618E-01  0.88457588294E-01  0.14235781946E+00  0.31222503680E-01 0.  0.
         14    1    1    2    0    0 -0.12019507546E-01 -0.12048776866E-02 -0.19654005965E-02  0.12238590254E-01  0.00000000000E+00 0.  1.
     999901    1    3    3    0    0 -0.93333723622E-01 -0.17948601931E-01 -0.86492187697E-01  0.88933359028E+00  0.88000000000E+00 0.  1.
        -11    1    4    4    0    0  0.13554865599E-01  0.16797181865E-02 -0.21258208830E-04  0.13668116458E-01  0.51100000000E-03 0. -1.
         11    1    4    4    0    0  0.91798365569E-01  0.17473761431E-01  0.88478846503E-01  0.12868970300E+00  0.51100000000E-03 0.  1.
</event>
<event>
 8    1  0.2922807E+004  0.1043930E+01  0.7957747E-01            NaN
         13   -1    0    0    0    0  0.00000000000E+00  0.00000000000E+00  0.74505805969E-08  0.10566000000E+00  0.10566000000E+00 0.  1.
     999900   -1    0    0    0    0 -0.00000000000E+00 -0.00000000000E+00 -0.74505805969E-08  0.93827000000E+00  0.93827000000E+00 0.  1.
     999902    2    1    2    0    0  0.26566874087E-04  0.11911177678E-01 -0.70517386694E-02  0.10300878948E+01  0.10299948869E+01 0.  0.
     999903    2    3    3    0    0 -0.13061827324E+00  0.16859408531E-01  0.16491239970E-01  0.14011776543E+00  0.44896038074E-01 0.  0.
         14    1    1    2    0    0 -0.26566874087E-04 -0.11911177678E-01  0.70517386694E-02  0.13842105250E-01  0.00000000000E+00 0. -1.
     999901    1    3    3    0    0  0.13064484011E+00 -0.49482308533E-02 -0.23542978639E-01  0.88997012932E+00  0.88000000000E+00 0. -1.
        -11    1    4    4    0    0 -0.87518651936E-01  0.24242288149E-01  0.27751211864E-01  0.94961012275E-01  0.51100000000E-03 0. -1.
         11    1    4    4    0    0 -0.43099621300E-01 -0.73828796172E-02 -0.11259971894E-01  0.45156753157E-01  0.51100000000E-03 0.  1.
</event>
<event>
 8    1  0.2922807E+004  0.1043930E+01  0.7957747E-01            NaN
         13   -1    0    0    0    0  0.00000000000E+00  0.00000000000E+00  0.74505805969E-08  0.10566000000E+00  0.10566000000E+00 0.  1.
     999900   -1    0    0    0    0 -0.00000000000E+00 -0.00000000000E+00 -0.74505805969E-08  0.93827000000E+00  0.93827000000E+00 0. -1.
     999902    2    1    2    0    0  0.12671903594E-01 -0.49874234906E-02 -0.20173109525E-02  0.10301633346E+01  0.10300713445E+01 0.  0.
     999903    2    3    3    0    0  0.58500230233E-01 -0.51543673625E-02 -0.11987899595E+00  0.14112360531E+00  0.45782680865E-01 0.  0.
         14    1    1    2    0    0 -0.12671903594E-01  0.49874234906E-02  0.20173109525E-02  0.13766665437E-01  0.00000000000E+00 0. -1.
     999901    1    3    3    0    0 -0.45828326639E-01  0.16694387188E-03  0.11786168500E+00  0.88903972925E+00  0.88000000000E+00 0.  1.
        -11    1    4    4    0    0  0.18773139620E-01  0.17060088011E-01 -0.65290041068E-01  0.70046612751E-01  0.51100000000E-03 0.  1.
         11    1    4    4    0    0  0.39727090612E-01 -0.22214455373E-01 -0.54588954880E-01  0.71076992564E-01  0.51100000000E-03 0. -1.
</event>
<event>
 7    1  0.2922807E+004  0.1043930E+01  0.7957747E-01            NaN
         13   -1    0    0    0    0  0.00000000000E+00  0.00000000000E+00  0.74505805969E-08  0.10566000000E+00  0.10566000000E+00 0.  1.
     999900   -1    0    0    0    0 -0.00000000000E+00 -0.00000000000E+00 -0.74505805969E-08  0.93827000000E+00  0.93827000000E+00 0.  1.
     999903    2    1    2    0    0  0.25584017952E-01 -0.28391063244E-01  0.73391606888E-01  0.94582126134E-01  0.45813275105E-01 0.  0.
         14    1    1    2    0    0 -0.35984316371E-01 -0.26372978295E-01 -0.50365374094E-01  0.67283548632E-01  0.00000000000E+00 0. -1.
     999901    1    1    2    0    0  0.10400298420E-01  0.54764041539E-01 -0.23026232793E-01  0.88206432523E+00  0.88000000000E+00 0. -1.
        -11    1    3    3    0    0  0.83912293740E-02 -0.10780831182E-01  0.68027925180E-01  0.69388030500E-01  0.51100000000E-03 0.  1.
         11    1    3    3    0    0  0.17192788578E-01 -0.17610232063E-01  0.53636817081E-02  0.25194095635E-01  0.51100000000E-03 0. -1.
</event>
<event>
 7    1  0.2922807E+004  0.1043930E+01  0.7957747E-01            NaN
         13   -1    0    0    0    0  0.00000000000E+00  0.00000000000E+00  0.74505805969E-08  0.10566000000E+00  0.10566000000E+00 0. -1.
     999900   -1    0    0    0    0 -0.00000000000E+00 -0.00000000000E+00 -0.74505805969E-08  0.93827000000E+00  0.93827000000E+00 0.  1.
     999903    2    1    2    0    0 -0.71755947197E-01 -0.63229629964E-01 -0.86966944039E-02  0.10615717344E+00  0.45241694451E-01 0.  0.
         14    1    1    2    0    0  0.72739735002E-02 -0.43433654301E-01 -0.20355306791E-01  0.48515271111E-01  0.00000000000E+00 0.  1.
     999901    1    1    2    0    0  0.64481973697E-01  0.10666328426E+00  0.29052001195E-01  0.88925755544E+00  0.88000000000E+00 0. -1.
        -11    1    3    3    0    0 -0.54564920888E-01 -0.23409290884E-01 -0.17490268014E-01  0.61899079859E-01  0.51100000000E-03 0.  1.
         11    1    3    3    0    0 -0.17191026308E-01 -0.39820339080E-01  0.87935736100E-02  0.44258093585E-01  0.51100000000E-03 0. -1.
</event>
<event>
 8    1  0.2922807E+004  0.1043930E+01  0.7957747E-01            NaN
         13   -1    0    0    0    0  0.00000000000E+00  0.00000000000E+00  0.74505805969E-08  0.10566000000E+00  0.10566000000E+00 0.  1.
     999900   -1    0    0    0    0 -0.00000000000E+00 -0.00000000000E+00 -0.74505805969E-08  0.93827000000E+00  0.93827000000E+00 0. -1.
     999902    2    1    2    0    0 -0.47074676697E-02 -0.38759692678E-02 -0.12603692430E-01  0.10299286982E+01  0.10298335239E+01 0.  0.
     999903    2    3    3    0    0 -0.18110798040E-02 -0.11761766525E+00  0.60317582667E-01  0.13961242021E+00  0.44902359722E-01 0.  0.
         14    1    1    2    0    0  0.47074676697E-02  0.38759692678E-02  0.12603692430E-01  0.14001301814E-01  0.00000000000E+00 0.  1.
     999901    1    3    3    0    0 -0.28963878656E-02  0.11374169598E+00 -0.72921275097E-01  0.89031627798E+00  0.88000000000E+00 0. -1.
        -11    1    4    4    0    0  0.15273507866E-01 -0.33404396601E-01  0.33175140469E-01  0.49497321351E-01  0.51100000000E-03 0. -1.
         11    1    4    4    0    0 -0.17084587670E-01 -0.84213268651E-01  0.27142442197E-01  0.90115098858E-01  0.51100000000E-03 0.  1.
</event>
<event>
 8    1  0.2922807E+004  0.1043930E+01  0.7957747E-01            NaN
         13   -1    0    0    0    0  0.00000000000E+00  0.00000000000E+00  0.74505805969E-08  0.10566000000E+00  0.10566000000E+00 0. -1.
     999900   -1    0    0    0    0 -0.00000000000E+00 -0.00000000000E+00 -0.74505805969E-08  0.93827000000E+00  0.93827000000E+00 0.  1.
     999902    2    1    2    0    0  0.14243808560E-01 -0.93819398801E-02 -0.30355947750E-02  0.10266059787E+01  0.10264597965E+01 0.  0.
     999903    2    3    3    0    0 -0.17331110665E-01  0.11134149467E+00  0.61959654126E-01  0.13542950597E+00  0.42483602902E-01 0.  0.
         14    1    1    2    0    0 -0.14243808560E-01  0.93819398801E-02  0.30355947750E-02  0.17324021296E-01  0.00000000000E+00 0.  1.
     999901    1    3    3    0    0  0.31574919226E-01 -0.12072343455E+00 -0.64995248901E-01  0.89117647273E+00  0.88000000000E+00 0. -1.
        -11    1    4    4    0    0 -0.23653289916E-01  0.74538233199E-01  0.23122320277E-01  0.81549550264E-01  0.51100000000E-03 0.  1.
         11    1    4    4    0    0  0.63221792502E-02  0.36803261472E-01  0.38837333849E-01  0.53879955706E-01  0.51100000000E-03 0. -1.
</event>
<event>
 8    1  0.2922807E+004  0.1043930E+01  0.7957747E-01            NaN
         13   -1    0    0    0    0  0.00000000000E+00  0.00000000000E+00  0.74505805969E-08  0.10566000000E+00  0.10566000000E+00 0. -1.
     999900   -1    0    0    0    0 -0.00000000000E+00 -0.00000000000E+00 -0.74505805969E-08  0.93827000000E+00  0.93827000000E+00 0. -1.
     999902    2    1    2    0    0 -0.63912615272E-02  0.55890172929E-03  0.12875735923E-01  0.10295444110E+01  0.10294439028E+01 0.  0.
     999903    2    3    3    0    0 -0.10425143613E+00  0.54309168264E-01 -0.59864229025E-01  0.13951249730E+00  0.45411048142E-01 0.  0.
         14    1    1    2    0    0  0.63912615272E-02 -0.55890172929E-03 -0.12875735923E-01  0.14385588991E-01  0.00000000000E+00 0.  1.
     999901    1    3    3    0    0  0.97860174599E-01 -0.53750266535E-01  0.72739964949E-01  0.89003191371E+00  0.88000000000E+00 0.  1.
        -11    1    4    4    0    0 -0.50090188045E-01  0.36817816493E-01 -0.53904785258E-01  0.82283446357E-01  0.51100000000E-03 0.  1.
         11    1    4    4    0    0 -0.54161248081E-01  0.17491351772E-01 -0.59594437669E-02  0.57229050940E-01  0.51100000000E-03 0. -1.
</event>
<event>
 8    1  0.2922807E+004  0.1043930E+01  0.7957747E-01            NaN
         13   -1    0    0    0    0  0.00000000000E+00  0.00000000000E+00  0.74505805969E-08  0.10566000000E+00  0.10566000000E+00 0.  1.
     999900   -1    0    0    0    0 -0.00000000000E+00 -0.00000000000E+00 -0.74505805969E-08  0.93827000000E+00  0.93827000000E+00 0. -1.
     999902    2    1    2    0    0 -0.96445162304E-02 -0.75842363655E-02  0.70183532781E-02  0.10297951276E+01  0.10296981161E+01 0.  0.
     999903    2    3    3    0    0 -0.70690296627E-01 -0.35727531331E-01  0.10864680099E+00  0.14139939725E+00  0.43773138381E-01 0.  0.
         14    1    1    2    0    0  0.96445162304E-02  0.75842363655E-02 -0.70183532781E-02  0.14134872384E-01  0.00000000000E+00 0. -1.
     999901    1    3    3    0    0  0.61045780397E-01  0.28143294966E-01 -0.10162844771E+00  0.88839573037E+00  0.88000000000E+00 0. -1.
        -11    1    4    4    0    0 -0.15820161147E-01 -0.28717221729E-02  0.56899483013E-01  0.59129828133E-01  0.51100000000E-03 0. -1.
         11    1    4    4    0    0 -0.54870135480E-01 -0.32855809158E-01  0.51747317978E-01  0.82269569113E-01  0.51100000000E-03 0.  1.
</event>
<event>
 8    1  0.2922807E+004  0.1043930E+01  0.7957747E-01            NaN
         13   -1    0    0    0    0  0.00000000000E+00  0.00000000000E+00  0.74505805969E-08  0.10566000000E+00  0.10566000000E+00 0. -1.
     999900   -1    0    0    0    0 -0.00000000000E+00 -0.00000000000E+00 -0.74505805969E-08  0.93827000000E+00  0.93827000000E+00 0. -1.
     999902    2    1    2    0    0 -0.53321415328E-02 -0.38659963261E-02 -0.12817764218E-01  0.10295191450E+01  0.10294182810E+01 0.  0.
     999903    2    3    3    0    0  0.13110343826E+00  0.76899925171E-02 -0.17648927568E-01  0.13891735499E+00  0.41704908182E-01 0.  0.
         14    1    1    2    0    0  0.53321415328E-02  0.38659963261E-02  0.12817764218E-01  0.14410854952E-01  0.00000000000E+00 0. -1.
     999901    1    3    3    0    0 -0.13643557979E+00 -0.11555988843E-01  0.48311633504E-02  0.89060179006E+00  0.88000000000E+00 0. -1.
        -11    1    4    4    0    0  0.45321307500E-01  0.22457571821E-01 -0.97526386218E-02  0.51514449689E-01  0.51100000000E-03 0.  1.
         11    1    4    4    0    0  0.85782130755E-01 -0.14767579304E-01 -0.78962889464E-02  0.87402905304E-01  0.51100000000E-03 0. -1.
</event>
<event>
 8    1  0.2922807E+004  0.1043930E+01  0.7957747E-01            NaN
         13   -1    0    0    0    0  0.00000000000E+00  0.00000000000E+00  0.74505805969E-08  0.10566000000E+00  0.10566000000E+00 0.  1.
     999900   -1    0    0    0    0 -0.00000000000E+00 -0.00000000000E+00 -0.74505805969E-08  0.93827000000E+00  0.93827000000E+00 0. -1.
     999902    2    1    2    0    0 -0.31096402666E-02 -0.10723474980E-01 -0.82145171342E-02  0.10300685040E+01  0.10299752337E+01 0.  0.
     999903    2    3    3    0    0  0.91215447652E-01  0.82054917519E-01 -0.47390310079E-01  0.13931612820E+00  0.45933372491E-01 0.  0.
         14    1    1    2    0    0  0.31096402666E-02  0.10723474980E-01  0.82145171342E-02  0.13861495950E-01  0.00000000000E+00 0.  1.
     999901    1    3    3    0    0 -0.94325087919E-01 -0.92778392499E-01  0.39175792945E-01  0.89075237585E+00  0.88000000000E+00 0.  1.
        -11    1    4    4    0    0  0.63928285885E-01  0.29176841584E-01 -0.16138404263E-01  0.72102864258E-01  0.51100000000E-03 0. -1.
         11    1    4    4    0    0  0.27287161767E-01  0.52878075935E-01 -0.31251905816E-01  0.67213263944E-01  0.51100000000E-03 0.  1.
</event>
<event>
 8    1  0.2922807E+004  0.1043930E+01  0.7957747E-01            NaN
         13   -1    0    0    0    0  0.00000000000E+00  0.00000000000E+00  0.74505805969E-08  0.10566000000E+00  0.10566000000E+00 0.  1.
     999900   -1    0    0    0    0 -0.00000000000E+00 -0.00000000000E+00 -0.74505805969E-08  0.93827000000E+00  0.93827000000E+00 0.  1.
     999902    2    1    2    0    0  0.11632319231E-01 -0.45107785334E-02 -0.13372865906E-01  0.10256408908E+01  0.10254778132E+01 0.  0.
     999903    2    3    3    0    0 -0.91107822587E-01  0.88869478414E-01 -0.94624788110E-02  0.13474768716E+00  0.43231714731E-01 0.  0.
         14    1    1    2    0    0 -0.11632319231E-01  0.45107785334E-02  0.13372865906E-01  0.18289109224E-01  0.00000000000E+00 0.  1.
     999901    1    3    3    0    0  0.10274014182E+00 -0.93380256948E-01 -0.39103870955E-02  0.89089320362E+00  0.88000000000E+00 0.  1.
        -11    1    4    4    0    0 -0.44786438545E-01  0.17855989180E-01  0.59100738327E-02  0.48578302985E-01  0.51100000000E-03 0. -1.
         11    1    4    4    0    0 -0.46321384042E-01  0.71013489234E-01 -0.15372552644E-01  0.86169384172E-01  0.51100000000E-03 0.  1.
</event>
<event>
 8    1  0.2922807E+004  0.1043930E+01  0.7957747E-01            NaN
         13   -1    0    0    0    0  0.00000000000E+00  0.00000000000E+00  0.74505805969E-08  0.10566000000E+00  0.10566000000E+00 0.  1.
     999900   -1    0    0    0    0 -0.00000000000E+00 -0.00000000000E+00 -0.74505805969E-08  0.93827000000E+00  0.93827000000E+00 0. -1.
     999902    2    1    2    0    0  0.11951609527E-01  0.72135947854E-02  0.28226444020E-02  0.10296876603E+01  0.10295891576E+01 0.  0.
     999903    2    3    3    0    0 -0.80199396438E-02 -0.12813552338E-01  0.13147693579E+00  0.13988325698E+00  0.45306008229E-01 0.  0.
         14    1    1    2    0    0 -0.11951609527E-01 -0.72135947854E-02 -0.28226444020E-02  0.14242339745E-01  0.00000000000E+00 0. -1.
     999901    1    3    3    0    0  0.19971549170E-01  0.20027147123E-01 -0.12865429139E+00  0.88980440328E+00  0.88000000000E+00 0. -1.
        -11    1    4    4    0    0 -0.87844520530E-02 -0.25533592178E-01  0.45085976987E-01  0.52556040273E-01  0.51100000000E-03 0. -1.
         11    1    4    4    0    0  0.76451240920E-03  0.12720039840E-01  0.86390958807E-01  0.87327216704E-01  0.51100000000E-03 0.  1.
</event>
<event>
 8    1  0.2922807E+004  0.1043930E+01  0.7957747E-01            NaN
         13   -1    0    0    0    0  0.00000000000E+00  0.00000000000E+00  0.74505805969E-08  0.10566000000E+00  0.10566000000E+00 0.  1.
     999900   -1    0    0    0    0 -0.00000000000E+00 -0.00000000000E+00 -0.74505805969E-08  0.93827000000E+00  0.93827000000E+00 0. -1.
     999902    2    1    2    0    0  0.13324410610E-01 -0.33060043093E-02  0.29460622604E-02  0.10298890290E+01  0.10297933109E+01 0.  0.
     999903    2    3    3    0    0  0.12461569319E+00  0.22975348253E-01 -0.35827676943E-01  0.14164364520E+00  0.52176260617E-01 0.  0.
         14    1    1    2    0    0 -0.13324410610E-01  0.33060043093E-02 -0.29460622604E-02  0.14040970958E-01  0.00000000000E+00 0. -1.
     999901    1    3    3    0    0 -0.11129128258E+00 -0.26281352563E-01  0.38773739203E-01  0.88824538385E+00  0.88000000000E+00 0.  1.
        -11    1    4    4    0    0  0.79810860131E-01  0.34761492600E-02 -0.45343005469E-01  0.91859165435E-01  0.51100000000E-03 0.  1.
         11    1    4    4    0    0  0.44804833062E-01  0.19499198993E-01  0.95153285259E-02  0.49784479761E-01  0.51100000000E-03 0. -1.
</event>
<event>
 8    1  0.2922807E+004  0.1043930E+01  0.7957747E-01            NaN
         13   -1    0    0    0    0  0.00000000000E+00  0.00000000000E+00  0.74505805969E-08  0.10566000000E+00  0.10566000000E+00 0. -1.
     999900   -1    0    0    0    0 -0.00000000000E+00 -0.00000000000E+00 -0.74505805969E-08  0.93827000000E+00  0.93827000000E+00 0. -1.
     999902    2    1    2    0    0 -0.12728867060E-01  0.56178558297E-02  0.15505095105E-01  0.10230975173E+01  0.10228853981E+01 0.  0.
     999903    2    3    3    0    0 -0.13392746408E-01 -0.14105331506E-02  0.12756361179E+00  0.13596339546E+00  0.45080090872E-01 0.  0.
         14    1    1    2    0    0  0.12728867060E-01 -0.56178558297E-02 -0.15505095105E-01  0.20832482689E-01  0.00000000000E+00 0.  1.
     999901    1    3    3    0    0  0.66387934796E-03  0.70283889803E-02 -0.11205851668E+00  0.88713412185E+00  0.88000000000E+00 0. -1.
        -11    1    4    4    0    0 -0.10440067560E-02  0.17041887477E-01  0.20803549960E-01  0.26917739333E-01  0.51100000000E-03 0. -1.
         11    1    4    4    0    0 -0.12348739652E-01 -0.18452420627E-01  0.10676006183E+00  0.10904565613E+00  0.51100000000E-03 0.  1.
</event>
<event>
 8    1  0.2922807E+004  0.1043930E+01  0.7957747E-01            NaN
         13   -1    0    0    0    0  0.00000000000E+00  0.00000000000E+00  0.74505805969E-08  0.10566000000E+00  0.10566000000E+00 0. -1.
     999900   -1    0    0    0    0 -0.00000000000E+00 -0.00000000000E+00 -0.74505805969E-08  0.93827000000E+00  0.93827000000E+00 0.  1.
     999902    2    1    2    0    0 -0.18318338343E-02 -0.16324592090E-02 -0.13949229119E-01  0.10297666130E+01  0.10296692069E+01 0.  0.
     999903    2    3    3    0    0 -0.33456684690E-01 -0.17504878327E-02 -0.12987163125E+00  0.14160100432E+00  0.45406936313E-01 0.  0.
         14    1    1    2    0    0  0.18318338343E-02  0.16324592090E-02  0.13949229119E-01  0.14163386998E-01  0.00000000000E+00 0. -1.
     999901    1    3    3    0    0  0.31624850855E-01  0.11802862374E-03  0.11592240213E+00  0.88816560868E+00  0.88000000000E+00 0. -1.
        -11    1    4    4    0    0 -0.60625430649E-02 -0.18964092403E-01 -0.77682159501E-01  0.80194577465E-01  0.51100000000E-03 0.  1.
         11    1    4    4    0    0 -0.27394141625E-01  0.17213604571E-01 -0.52189471744E-01  0.61406426859E-01  0.51100000000E-03 0. -1.
</event>
<event>
 8    1  0.2922807E+004  0.1043930E+01  0.7957747E-01            NaN
         13   -1    0    0    0    0  0.00000000000E+00  0.00000000000E+00  0.74505805969E-08  0.10566000000E+00  0.10566000000E+00 0.  1.
     999900   -1    0    0    0    0 -0.00000000000E+00 -0.00000000000E+00 -0.74505805969E-08  0.93827000000E+00  0.93827000000E+00 0.  1.
     999902    2    1    2    0    0 -0.12235567981E-02 -0.10688496926E-01 -0.88594489912E-02  0.10299933256E+01  0.10298990338E+01 0.  0.
     999903    2    3    3    0    0  0.94677321764E-01  0.28791207609E-01  0.86490907439E-01  0.13878778471E+00  0.44594206174E-01 0.  0.
         14    1    1    2    0    0  0.12235567981E-02  0.10688496926E-01  0.88594489912E-02  0.13936674431E-01  0.00000000000E+00 0. -1.
     999901    1    3    3    0    0 -0.95900878562E-01 -0.39479704535E-01 -0.95350356430E-01  0.89120554085E+00  0.88000000000E+00 0.  1.
        -11    1    4    4    0    0  0.71271909487E-01  0.31442499626E-01  0.42142869911E-01  0.88569737891E-01  0.51100000000E-03 0.  1.
         11    1    4    4    0    0  0.23405412277E-01 -0.26512920172E-02  0.44348037528E-01  0.50218046824E-01  0.51100000000E-03 0. -1.
</event>
<event>
 8    1  0.2922807E+004  0.1043930E+01  0.7957747E-01            NaN
         13   -1    0    0    0    0  0.00000000000E+00  0.00000000000E+00  0.74505805969E-08  0.10566000000E+00  0.10566000000E+00 0.  1.
     999900   -1    0    0    0    0 -0.00000000000E+00 -0.00000000000E+00 -0.74505805969E-08  0.93827000000E+00  0.93827000000E+00 0.  1.
     999902    2    1    2    0    0 -0.43321120954E-02 -0.86707784035E-02  0.87558813752E-02  0.10308680303E+01  0.10307852739E+01 0.  0.
     999903    2    3    3    0    0 -0.22618671182E-01 -0.22589852352E-01  0.13056736602E+00  0.14218013423E+00  0.46318978664E-01 0.  0.
         14    1    1    2    0    0  0.43321120954E-02  0.86707784035E-02 -0.87558813752E-02  0.13061969682E-01  0.00000000000E+00 0. -1.
     999901    1    3    3    0    0  0.18286559087E-01  0.13919073949E-01 -0.12181148465E+00  0.88868789609E+00  0.88000000000E+00 0.  1.
        -11    1    4    4    0    0  0.70322754847E-02 -0.25278784208E-01  0.54410750538E-01  0.60409111272E-01  0.51100000000E-03 0.  1.
         11    1    4    4    0    0 -0.29650946667E-01  0.26889318552E-02  0.76156615482E-01  0.81771022957E-01  0.51100000000E-03 0. -1.
</event>
<event>
 8    1  0.2922807E+004  0.1043930E+01  0.7957747E-01            NaN
         13   -1    0    0    0    0  0.00000000000E+00  0.00000000000E+00  0.74505805969E-08  0.10566000000E+00  0.10566000000E+00 0. -1.
     999900   -1    0    0    0    0 -0.00000000000E+00 -0.00000000000E+00 -0.74505805969E-08  0.93827000000E+00  0.93827000000E+00 0. -1.
     999902    2    1    2    0    0 -0.90117662060E-02 -0.70754871044E-03  0.10399898753E-01  0.10301506513E+01  0.10300584906E+01 0.  0.
     999903    2    3    3    0    0  0.89247850250E-01  0.96148837800E-01 -0.11802223273E-01  0.13912368988E+00  0.44792084420E-01 0.  0.
         14    1    1    2    0    0  0.90117662060E-02  0.70754871044E-03 -0.10399898753E-01  0.13779348657E-01  0.00000000000E+00 0.  1.
     999901    1    3    3    0    0 -0.98259616456E-01 -0.96856386510E-01  0.22202122026E-01  0.89102696146E+00  0.88000000000E+00 0.  1.
        -11    1    4    4    0    0  0.52186242698E-01  0.79459251657E-01  0.48655427638E-02  0.95189869357E-01  0.51100000000E-03 0.  1.
         11    1    4    4    0    0  0.37061607552E-01  0.16689586143E-01 -0.16667766037E-01  0.43933820522E-01  0.51100000000E-03 0. -1.
</event>
<event>
 8    1  0.2922807E+004  0.1043930E+01  0.7957747E-01            NaN
         13   -1    0    0    0    0  0.00000000000E+00  0.00000000000E+00  0.74505805969E-08  0.10566000000E+00  0.10566000000E+00 0.  1.
     999900   -1    0    0    0    0 -0.00000000000E+00 -0.00000000000E+00 -0.74505805969E-08  0.93827000000E+00  0.93827000000E+00 0. -1.
     999902    2    1    2    0    0  0.10843351206E-01  0.98784648856E-02  0.38871995514E-02  0.10287552626E+01  0.10286433384E+01 0.  0.
     999903    2    3    3    0    0  0.12021276995E+00  0.40163151950E-01  0.41221111023E-01  0.14068282585E+00  0.45036525848E-01 0.  0.
         14    1    1    2    0    0 -0.10843351206E-01 -0.98784648856E-02 -0.38871995514E-02  0.15174737369E-01  0.00000000000E+00 0. -1.
     999901    1    3    3    0    0 -0.10936941875E+00 -0.30284687064E-01 -0.37333911472E-01  0.88807243678E+00  0.88000000000E+00 0. -1.
        -11    1    4    4    0    0  0.42808395477E-01  0.35166912713E-01  0.67921372476E-02  0.55818139726E-01  0.51100000000E-03 0.  1.
         11    1    4    4    0    0  0.77404374475E-01  0.49962392372E-02  0.34428973776E-01  0.84864686122E-01  0.51100000000E-03 0. -1.
</event>
<event>
 8    1  0.2922807E+004  0.1043930E+01  0.7957747E-01            NaN
         13   -1    0    0    0    0  0.00000000000E+00  0.00000000000E+00  0.74505805969E-08  0.10566000000E+00  0.10566000000E+00 0. -1.
     999900   -1    0    0    0    0 -0.00000000000E+00 -0.00000000000E+00 -0.74505805969E-08  0.93827000000E+00  0.93827000000E+00 0. -1.
     999902    2    1    2    0    0 -0.18030142433E-02 -0.31620445804E-02 -0.29667273576E-02  0.10392341659E+01  0.10392235567E+01 0.  0.
     999903    2    3    3    0    0 -0.13976839406E+00  0.10504614939E-01 -0.18825627295E-01  0.14823880775E+00  0.44438597714E-01 0.  0.
         14    1    1    2    0    0  0.18030142433E-02  0.31620445804E-02  0.29667273576E-02  0.46958340584E-02  0.00000000000E+00 0. -1.
     999901    1    3    3    0    0  0.13796537982E+00 -0.13666659519E-01  0.15858899937E-01  0.89099535819E+00  0.88000000000E+00 0. -1.
        -11    1    4    4    0    0 -0.69777863512E-01 -0.52190331805E-02  0.10464559359E-01  0.70752785579E-01  0.51100000000E-03 0. -1.
         11    1    4    4    0    0 -0.69990530549E-01  0.15723648119E-01 -0.29290186654E-01  0.77486022171E-01  0.51100000000E-03 0.  1.
</event>
<event>
 7    1  0.2922807E+004  0.1043930E+01  0.7957747E-01            NaN
         13   -1    0    0    0    0  0.00000000000E+00  0.00000000000E+00  0.74505805969E-08  0.10566000000E+00  0.10566000000E+00 0.  1.
     999900   -1    0    0    0    0 -0.00000000000E+00 -0.00000000000E+00 -0.74505805969E-08  0.93827000000E+00  0.93827000000E+00 0.  1.
     999902    2    1    2    0    0 -0.10248901314E-01  0.90819405205E-02 -0.22207699007E-02  0.10300572411E+01  0.10299638180E+01 0.  0.
         14    1    1    2    0    0  0.10248901314E-01 -0.90819405205E-02  0.22207699007E-02  0.13872758944E-01  0.00000000000E+00 0.  1.
     999901    1    3    3    0    0 -0.95759286825E-01  0.10007066231E+00 -0.13742966373E-01  0.89093930635E+00  0.88000000000E+00 0.  1.
        -11    1    3    3    0    0  0.40397081915E-01 -0.57053178629E-01  0.34753120547E-01  0.78070672648E-01  0.51100000000E-03 0. -1.
         11    1    3    3    0    0  0.45113303596E-01 -0.33935543159E-01 -0.23230924075E-01  0.61047262062E-01  0.51100000000E-03 0.  1.
</event>
<event>
 8    1  0.2922807E+004  0.1043930E+01  0.7957747E-01            NaN
         13   -1    0    0    0    0  0.00000000000E+00  0.00000000000E+00  0.74505805969E-08  0.10566000000E+00  0.10566000000E+00 0.  1.
     999900   -1    0    0    0    0 -0.00000000000E+00 -0.00000000000E+00 -0.74505805969E-08  0.93827000000E+00  0.93827000000E+00 0.  1.
     999902    2    1    2    0    0 -0.54222362593E-02 -0.34747631862E-02  0.11613184814E-01  0.10306506669E+01  0.10305651151E+01 0.  0.
     999903    2    3    3    0    0  0.42386217376E-01 -0.50213525120E-01  0.11755196982E+00  0.14177880537E+00  0.44325777094E-01 0.  0.
         14    1    1    2    0    0  0.54222362593E-02  0.34747631862E-02 -0.11613184814E-01  0.13279333070E-01  0.00000000000E+00 0. -1.
     999901    1    3    3    0    0 -0.47808453635E-01  0.46738761934E-01 -0.10593878501E+00  0.88887186156E+00  0.88000000000E+00 0.  1.
        -11    1    4    4    0    0  0.33044919314E-01 -0.58048462117E-01  0.10331548624E+00  0.12302821410E+00  0.51100000000E-03 0. -1.
         11    1    4    4    0    0  0.93412980620E-02  0.78349369975E-02  0.14236483585E-01  0.18750591273E-01  0.51100000000E-03 0.  1.
</event>
<event>
 8    1  0.2922807E+004  0.1043930E+01  0.7957747E-01            NaN
         13   -1    0    0    0    0  0.00000000000E+00  0.00000000000E+00  0.74505805969E-08  0.10566000000E+00  0.10566000000E+00 0.  1.
     999900   -1    0    0    0    0 -0.00000000000E+00 -0.00000000000E+00 -0.74505805969E-08  0.93827000000E+00  0.93827000000E+00 0. -1.
     999902    2    1    2    0    0  0.12420231568E-02  0.56190175546E-02 -0.12266880797E-01  0.10303803748E+01  0.10302912813E+01 0.  0.
     999903    2    3    3    0    0 -0.19686192380E-01 -0.34512196322E-01 -0.12827301192E+00  0.14161385480E+00  0.44965324618E-01 0.  0.
         14    1    1    2    0    0 -0.12420231568E-02 -0.56190175546E-02  0.12266880797E-01  0.13549625246E-01  0.00000000000E+00 0.  1.
     999901    1    3    3    0    0  0.20928215537E-01  0.40131213877E-01  0.11600613113E+00  0.88876651995E+00  0.88000000000E+00 0.  1.
        -11    1    4    4    0    0 -0.32574226520E-01 -0.21014789858E-01 -0.65395211286E-01  0.76022999193E-01  0.51100000000E-03 0.  1.
         11    1    4    4    0    0  0.12888034141E-01 -0.13497406464E-01 -0.62877800637E-01  0.65590855607E-01  0.51100000000E-03 0. -1.
</event>
<event>
 8    1  0.2922807E+004  0.1043930E+01  0.7957747E-01            NaN
         13   -1    0    0    0    0  0.00000000000E+00  0.00000000000E+00  0.74505805969E-08  0.10566000000E+00  0.10566000000E+00 0.  1.
     999900   -1    0    0    0    0 -0.00000000000E+00 -0.00000000000E+00 -0.74505805969E-08  0.93827000000E+00  0.93827000000E+00 0.  1.
     999902    2    1    2    0    0 -0.58526537786E-02 -0.42564908574E-02 -0.12151023374E-01  0.10297872054E+01  0.10296900843E+01 0.  0.
     999903    2    3    3    0    0  0.77724348548E-02 -0.12855163381E+00 -0.36112112937E-01  0.14062520697E+00  0.43421548065E-01 0.  0.
         14    1    1    2    0    0  0.58526537786E-02  0.42564908574E-02  0.12151023374E-01  0.14142794621E-01  0.00000000000E+00 0.  1.
     999901    1    3    3    0    0 -0.13625088633E-01  0.12429514295E+00  0.23961089564E-01  0.88916199841E+00  0.88000000000E+00 0. -1.
        -11    1    4    4    0    0 -0.31088690698E-02 -0.50663934112E-01 -0.35559088448E-01  0.61977489291E-01  0.51100000000E-03 0.  1.
         11    1    4    4    0    0  0.10881303925E-01 -0.77887699696E-01 -0.55302448927E-03  0.78647717679E-01  0.51100000000E-03 0. -1.
</event>
<event>
 8    1  0.2922807E+004  0.1043930E+01  0.7957747E-01            NaN
         13   -1    0    0    0    0  0.00000000000E+00  0.00000000000E+00  0.74505805969E-08  0.10566000000E+00  0.10566000000E+00 0. -1.
     999900   -1    0    0    0    0 -0.00000000000E+00 -0.00000000000E+00 -0.74505805969E-08  0.93827000000E+00  0.93827000000E+00 0. -1.
     999902    2    1    2    0    0  0.30512663987E-02  0.14155759497E-01  0.15231136964E-02  0.10293692435E+01  0.10292662551E+01 0.  0.
     999903    2    3    3    0    0 -0.71147597549E-01 -0.68143763155E-01  0.86084723786E-01  0.13839822900E+00  0.45143515888E-01 0.  0.
         14    1    1    2    0    0 -0.30512663987E-02 -0.14155759497E-01 -0.15231136964E-02  0.14560756467E-01  0.00000000000E+00 0. -1.
     999901    1    3    3    0    0  0.74198863947E-01  0.82299522652E-01 -0.84561610089E-01  0.89097101453E+00  0.88000000000E+00 0. -1.
        -11    1    4    4    0    0 -0.69297810863E-02 -0.78760657874E-03  0.27623286162E-01  0.28494723186E-01  0.51100000000E-03 0.  1.
         11    1    4    4    0    0 -0.64217816462E-01 -0.67356156576E-01  0.58461437624E-01  0.10990350581E+00  0.51100000000E-03 0. -1.
</event>
<event>
 8    1  0.2922807E+004  0.1043930E+01  0.7957747E-01            NaN
         13   -1    0    0    0    0  0.00000000000E+00  0.00000000000E+00  0.74505805969E-08  0.10566000000E+00  0.10566000000E+00 0. -1.
     999900   -1    0    0    0    0 -0.00000000000E+00 -0.00000000000E+00 -0.74505805969E-08  0.93827000000E+00  0.93827000000E+00 0. -1.
     999902    2    1    2    0    0  0.98857492084E-02 -0.27450929339E-02 -0.12053416692E-01  0.10281012784E+01  0.10279794211E+01 0.  0.
     999903    2    3    3    0    0  0.71847573660E-01 -0.25615105676E-02  0.10823268407E+00  0.13775974428E+00  0.45768964004E-01 0.  0.
         14    1    1    2    0    0 -0.98857492084E-02  0.27450929339E-02  0.12053416692E-01  0.15828721571E-01  0.00000000000E+00 0. -1.
     999901    1    3    3    0    0 -0.61961824451E-01 -0.18358236625E-03 -0.12028610076E+00  0.89034153415E+00  0.88000000000E+00 0. -1.
        -11    1    4    4    0    0  0.22774671829E-01 -0.19092633013E-01  0.60154147473E-01  0.67096921625E-01  0.51100000000E-03 0. -1.
         11    1    4    4    0    0  0.49072901831E-01  0.16531122445E-01  0.48078536597E-01  0.70662822656E-01  0.51100000000E-03 0.  1.
</event>
<event>
 8    1  0.2922807E+004  0.1043930E+01  0.7957747E-01            NaN
         13   -1    0    0    0    0  0.00000000000E+00  0.00000000000E+00  0.74505805969E-08  0.10566000000E+00  0.10566000000E+00 0. -1.
     999900   -1    0    0    0    0 -0.00000000000E+00 -0.00000000000E+00 -0.74505805969E-08  0.93827000000E+00  0.93827000000E+00 0. -1.
     999902    2    1    2    0    0 -0.92409421753E-02  0.10003445923E-01  0.25401529811E-02  0.10300766134E+01  0.10299834529E+01 0.  0.
     999903    2    3    3    0    0 -0.20131839254E-01  0.32937019322E-01 -0.12714997535E+00  0.14020915710E+00  0.44736487446E-01 0.  0.
         14    1    1    2    0    0  0.92409421753E-02 -0.10003445923E-01 -0.25401529811E-02  0.13853386582E-01  0.00000000000E+00 0. -1.
     999901    1    3    3    0    0  0.10890897079E-01 -0.22933573399E-01  0.12969012833E+00  0.88986745632E+00  0.88000000000E+00 0.  1.
        -11    1    4    4    0    0  0.12258402293E-01  0.24872381493E-02 -0.46063960186E-01  0.47734728756E-01  0.51100000000E-03 0.  1.
         11    1    4    4    0    0 -0.32390241548E-01  0.30449781173E-01 -0.81086015166E-01  0.92474428343E-01  0.51100000000E-03 0. -1.
</event>
<event>
 8    1  0.2922807E+004  0.1043930E+01  0.7957747E-01            NaN
         13   -1    0    0    0    0  0.00000000000E+00  0.00000000000E+00  0.74505805969E-08  0.10566000000E+00  0.10566000000E+00 0. -1.
     999900   -1    0    0    0    0 -0.00000000000E+00 -0.00000000000E+00 -0.74505805969E-08  0.93827000000E+00  0.93827000000E+00 0.  1.
     999902    2    1    2    0    0 -0.97359784571E-02 -0.29971753905E-02 -0.97274749404E-02  0.10298446848E+01  0.10297483569E+01 0.  0.
     999903    2    3    3    0    0 -0.65561590252E-01 -0.93758076948E-02  0.11451006185E+00  0.13934361714E+00  0.43793395440E-01 0.  0.
         14    1    1    2    0    0  0.97359784571E-02  0.29971753905E-02  0.97274749404E-02  0.14085315245E-01  0.00000000000E+00 0. -1.
     999901    1    3    3    0    0  0.55825611795E-01  0.63786323043E-02 -0.12423753679E+00  0.89050106762E+00  0.88000000000E+00 0.  1.
        -11    1    4    4    0    0 -0.62255566318E-01  0.20325535336E-02  0.72016532855E-01  0.95218322485E-01  0.51100000000E-03 0.  1.
         11    1    4    4    0    0 -0.33060239345E-02 -0.11408361228E-01  0.42493529000E-01  0.44125294651E-01  0.51100000000E-03 0. -1.
</event>
<event>
 8    1  0.2922807E+004  0.1043930E+01  0.7957747E-01            NaN
         13   -1    0    0    0    0  0.00000000000E+00  0.00000000000E+00  0.74505805969E-08  0.10566000000E+00  0.10566000000E+00 0.  1.
     999900   -1    0    0    0    0 -0.00000000000E+00 -0.00000000000E+00 -0.74505805969E-08  0.93827000000E+00  0.93827000000E+00 0.  1.
     999902    2    1    2    0    0  0.10767235562E-01 -0.18363317843E-02 -0.83108249631E-02  0.10302050123E+01  0.10301135821E+01 0.  0.
     999903    2    3    3    0    0  0.76310706578E-01  0.69759967917E-01 -0.85794857160E-01  0.14148359814E+00  0.44351707581E-01 0.  0.
         14    1    1    2    0    0 -0.10767235562E-01  0.18363317843E-02  0.83108249631E-02  0.13724987710E-01  0.00000000000E+00 0.  1.
     999901    1    3    3    0    0 -0.65543471016E-01 -0.71596299702E-01  0.77484032197E-01  0.88872141415E+00  0.88000000000E+00 0. -1.
        -11    1    4    4    0    0  0.26773280708E-01  0.20249066722E-01 -0.56166034628E-01  0.65434836516E-01  0.51100000000E-03 0.  1.
         11    1    4    4    0    0  0.49537425870E-01  0.49510901195E-01 -0.29628822531E-01  0.76048761624E-01  0.51100000000E-03 0. -1.
</event>
<event>
 8    1  0.2922807E+004  0.1043930E+01  0.7957747E-01            NaN
         13   -1    0    0    0    0  0.00000000000E+00  0.00000000000E+00  0.74505805969E-08  0.10566000000E+00  0.10566000000E+00 0.  1.
     999900   -1    0    0    0    0 -0.00000000000E+00 -0.00000000000E+00 -0.74505805969E-08  0.93827000000E+00  0.93827000000E+00 0. -1.
     999902    2    1    2    0    0 -0.23864554104E-02  0.42001163831E-02  0.59492066767E-02  0.10362665016E+01  0.10362381643E+01 0.  0.
     999903    2    3    3    0    0 -0.53594711662E-01 -0.11746102974E+00  0.49175550892E-01  0.14537243565E+00  0.45226359744E-01 0.  0.
         14    1    1    2    0    0  0.23864554104E-02 -0.42001163831E-02 -0.59492066767E-02  0.76634983617E-02  0.00000000000E+00 0. -1.
     999901    1    3    3    0    0  0.51208256251E-01  0.12166114612E+00 -0.43226344215E-01  0.89089406599E+00  0.88000000000E+00 0.  1.
        -11    1    4    4    0    0 -0.11665829300E-01 -0.74386017299E-01  0.37563987260E-01  0.84146808631E-01  0.51100000000E-03 0.  1.
         11    1    4    4    0    0 -0.41928882362E-01 -0.43075012437E-01  0.11611563632E-01  0.61225627017E-01  0.51100000000E-03 0. -1.
</event>
<event>
 8    1  0.2922807E+004  0.1043930E+01  0.7957747E-01            NaN
         13   -1    0    0    0    0  0.00000000000E+00  0.00000000000E+00  0.74505805969E-08  0.10566000000E+00  0.10566000000E+00 0.  1.
     999900   -1    0    0    0    0 -0.00000000000E+00 -0.00000000000E+00 -0.74505805969E-08  0.93827000000E+00  0.93827000000E+00 0. -1.
     999902    2    1    2    0    0 -0.64729849514E-02 -0.11845206464E-01 -0.17352609812E-02  0.10303204599E+01  0.10302305716E+01 0.  0.
     999903    2    3    3    0    0  0.85722584173E-01 -0.60675672044E-01 -0.82541629638E-01  0.14048108872E+00  0.43496172806E-01 0.  0.
         14    1    1    2    0    0  0.64729849514E-02  0.11845206464E-01  0.17352609812E-02  0.13609540074E-01  0.00000000000E+00 0.  1.
     999901    1    3    3    0    0 -0.92195569125E-01  0.48830465580E-01  0.80806368657E-01  0.88983937121E+00  0.88000000000E+00 0.  1.
        -11    1    4    4    0    0  0.81229656702E-01 -0.66309051277E-01 -0.70223981419E-01  0.12620149007E+00  0.51100000000E-03 0. -1.
         11    1    4    4    0    0  0.44929274709E-02  0.56333792323E-02 -0.12317648219E-01  0.14279598646E-01  0.51100000000E-03 0.  1.
</event>
<event>
 8    1  0.2922807E+004  0.1043930E+01  0.7957747E-01            NaN
         13   -1    0    0    0    0  0.00000000000E+00  0.00000000000E+00  0.74505805969E-08  0.10566000000E+00  0.10566000000E+00 0. -1.
     999900   -1    0    0    0    0 -0.00000000000E+00 -0.00000000000E+00 -0.74505805969E-08  0.93827000000E+00  0.93827000000E+00 0.  1.
     999902    2    1    2    0    0 -0.74487490650E-02  0.21420254381E-02 -0.59734379675E-02  0.10341445978E+01  0.10340983005E+01 0.  0.
     999903    2    3    3    0    0 -0.13362522928E+00 -0.31269715013E-01 -0.13790673612E-02  0.14450536932E+00  0.45237185587E-01 0.  0.
         14    1    1    2    0    0  0.74487490650E-02 -0.21420254381E-02  0.59734379675E-02  0.97854022279E-02  0.00000000000E+00 0. -1.
     999901    1    3    3    0    0  0.12617648021E+00  0.33411740451E-01 -0.45943706063E-02  0.88963922845E+00  0.88000000000E+00 0.  1.
        -11    1    4    4    0    0 -0.67168449142E-02  0.24045680623E-02  0.10460041283E-01  0.12671682517E-01  0.51100000000E-03 0.  1.
         11    1    4    4    0    0 -0.12690838436E+00 -0.33674283076E-01 -0.11839108644E-01  0.13183368680E+00  0.51100000000E-03 0. -1.
</event>
<event>
 8    1  0.2922807E+004  0.1043930E+01  0.7957747E-01            NaN
         13   -1    0    0    0    0  0.00000000000E+00  0.00000000000E+00  0.74505805969E-08  0.10566000000E+00  0.10566000000E+00 0. -1.
     999900   -1    0    0    0    0 -0.00000000000E+00 -0.00000000000E+00 -0.74505805969E-08  0.93827000000E+00  0.93827000000E+00 0.  1.
     999902    2    1    2    0    0  0.48027316621E-02  0.89673337040E-02  0.10107070887E-01  0.10295901190E+01  0.10294902530E+01 0.  0.
     999903    2    3    3    0    0  0.10334348966E+00  0.52119575979E-01  0.67180651764E-01  0.14120405954E+00  0.45044637907E-01 0.  0.
         14    1    1    2    0    0 -0.48027316621E-02 -0.89673337040E-02 -0.10107070887E-01  0.14339881000E-01  0.00000000000E+00 0.  1.
     999901    1    3    3    0    0 -0.98540758003E-01 -0.43152242275E-01 -0.57073580877E-01  0.88838605946E+00  0.88000000000E+00 0. -1.
        -11    1    4    4    0    0  0.70476793498E-01  0.20165973585E-01  0.21282587195E-01  0.76333836213E-01  0.51100000000E-03 0. -1.
         11    1    4    4    0    0  0.32866696167E-01  0.31953602394E-01  0.45898064568E-01  0.64870223331E-01  0.51100000000E-03 0.  1.
</event>
<event>
 8    1  0.2922807E+004  0.1043930E+01  0.7957747E-01            NaN
         13   -1    0    0    0    0  0.00000000000E+00  0.00000000000E+00  0.74505805969E-08  0.10566000000E+00  0.10566000000E+00 0.  1.
     999900   -1    0    0    0    0 -0.00000000000E+00 -0.00000000000E+00 -0.74505805969E-08  0.93827000000E+00  0.93827000000E+00 0.  1.
     999902    2    1    2    0    0 -0.16548438548E-01 -0.12890627960E-01 -0.74119973133E-02  0.10216823751E+01  0.10214401201E+01 0.  0.
     999903    2    3    3    0    0  0.10695507194E+00  0.47256770578E-01 -0.31215395172E-01  0.13070682643E+00  0.49368854573E-01 0.  0.
         14    1    1    2    0    0  0.16548438548E-01  0.12890627960E-01  0.74119973133E-02  0.22247624856E-01  0.00000000000E+00 0. -1.
     999901    1    3    3    0    0 -0.12350351048E+00 -0.60147398538E-01  0.23803397859E-01  0.89097554871E+00  0.88000000000E+00 0. -1.
        -11    1    4    4    0    0  0.26722202894E-01 -0.69322311944E-02 -0.18070533534E-01  0.32999049381E-01  0.51100000000E-03 0. -1.
         11    1    4    4    0    0  0.80232869042E-01  0.54189001772E-01 -0.13144861638E-01  0.97707777051E-01  0.51100000000E-03 0.  1.
</event>
<event>
 8    1  0.2922807E+004  0.1043930E+01  0.7957747E-01            NaN
         13   -1    0    0    0    0  0.00000000000E+00  0.00000000000E+00  0.74505805969E-08  0.10566000000E+00  0.10566000000E+00 0.  1.
     999900   -1    0    0    0    0 -0.00000000000E+00 -0.00000000000E+00 -0.74505805969E-08  0.93827000000E+00  0.93827000000E+00 0. -1.
     999902    2    1    2    0    0 -0.15163474858E-02  0.13851478109E-01 -0.39202205233E-03  0.10299902569E+01  0.10298959234E+01 0.  0.
     999903    2    3    3    0    0  0.18702090461E-01 -0.96709177735E-01  0.86622412583E-01  0.13858465021E+00  0.44719455134E-01 0.  0.
         14    1    1    2    0    0  0.15163474858E-02 -0.13851478109E-01  0.39202205233E-03  0.13939743068E-01  0.00000000000E+00 0. -1.
     999901    1    3    3    0    0 -0.20218437947E-01  0.11056065584E+00 -0.87014434635E-01  0.89140560672E+00  0.88000000000E+00 0.  1.
        -11    1    4    4    0    0  0.25494362746E-02 -0.60114377354E-01  0.76484196674E-01  0.97315627994E-01  0.51100000000E-03 0.  1.
         11    1    4    4    0    0  0.16152654187E-01 -0.36594800380E-01  0.10138215909E-01  0.41269022220E-01  0.51100000000E-03 0. -1.
</event>
<event>
 8    1  0.2922807E+004  0.1043930E+01  0.7957747E-01            NaN
         13   -1    0    0    0    0  0.00000000000E+00  0.00000000000E+00  0.74505805969E-08  0.10566000000E+00  0.10566000000E+00 0.  1.
     999900   -1    0    0    0    0 -0.00000000000E+00 -0.00000000000E+00 -0.74505805969E-08  0.93827000000E+00  0.93827000000E+00 0.  1.
     999902    2    1    2    0    0  0.17982805117E-01 -0.40733844672E-02  0.47952105997E-02  0.10248782865E+01  0.10247011928E+01 0.  0.
     999903    2    3    3    0    0  0.65669930566E-01  0.28232673956E-01  0.10785483509E+00  0.13699370534E+00  0.44999846570E-01 0.  0.
         14    1    1    2    0    0 -0.17982805117E-01  0.40733844672E-02 -0.47952105997E-02  0.19051713456E-01  0.00000000000E+00 0. -1.
     999901    1    3    3    0    0 -0.47687125448E-01 -0.32306058423E-01 -0.10305962449E+00  0.88788458121E+00  0.88000000000E+00 0.  1.
        -11    1    4    4    0    0  0.32989530567E-01  0.12210674391E-01  0.89627663241E-01  0.96284935660E-01  0.51100000000E-03 0. -1.
         11    1    4    4    0    0  0.32680399999E-01  0.16021999565E-01  0.18227171846E-01  0.40708769678E-01  0.51100000000E-03 0.  1.
</event>
<event>
 8    1  0.2922807E+004  0.1043930E+01  0.7957747E-01            NaN
         13   -1    0    0    0    0  0.00000000000E+00  0.00000000000E+00  0.74505805969E-08  0.10566000000E+00  0.10566000000E+00 0.  1.
     999900   -1    0    0    0    0 -0.00000000000E+00 -0.00000000000E+00 -0.74505805969E-08  0.93827000000E+00  0.93827000000E+00 0.  1.
     999902    2    1    2    0    0 -0.12854610461E-01  0.13295891210E-02  0.89306139424E-03  0.10309759900E+01  0.10308946045E+01 0.  0.
     999903    2    3    3    0    0  0.93473781516E-01 -0.63356759540E-01  0.68595830503E-01  0.13964343946E+00  0.45204816245E-01 0.  0.
         14    1    1    2    0    0  0.12854610461E-01 -0.13295891210E-02 -0.89306139424E-03  0.12954010035E-01  0.00000000000E+00 0. -1.
     999901    1    3    3    0    0 -0.10632839198E+00  0.64686348661E-01 -0.67702769109E-01  0.89133255050E+00  0.88000000000E+00 0.  1.
        -11    1    4    4    0    0  0.57346470524E-02 -0.21543417970E-01  0.23826299315E-01  0.32633704887E-01  0.51100000000E-03 0. -1.
         11    1    4    4    0    0  0.87739134464E-01 -0.41813341571E-01  0.44769531188E-01  0.10700973457E+00  0.51100000000E-03 0.  1.
</event>
<event>
 8    1  0.2922807E+004  0.1043930E+01  0.7957747E-01            NaN
         13   -1    0    0    0    0  0.00000000000E+00  0.00000000000E+00  0.74505805969E-08  0.10566000000E+00  0.10566000000E+00 0.  1.
     999900   -1    0    0    0    0 -0.00000000000E+00 -0.00000000000E+00 -0.74505805969E-08  0.93827000000E+00  0.93827000000E+00 0. -1.
     999902    2    1    2    0    0 -0.11476533135E-01 -0.64539993252E-02  0.46133575425E-02  0.10299783697E+01  0.10298838741E+01 0.  0.
     999903    2    3    3    0    0 -0.12183570260E-01 -0.10754440596E+00  0.78412605297E-01  0.14112174505E+00  0.45305315575E-01 0.  0.
         14    1    1    2    0    0  0.11476533135E-01  0.64539993252E-02 -0.46133575425E-02  0.13951630296E-01  0.00000000000E+00 0. -1.
     999901    1    3    3    0    0  0.70703712465E-03  0.10109040664E+00 -0.73799247754E-01  0.88885662465E+00  0.88000000000E+00 0. -1.
        -11    1    4    4    0    0 -0.57686623647E-02 -0.72580250825E-01  0.76362225570E-01  0.10551123585E+00  0.51100000000E-03 0. -1.
         11    1    4    4    0    0 -0.64149078951E-02 -0.34964155138E-01  0.20503797268E-02  0.35610509205E-01  0.51100000000E-03 0.  1.
</event>
<event>
 7    1  0.2922807E+004  0.1043930E+01  0.7957747E-01            NaN
         13   -1    0    0    0    0  0.00000000000E+00  0.00000000000E+00  0.74505805969E-08  0.10566000000E+00  0.10566000000E+00 0.  1.
     999900   -1    0    0    0    0 -0.00000000000E+00 -0.00000000000E+00 -0.74505805969E-08  0.93827000000E+00  0.93827000000E+00 0.  1.
     999903    2    1    2    0    0 -0.13469734724E-01 -0.43190960382E-01 -0.11753597328E-01  0.64717488660E-01  0.44758390008E-01 0.  0.
         14    1    1    2    0    0  0.97341025490E-02 -0.29478594911E-01  0.87619063307E-01  0.92956121720E-01  0.00000000000E+00 0.  1.
     999901    1    1    2    0    0  0.37356321746E-02  0.72669555293E-01 -0.75865465979E-01  0.88625638962E+00  0.88000000000E+00 0.  1.
        -11    1    3    3    0    0 -0.74345706992E-02 -0.61812271582E-02 -0.23502035858E-01  0.25418245831E-01  0.51100000000E-03 0.  1.
         11    1    3    3    0    0 -0.60351640244E-02 -0.37009733224E-01  0.11748438530E-01  0.39299242829E-01  0.51100000000E-03 0. -1.
</event>
<event>
 8    1  0.2922807E+004  0.1043930E+01  0.7957747E-01            NaN
         13   -1    0    0    0    0  0.00000000000E+00  0.00000000000E+00  0.74505805969E-08  0.10566000000E+00  0.10566000000E+00 0. -1.
     999900   -1    0    0    0    0 -0.00000000000E+00 -0.00000000000E+00 -0.74505805969E-08  0.93827000000E+00  0.93827000000E+00 0. -1.
     999902    2    1    2    0    0  0.42063462958E-02 -0.69001351700E-02  0.36334535472E-02  0.10350695712E+01  0.10350316468E+01 0.  0.
     999903    2    3    3    0    0  0.13543127410E+00 -0.39607355612E-03  0.24765583407E-01  0.14506459847E+00  0.45701386521E-01 0.  0.
         14    1    1    2    0    0 -0.42063462958E-02  0.69001351700E-02 -0.36334535472E-02  0.88604288386E-02  0.00000000000E+00 0.  1.
     999901    1    3    3    0    0 -0.13122492781E+00 -0.65040616139E-02 -0.21132129860E-01  0.89000497269E+00  0.88000000000E+00 0. -1.
        -11    1    4    4    0    0  0.43735283051E-01  0.21361145022E-01  0.94606633687E-02  0.49586679386E-01  0.51100000000E-03 0.  1.
         11    1    4    4    0    0  0.91695991051E-01 -0.21757218578E-01  0.15304920039E-01  0.95477919088E-01  0.51100000000E-03 0. -1.
</event>
<event>
 8    1  0.2922807E+004  0.1043930E+01  0.7957747E-01            NaN
         13   -1    0    0    0    0  0.00000000000E+00  0.00000000000E+00  0.74505805969E-08  0.10566000000E+00  0.10566000000E+00 0. -1.
     999900   -1    0    0    0    0 -0.00000000000E+00 -0.00000000000E+00 -0.74505805969E-08  0.93827000000E+00  0.93827000000E+00 0.  1.
     999902    2    1    2    0    0  0.96577925369E-02  0.82641867600E-02  0.24908585489E-02  0.10309772352E+01  0.10308958654E+01 0.  0.
     999903    2    3    3    0    0 -0.30911447067E-01  0.13067001219E+00  0.16147546352E-02  0.14157866490E+00  0.44852438925E-01 0.  0.
         14    1    1    2    0    0 -0.96577925369E-02 -0.82641867600E-02 -0.24908585489E-02  0.12952764794E-01  0.00000000000E+00 0.  1.
     999901    1    3    3    0    0  0.40569239604E-01 -0.12240582543E+00  0.87610391366E-03  0.88939857030E+00  0.88000000000E+00 0.  1.
        -11    1    4    4    0    0 -0.99227722626E-02  0.95655783367E-01 -0.15313441753E-01  0.97381994846E-01  0.51100000000E-03 0. -1.
         11    1    4    4    0    0 -0.20988674804E-01  0.35014228823E-01  0.16928196388E-01  0.44196670056E-01  0.51100000000E-03 0.  1.
</event>
<event>
 8    1  0.2922807E+004  0.1043930E+01  0.7957747E-01            NaN
         13   -1    0    0    0    0  0.00000000000E+00  0.00000000000E+00  0.74505805969E-08  0.10566000000E+00  0.10566000000E+00 0.  1.
     999900   -1    0    0    0    0 -0.00000000000E+00 -0.00000000000E+00 -0.74505805969E-08  0.93827000000E+00  0.93827000000E+00 0.  1.
     999902    2    1    2    0    0  0.21816824706E-02 -0.13741857662E-01  0.57319387818E-03  0.10300042346E+01  0.10299100914E+01 0.  0.
     999903    2    3    3    0    0  0.76129923289E-02  0.95251792543E-01 -0.90038001187E-01  0.13864599934E+00  0.44553449264E-01 0.  0.
         14    1    1    2    0    0 -0.21816824706E-02  0.13741857662E-01 -0.57319387818E-03  0.13925765387E-01  0.00000000000E+00 0.  1.
     999901    1    3    3    0    0 -0.54313098582E-02 -0.10899365020E+00  0.90611195065E-01  0.89135823527E+00  0.88000000000E+00 0. -1.
        -11    1    4    4    0    0  0.10777018217E-01  0.53608472018E-01 -0.77852502185E-01  0.95138244735E-01  0.51100000000E-03 0. -1.
         11    1    4    4    0    0 -0.31640258883E-02  0.41643320525E-01 -0.12185499002E-01  0.43507754608E-01  0.51100000000E-03 0.  1.
</event>
<event>
 8    1  0.2922807E+004  0.1043930E+01  0.7957747E-01            NaN
         13   -1    0    0    0    0  0.00000000000E+00  0.00000000000E+00  0.74505805969E-08  0.10566000000E+00  0.10566000000E+00 0. -1.
     999900   -1    0    0    0    0 -0.00000000000E+00 -0.00000000000E+00 -0.74505805969E-08  0.93827000000E+00  0.93827000000E+00 0. -1.
     999902    2    1    2    0    0  0.38040253590E-03  0.71849595476E-02  0.12032060809E-01  0.10299107690E+01  0.10298153491E+01 0.  0.
     999903    2    3    3    0    0  0.11919336319E+00 -0.31596488804E-01 -0.46198204990E-01  0.13917439713E+00  0.45053776082E-01 0.  0.
         14    1    1    2    0    0 -0.38040253590E-03 -0.71849595476E-02 -0.12032060809E-01  0.14019230974E-01  0.00000000000E+00 0. -1.
     999901    1    3    3    0    0 -0.11881296066E+00  0.38781448352E-01  0.58230265799E-01  0.89073637189E+00  0.88000000000E+00 0.  1.
        -11    1    4    4    0    0  0.53481671760E-01 -0.10707432613E-01 -0.44176442626E-01  0.70190865015E-01  0.51100000000E-03 0.  1.
         11    1    4    4    0    0  0.65711691433E-01 -0.20889056191E-01 -0.20217623634E-02  0.68983532119E-01  0.51100000000E-03 0. -1.
</event>
<event>
 8    1  0.2922807E+004  0.1043930E+01  0.7957747E-01            NaN
         13   -1    0    0    0    0  0.00000000000E+00  0.00000000000E+00  0.74505805969E-08  0.10566000000E+00  0.10566000000E+00 0.  1.
     999900   -1    0    0    0    0 -0.00000000000E+00 -0.00000000000E+00 -0.74505805969E-08  0.93827000000E+00  0.93827000000E+00 0.  1.
     999902    2    1    2    0    0  0.67136563851E-03 -0.13242907545E-01  0.15713294332E-02  0.10305773071E+01  0.10304908012E+01 0.  0.
     999903    2    3    3    0    0 -0.96189443957E-01  0.52243132262E-01  0.75070695964E-01  0.13980652022E+00  0.43914686672E-01 0.  0.
         14    1    1    2    0    0 -0.67136563851E-03  0.13242907545E-01 -0.15713294332E-02  0.13352692921E-01  0.00000000000E+00 0. -1.
     999901    1    3    3    0    0  0.96860809596E-01 -0.65486039807E-01 -0.73499366531E-01  0.89077078686E+00  0.88000000000E+00 0.  1.
        -11    1    4    4    0    0 -0.16813525717E-01  0.31347631851E-01  0.18312912916E-01  0.40012405203E-01  0.51100000000E-03 0. -1.
         11    1    4    4    0    0 -0.79375918241E-01  0.20895500411E-01  0.56757783048E-01  0.99794115014E-01  0.51100000000E-03 0.  1.
</event>
<event>
 8    1  0.2922807E+004  0.1043930E+01  0.7957747E-01            NaN
         13   -1    0    0    0    0  0.00000000000E+00  0.00000000000E+00  0.74505805969E-08  0.10566000000E+00  0.10566000000E+00 0.  1.
     999900   -1    0    0    0    0 -0.00000000000E+00 -0.00000000000E+00 -0.74505805969E-08  0.93827000000E+00  0.93827000000E+00 0. -1.
     999902    2    1    2    0    0 -0.12123503495E-01 -0.93127993745E-03 -0.74514525821E-02  0.10296691878E+01  0.10295704277E+01 0.  0.
     999903    2    3    3    0    0 -0.24114273272E-01 -0.89618941748E-01  0.93755175060E-01  0.13935909496E+00  0.44920725749E-01 0.  0.
         14    1    1    2    0    0  0.12123503495E-01  0.93127993745E-03  0.74514525821E-02  0.14260812210E-01  0.00000000000E+00 0.  1.
     999901    1    3    3    0    0  0.11990769777E-01  0.88687661811E-01 -0.10120662764E+00  0.89031009283E+00  0.88000000000E+00 0. -1.
        -11    1    4    4    0    0 -0.26690230597E-01 -0.23424725441E-01  0.22381188728E-01  0.41979338980E-01  0.51100000000E-03 0.  1.
         11    1    4    4    0    0  0.25759573252E-02 -0.66194216307E-01  0.71373986332E-01  0.97379755979E-01  0.51100000000E-03 0. -1.
</event>
<event>
 8    1  0.2922807E+004  0.1043930E+01  0.7957747E-01            NaN
         13   -1    0    0    0    0  0.00000000000E+00  0.00000000000E+00  0.74505805969E-08  0.10566000000E+00  0.10566000000E+00 0.  1.
     999900   -1    0    0    0    0 -0.00000000000E+00 -0.00000000000E+00 -0.74505805969E-08  0.93827000000E+00  0.93827000000E+00 0. -1.
     999902    2    1    2    0    0 -0.10191190863E-01 -0.87710729900E-02 -0.16732566803E-02  0.10303803919E+01  0.10302912986E+01 0.  0.
     999903    2    3    3    0    0 -0.20856283503E-01  0.72711746776E-01 -0.10811819325E+00  0.14016484570E+00  0.47272164947E-01 0.  0.
         14    1    1    2    0    0  0.10191190863E-01  0.87710729900E-02  0.16732566803E-02  0.13549608131E-01  0.00000000000E+00 0.  1.
     999901    1    3    3    0    0  0.10665092640E-01 -0.81482819766E-01  0.10644493657E+00  0.89021554617E+00  0.88000000000E+00 0.  1.
        -11    1    4    4    0    0  0.27913376772E-02  0.51406240012E-01 -0.89595217327E-01  0.10333420134E+00  0.51100000000E-03 0.  1.
         11    1    4    4    0    0 -0.23647621180E-01  0.21305506764E-01 -0.18522975919E-01  0.36830644359E-01  0.51100000000E-03 0. -1.
</event>
<event>
 8    1  0.2922807E+004  0.1043930E+01  0.7957747E-01            NaN
         13   -1    0    0    0    0  0.00000000000E+00  0.00000000000E+00  0.74505805969E-08  0.10566000000E+00  0.10566000000E+00 0.  1.
     999900   -1    0    0    0    0 -0.00000000000E+00 -0.00000000000E+00 -0.74505805969E-08  0.93827000000E+00  0.93827000000E+00 0.  1.
     999902    2    1    2    0    0 -0.43501902897E-02  0.11910517807E-01  0.64426315548E-02  0.10297070576E+01  0.10296088249E+01 0.  0.
     999903    2    3    3    0    0 -0.12405031519E-01 -0.50092115946E-01 -0.12048728630E+00  0.13840440914E+00  0.44446478169E-01 0.  0.
         14    1    1    2    0    0  0.43501902897E-02 -0.11910517807E-01 -0.64426315548E-02  0.14222942429E-01  0.00000000000E+00 0. -1.
     999901    1    3    3    0    0  0.80548412290E-02  0.62002633753E-01  0.12692991785E+00  0.89130264843E+00  0.88000000000E+00 0. -1.
        -11    1    4    4    0    0  0.12377624463E-01 -0.49262395149E-02 -0.45579453973E-01  0.47489168960E-01  0.51100000000E-03 0. -1.
         11    1    4    4    0    0 -0.24782655982E-01 -0.45165876431E-01 -0.74907832327E-01  0.90915240176E-01  0.51100000000E-03 0.  1.
</event>
<event>
 8    1  0.2922807E+004  0.1043930E+01  0.7957747E-01            NaN
         13   -1    0    0    0    0  0.00000000000E+00  0.00000000000E+00  0.74505805969E-08  0.10566000000E+00  0.10566000000E+00 0.  1.
     999900   -1    0    0    0    0 -0.00000000000E+00 -0.00000000000E+00 -0.74505805969E-08  0.93827000000E+00  0.93827000000E+00 0.  1.
     999902    2    1    2    0    0 -0.50988863908E-03  0.12825248536E-01  0.47731742587E-02  0.10302358341E+01  0.10301448169E+01 0.  0.
     999903    2    3    3    0    0  0.54350918102E-01 -0.10766652078E+00  0.52660728801E-01  0.13904494971E+00  0.44880326289E-01 0.  0.
         14    1    1    2    0    0  0.50988863908E-03 -0.12825248536E-01 -0.47731742587E-02  0.13694165872E-01  0.00000000000E+00 0. -1.
     999901    1    3    3    0    0 -0.54860806741E-01  0.12049176931E+00 -0.47887554542E-01  0.89119088442E+00  0.88000000000E+00 0.  1.
        -11    1    4    4    0    0  0.57311027345E-01 -0.71407417006E-01  0.44283317615E-01  0.10170961802E+00  0.51100000000E-03 0.  1.
         11    1    4    4    0    0 -0.29601092432E-02 -0.36259103770E-01  0.83774111856E-02  0.37335331686E-01  0.51100000000E-03 0. -1.
</event>
<event>
 8    1  0.2922807E+004  0.1043930E+01  0.7957747E-01            NaN
         13   -1    0    0    0    0  0.00000000000E+00  0.00000000000E+00  0.74505805969E-08  0.10566000000E+00  0.10566000000E+00 0.  1.
     999900   -1    0    0    0    0 -0.00000000000E+00 -0.00000000000E+00 -0.74505805969E-08  0.93827000000E+00  0.93827000000E+00 0. -1.
     999902    2    1    2    0    0  0.15058068506E-02 -0.78768901972E-03  0.14513776112E-01  0.10293170740E+01  0.10292133410E+01 0.  0.
     999903    2    3    3    0    0 -0.26596734324E-01  0.12791396340E+00 -0.15825214345E-01  0.13899447941E+00  0.44717553479E-01 0.  0.
         14    1    1    2    0    0 -0.15058068506E-02  0.78768901972E-03 -0.14513776112E-01  0.14612925966E-01  0.00000000000E+00 0. -1.
     999901    1    3    3    0    0  0.28102541174E-01 -0.12870165242E+00  0.30338990457E-01  0.89032259462E+00  0.88000000000E+00 0.  1.
        -11    1    4    4    0    0  0.40105226444E-02  0.81642242311E-01 -0.17725910118E-02  0.81761502074E-01  0.51100000000E-03 0. -1.
         11    1    4    4    0    0 -0.30607256968E-01  0.46271721085E-01 -0.14052623334E-01  0.57232977337E-01  0.51100000000E-03 0.  1.
</event>
<event>
 8    1  0.2922807E+004  0.1043930E+01  0.7957747E-01            NaN
         13   -1    0    0    0    0  0.00000000000E+00  0.00000000000E+00  0.74505805969E-08  0.10566000000E+00  0.10566000000E+00 0. -1.
     999900   -1    0    0    0    0 -0.00000000000E+00 -0.00000000000E+00 -0.74505805969E-08  0.93827000000E+00  0.93827000000E+00 0.  1.
     999902    2    1    2    0    0  0.10302672658E-01 -0.15429388167E-02  0.10802047459E-01  0.10289230032E+01  0.10288135577E+01 0.  0.
     999903    2    3    3    0    0 -0.11086872207E+00  0.51395565340E-01  0.46363150936E-01  0.13833354434E+00  0.45312802320E-01 0.  0.
         14    1    1    2    0    0 -0.10302672658E-01  0.15429388167E-02 -0.10802047459E-01  0.15006996815E-01  0.00000000000E+00 0. -1.
     999901    1    3    3    0    0  0.12117139473E+00 -0.52938504157E-01 -0.35561103476E-01  0.89058945884E+00  0.88000000000E+00 0.  1.
        -11    1    4    4    0    0 -0.62136282712E-01  0.72545687721E-02  0.10499612703E-01  0.63435395366E-01  0.51100000000E-03 0.  1.
         11    1    4    4    0    0 -0.48732439363E-01  0.44140996568E-01  0.35863538233E-01  0.74898148975E-01  0.51100000000E-03 0. -1.
</event>
<event>
 8    1  0.2922807E+004  0.1043930E+01  0.7957747E-01            NaN
         13   -1    0    0    0    0  0.00000000000E+00  0.00000000000E+00  0.74505805969E-08  0.10566000000E+00  0.10566000000E+00 0. -1.
     999900   -1    0    0    0    0 -0.00000000000E+00 -0.00000000000E+00 -0.74505805969E-08  0.93827000000E+00  0.93827000000E+00 0. -1.
     999902    2    1    2    0    0 -0.10052292440E-01  0.77698076893E-02  0.64988169082E-02  0.10296592917E+01  0.10295603935E+01 0.  0.
     999903    2    3    3    0    0 -0.48404108667E-01 -0.34222044512E-01  0.11953884449E+00  0.14060798534E+00  0.44350469361E-01 0.  0.
         14    1    1    2    0    0  0.10052292440E-01 -0.77698076893E-02 -0.64988169082E-02  0.14270708323E-01  0.00000000000E+00 0.  1.
     999901    1    3    3    0    0  0.38351816227E-01  0.41991852201E-01 -0.11304002759E+00  0.88905130633E+00  0.88000000000E+00 0. -1.
        -11    1    4    4    0    0 -0.77310389550E-02 -0.27801835005E-01  0.27901084343E-01  0.40142777950E-01  0.51100000000E-03 0. -1.
         11    1    4    4    0    0 -0.40673069712E-01 -0.64202095063E-02  0.91637760151E-01  0.10046520739E+00  0.51100000000E-03 0.  1.
</event>
<event>
 8    1  0.2922807E+004  0.1043930E+01  0.7957747E-01            NaN
         13   -1    0    0    0    0  0.00000000000E+00  0.00000000000E+00  0.74505805969E-08  0.10566000000E+00  0.10566000000E+00 0.  1.
     999900   -1    0    0    0    0 -0.00000000000E+00 -0.00000000000E+00 -0.74505805969E-08  0.93827000000E+00  0.93827000000E+00 0. -1.
     999902    2    1    2    0    0 -0.10028931886E-01  0.88666406819E-02 -0.39902396068E-02  0.10299615067E+01  0.10298667810E+01 0.  0.
     999903    2    3    3    0    0  0.13012455305E+00  0.22845312501E-02 -0.17672984214E-01  0.13874125282E+00  0.44712218375E-01 0.  0.
         14    1    1    2    0    0  0.10028931886E-01 -0.88666406819E-02  0.39902396068E-02  0.13968493257E-01  0.00000000000E+00 0.  1.
     999901    1    3    3    0    0 -0.14015348494E+00  0.65821094317E-02  0.13682744607E-01  0.89122025392E+00  0.88000000000E+00 0.  1.
        -11    1    4    4    0    0  0.70286214535E-01 -0.21062809705E-01 -0.91481915876E-02  0.73944198127E-01  0.51100000000E-03 0. -1.
         11    1    4    4    0    0  0.59838338519E-01  0.23347340955E-01 -0.85247926263E-02  0.64797054691E-01  0.51100000000E-03 0.  1.
</event>
<event>
 8    1  0.2922807E+004  0.1043930E+01  0.7957747E-01            NaN
         13   -1    0    0    0    0  0.00000000000E+00  0.00000000000E+00  0.74505805969E-08  0.10566000000E+00  0.10566000000E+00 0.  1.
     999900   -1    0    0    0    0 -0.00000000000E+00 -0.00000000000E+00 -0.74505805969E-08  0.93827000000E+00  0.93827000000E+00 0. -1.
     999902    2    1    2    0    0 -0.29324580282E-02 -0.54704983684E-02 -0.13349439986E-01  0.10292081384E+01  0.10291028417E+01 0.  0.
     999903    2    3    3    0    0 -0.13490072883E-01  0.90204822841E-01  0.92458918284E-01  0.13765856654E+00  0.45632633505E-01 0.  0.
         14    1    1    2    0    0  0.29324580282E-02  0.54704983684E-02  0.13349439986E-01  0.14721861650E-01  0.00000000000E+00 0.  1.
     999901    1    3    3    0    0  0.10557614855E-01 -0.95675321210E-01 -0.10580835827E+00  0.89154957181E+00  0.88000000000E+00 0. -1.
        -11    1    4    4    0    0 -0.12928826284E-01  0.31785636313E-01  0.84705888623E-02  0.35348171403E-01  0.51100000000E-03 0. -1.
         11    1    4    4    0    0 -0.56124659929E-03  0.58419186528E-01  0.83988329422E-01  0.10231039513E+00  0.51100000000E-03 0.  1.
</event>
<event>
 8    1  0.2922807E+004  0.1043930E+01  0.7957747E-01            NaN
         13   -1    0    0    0    0  0.00000000000E+00  0.00000000000E+00  0.74505805969E-08  0.10566000000E+00  0.10566000000E+00 0. -1.
     999900   -1    0    0    0    0 -0.00000000000E+00 -0.00000000000E+00 -0.74505805969E-08  0.93827000000E+00  0.93827000000E+00 0. -1.
     999902    2    1    2    0    0  0.72466862632E-02  0.91651820169E-02  0.72067232170E-02  0.10302022222E+01  0.10301107546E+01 0.  0.
     999903    2    3    3    0    0 -0.12182803860E+00  0.23142860201E-01  0.44159431011E-01  0.13990948233E+00  0.47401950713E-01 0.  0.
         14    1    1    2    0    0 -0.72466862632E-02 -0.91651820169E-02 -0.72067232170E-02  0.13727777778E-01  0.00000000000E+00 0.  1.
     999901    1    3    3    0    0  0.12907472487E+00 -0.13977678184E-01 -0.36952707794E-01  0.89029273989E+00  0.88000000000E+00 0. -1.
        -11    1    4    4    0    0 -0.11746101292E+00  0.26908335544E-01  0.29376915636E-01  0.12403391621E+00  0.51100000000E-03 0. -1.
         11    1    4    4    0    0 -0.43670256860E-02 -0.37654753436E-02  0.14782515375E-01  0.15875566122E-01  0.51100000000E-03 0.  1.
</event>
<event>
 8    1  0.2922807E+004  0.1043930E+01  0.7957747E-01            NaN
         13   -1    0    0    0    0  0.00000000000E+00  0.00000000000E+00  0.74505805969E-08  0.10566000000E+00  0.10566000000E+00 0. -1.
     999900   -1    0    0    0    0 -0.00000000000E+00 -0.00000000000E+00 -0.74505805969E-08  0.93827000000E+00  0.93827000000E+00 0.  1.
     999902    2    1    2    0    0  0.12294476316E-01 -0.45398814450E-03 -0.60361777622E-02  0.10302261431E+01  0.10301349961E+01 0.  0.
     999903    2    3    3    0    0 -0.87880078970E-01  0.10040569106E-01 -0.98613764829E-01  0.13965571525E+00  0.44219033011E-01 0.  0.
         14    1    1    2    0    0 -0.12294476316E-01  0.45398814450E-03  0.60361777622E-02  0.13703856943E-01  0.00000000000E+00 0. -1.
     999901    1    3    3    0    0  0.10017455529E+00 -0.10494557250E-01  0.92577587067E-01  0.89057042781E+00  0.88000000000E+00 0. -1.
        -11    1    4    4    0    0 -0.60678872537E-01  0.27105367466E-01 -0.71594087655E-01  0.97686237649E-01  0.51100000000E-03 0. -1.
         11    1    4    4    0    0 -0.27201206434E-01 -0.17064798361E-01 -0.27019677174E-01  0.41969477601E-01  0.51100000000E-03 0.  1.
</event>
<event>
 8    1  0.2922807E+004  0.1043930E+01  0.7957747E-01            NaN
         13   -1    0    0    0    0  0.00000000000E+00  0.00000000000E+00  0.74505805969E-08  0.10566000000E+00  0.10566000000E+00 0. -1.
     999900   -1    0    0    0    0 -0.00000000000E+00 -0.00000000000E+00 -0.74505805969E-08  0.93827000000E+00  0.93827000000E+00 0.  1.
     999902    2    1    2    0    0  0.12453489603E-01  0.45777134945E-02  0.85062865913E-02  0.10281692330E+01  0.10280484278E+01 0.  0.
     999903    2    3    3    0    0 -0.11637555172E+00  0.56057768285E-01  0.17504880602E-01  0.13725504376E+00  0.42974222146E-01 0.  0.
         14    1    1    2    0    0 -0.12453489603E-01 -0.45777134945E-02 -0.85062865913E-02  0.15760766977E-01  0.00000000000E+00 0.  1.
     999901    1    3    3    0    0  0.12882904133E+00 -0.51480054791E-01 -0.89985940111E-02  0.89091418926E+00  0.88000000000E+00 0. -1.
        -11    1    4    4    0    0 -0.70270817143E-01  0.10274118643E-01  0.12217326356E-01  0.72062954700E-01  0.51100000000E-03 0.  1.
         11    1    4    4    0    0 -0.46104734582E-01  0.45783649643E-01  0.52875542461E-02  0.65192089063E-01  0.51100000000E-03 0. -1.
</event>
<event>
 8    1  0.2922807E+004  0.1043930E+01  0.7957747E-01            NaN
         13   -1    0    0    0    0  0.00000000000E+00  0.00000000000E+00  0.74505805969E-08  0.10566000000E+00  0.10566000000E+00 0.  1.
     999900   -1    0    0    0    0 -0.00000000000E+00 -0.00000000000E+00 -0.74505805969E-08  0.93827000000E+00  0.93827000000E+00 0.  1.
     999902    2    1    2    0    0  0.79368370278E-02 -0.47145718945E-02  0.10881813371E-01  0.10296599463E+01  0.10295610572E+01 0.  0.
     999903    2    3    3    0    0 -0.77954655581E-01  0.10234083776E+00 -0.91009391233E-02  0.13879658999E+00  0.51294160470E-01 0.  0.
         14    1    1    2    0    0 -0.79368370278E-02  0.47145718945E-02 -0.10881813371E-01  0.14270053693E-01  0.00000000000E+00 0. -1.
     999901    1    3    3    0    0  0.85891492609E-01 -0.10705540966E+00  0.19982752494E-01  0.89086335632E+00  0.88000000000E+00 0.  1.
        -11    1    4    4    0    0 -0.70324110107E-01  0.10056031930E+00  0.48284125741E-02  0.12280648586E+00  0.51100000000E-03 0. -1.
         11    1    4    4    0    0 -0.76305454740E-02  0.17805184589E-02 -0.13929351697E-01  0.15990104125E-01  0.51100000000E-03 0.  1.
</event>
<event>
 8    1  0.2922807E+004  0.1043930E+01  0.7957747E-01            NaN
         13   -1    0    0    0    0  0.00000000000E+00  0.00000000000E+00  0.74505805969E-08  0.10566000000E+00  0.10566000000E+00 0.  1.
     999900   -1    0    0    0    0 -0.00000000000E+00 -0.00000000000E+00 -0.74505805969E-08  0.93827000000E+00  0.93827000000E+00 0.  1.
     999902    2    1    2    0    0  0.76244691457E-02  0.10862685461E-01 -0.46238968465E-02  0.10298761433E+01  0.10297802483E+01 0.  0.
     999903    2    3    3    0    0  0.10631675694E+00 -0.78485882337E-01 -0.93034129082E-02  0.13985073240E+00  0.44815034633E-01 0.  0.
         14    1    1    2    0    0 -0.76244691457E-02 -0.10862685461E-01  0.46238968465E-02  0.14053856668E-01  0.00000000000E+00 0. -1.
     999901    1    3    3    0    0 -0.98692287790E-01  0.89348567798E-01  0.46795160617E-02  0.89002541093E+00  0.88000000000E+00 0.  1.
        -11    1    4    4    0    0  0.76073802091E-01 -0.69899949979E-01  0.85977276574E-02  0.10366970827E+00  0.51100000000E-03 0. -1.
         11    1    4    4    0    0  0.30242954845E-01 -0.85859323578E-02 -0.17901140566E-01  0.36181024125E-01  0.51100000000E-03 0.  1.
</event>
<event>
 8    1  0.2922807E+004  0.1043930E+01  0.7957747E-01            NaN
         13   -1    0    0    0    0  0.00000000000E+00  0.00000000000E+00  0.74505805969E-08  0.10566000000E+00  0.10566000000E+00 0. -1.
     999900   -1    0    0    0    0 -0.00000000000E+00 -0.00000000000E+00 -0.74505805969E-08  0.93827000000E+00  0.93827000000E+00 0. -1.
     999902    2    1    2    0    0 -0.41219598984E-02 -0.11461903391E-01  0.76183417483E-03  0.10317256494E+01  0.10316534638E+01 0.  0.
     999903    2    3    3    0    0  0.92133651439E-01  0.61536104791E-01  0.73966568123E-01  0.14046093843E+00  0.44529991067E-01 0.  0.
         14    1    1    2    0    0  0.41219598984E-02  0.11461903391E-01 -0.76183417483E-03  0.12204350620E-01  0.00000000000E+00 0.  1.
     999901    1    3    3    0    0 -0.96255611338E-01 -0.72998008182E-01 -0.73204733948E-01  0.89126471095E+00  0.88000000000E+00 0. -1.
        -11    1    4    4    0    0  0.22707763305E-01  0.24739578793E-01  0.46212280579E-01  0.57127272563E-01  0.51100000000E-03 0. -1.
         11    1    4    4    0    0  0.69425888135E-01  0.36796525999E-01  0.27754287544E-01  0.83333665868E-01  0.51100000000E-03 0.  1.
</event>
<event>
 8    1  0.2922807E+004  0.1043930E+01  0.7957747E-01            NaN
         13   -1    0    0    0    0  0.00000000000E+00  0.00000000000E+00  0.74505805969E-08  0.10566000000E+00  0.10566000000E+00 0. -1.
     999900   -1    0    0    0    0 -0.00000000000E+00 -0.00000000000E+00 -0.74505805969E-08  0.93827000000E+00  0.93827000000E+00 0. -1.
     999902    2    1    2    0    0 -0.54551976079E-02 -0.10785089572E-01 -0.11989575678E-01  0.10269056861E+01  0.10267645596E+01 0.  0.
     999903    2    3    3    0    0 -0.76296165916E-01 -0.10395515718E+00  0.22405135147E-01  0.13849018625E+00  0.45274296982E-01 0.  0.
         14    1    1    2    0    0  0.54551976079E-02  0.10785089572E-01  0.11989575678E-01  0.17024313876E-01  0.00000000000E+00 0. -1.
     999901    1    3    3    0    0  0.70840968308E-01  0.93170067611E-01 -0.34394710825E-01  0.88841549988E+00  0.88000000000E+00 0. -1.
        -11    1    4    4    0    0 -0.14946951499E-01 -0.30943825711E-01 -0.13027458563E-01  0.36754693664E-01  0.51100000000E-03 0.  1.
         11    1    4    4    0    0 -0.61349214418E-01 -0.73011331472E-01  0.35432593710E-01  0.10173549258E+00  0.51100000000E-03 0. -1.
</event>
<event>
 8    1  0.2922807E+004  0.1043930E+01  0.7957747E-01            NaN
         13   -1    0    0    0    0  0.00000000000E+00  0.00000000000E+00  0.74505805969E-08  0.10566000000E+00  0.10566000000E+00 0.  1.
     999900   -1    0    0    0    0 -0.00000000000E+00 -0.00000000000E+00 -0.74505805969E-08  0.93827000000E+00  0.93827000000E+00 0. -1.
     999902    2    1    2    0    0 -0.37253574958E-02 -0.11986097551E-01 -0.57422296867E-02  0.10301271733E+01  0.10300346961E+01 0.  0.
     999903    2    3    3    0    0 -0.52858069174E-01 -0.12048777102E+00 -0.28741413782E-01  0.14180538534E+00  0.44400675727E-01 0.  0.
         14    1    1    2    0    0  0.37253574958E-02  0.11986097551E-01  0.57422296867E-02  0.13802826694E-01  0.00000000000E+00 0.  1.
     999901    1    3    3    0    0  0.49132711678E-01  0.10850167346E+00  0.22999184095E-01  0.88832178796E+00  0.88000000000E+00 0.  1.
        -11    1    4    4    0    0 -0.31952980019E-01 -0.90685824806E-01 -0.12075119480E-02  0.96159403903E-01  0.51100000000E-03 0.  1.
         11    1    4    4    0    0 -0.20905089155E-01 -0.29801946209E-01 -0.27533901834E-01  0.45645981440E-01  0.51100000000E-03 0. -1.
</event>
<event>
 8    1  0.2922807E+004  0.1043930E+01  0.7957747E-01            NaN
         13   -1    0    0    0    0  0.00000000000E+00  0.00000000000E+00  0.74505805969E-08  0.10566000000E+00  0.10566000000E+00 0.  1.
     999900   -1    0    0    0    0 -0.00000000000E+00 -0.00000000000E+00 -0.74505805969E-08  0.93827000000E+00  0.93827000000E+00 0. -1.
     999902    2    1    2    0    0  0.55831034833E-02 -0.11719430709E-01  0.10277308330E-01  0.10273728515E+01  0.10272394253E+01 0.  0.
     999903    2    3    3    0    0 -0.13095803021E-01 -0.81198713500E-01 -0.10067209556E+00  0.13749306043E+00  0.44774319797E-01 0.  0.
         14    1    1    2    0    0 -0.55831034833E-02  0.11719430709E-01 -0.10277308330E-01  0.16557148521E-01  0.00000000000E+00 0. -1.
     999901    1    3    3    0    0  0.18678906505E-01  0.69479282792E-01  0.11094940389E+00  0.88987979104E+00  0.88000000000E+00 0.  1.
        -11    1    4    4    0    0 -0.38524519768E-02 -0.72173659340E-01 -0.57302125107E-01  0.92237048693E-01  0.51100000000E-03 0.  1.
         11    1    4    4    0    0 -0.92433510445E-02 -0.90250541608E-02 -0.43369970448E-01  0.45256011742E-01  0.51100000000E-03 0. -1.
</event>
<event>
 8    1  0.2922807E+004  0.1043930E+01  0.7957747E-01            NaN
         13   -1    0    0    0    0  0.00000000000E+00  0.00000000000E+00  0.74505805969E-08  0.10566000000E+00  0.10566000000E+00 0.  1.
     999900   -1    0    0    0    0 -0.00000000000E+00 -0.00000000000E+00 -0.74505805969E-08  0.93827000000E+00  0.93827000000E+00 0.  1.
     999902    2    1    2    0    0 -0.46369155042E-02 -0.14117749164E-01  0.11896502930E-03  0.10290697853E+01  0.10289624858E+01 0.  0.
     999903    2    3    3    0    0 -0.11897749309E+00 -0.53029265234E-01  0.26371244559E-01  0.14043203241E+00  0.45364814044E-01 0.  0.
         14    1    1    2    0    0  0.46369155042E-02  0.14117749164E-01 -0.11896502930E-03  0.14860214653E-01  0.00000000000E+00 0. -1.
     999901    1    3    3    0    0  0.11434057759E+00  0.38911516071E-01 -0.26252279529E-01  0.88863775294E+00  0.88000000000E+00 0.  1.
        -11    1    4    4    0    0 -0.28683125843E-01 -0.35975858641E-01  0.74636744370E-02  0.46614929692E-01  0.51100000000E-03 0. -1.
         11    1    4    4    0    0 -0.90294367250E-01 -0.17053406593E-01  0.18907570122E-01  0.93817102718E-01  0.51100000000E-03 0.  1.
</event>
<event>
 8    1  0.2922807E+004  0.1043930E+01  0.7957747E-01            NaN
         13   -1    0    0    0    0  0.00000000000E+00  0.00000000000E+00  0.74505805969E-08  0.10566000000E+00  0.10566000000E+00 0. -1.
     999900   -1    0    0    0    0 -0.00000000000E+00 -0.00000000000E+00 -0.74505805969E-08  0.93827000000E+00  0.93827000000E+00 0.  1.
     999902    2    1    2    0    0 -0.11295698249E-01 -0.57831276485E-02 -0.20518601726E-02  0.10310751373E+01  0.10309950006E+01 0.  0.
     999903    2    3    3    0    0 -0.58897432970E-01 -0.45437958758E-01 -0.11236913184E+00  0.14202602101E+00  0.44844767217E-01 0.  0.
         14    1    1    2    0    0  0.11295698249E-01  0.57831276485E-02  0.20518601726E-02  0.12854862679E-01  0.00000000000E+00 0. -1.
     999901    1    3    3    0    0  0.47601734720E-01  0.39654831109E-01  0.11031727167E+00  0.88904911631E+00  0.88000000000E+00 0. -1.
        -11    1    4    4    0    0 -0.16751364470E-01 -0.32392027249E-01 -0.77973830557E-01  0.86081537008E-01  0.51100000000E-03 0. -1.
         11    1    4    4    0    0 -0.42146068500E-01 -0.13045931509E-01 -0.34395301288E-01  0.55944484005E-01  0.51100000000E-03 0.  1.
</event>
<event>
 8    1  0.2922807E+004  0.1043930E+01  0.7957747E-01            NaN
         13   -1    0    0    0    0  0.00000000000E+00  0.00000000000E+00  0.74505805969E-08  0.10566000000E+00  0.10566000000E+00 0. -1.
     999900   -1    0    0    0    0 -0.00000000000E+00 -0.00000000000E+00 -0.74505805969E-08  0.93827000000E+00  0.93827000000E+00 0.  1.
     999902    2    1    2    0    0 -0.42188640003E-02 -0.12182314504E-01 -0.37097248103E-02  0.10305147230E+01  0.10304273990E+01 0.  0.
     999903    2    3    3    0    0  0.98164737687E-01  0.57668397463E-01 -0.67001563797E-01  0.13957848464E+00  0.45066440192E-01 0.  0.
         14    1    1    2    0    0  0.42188640003E-02  0.12182314504E-01  0.37097248103E-02  0.13415277049E-01  0.00000000000E+00 0. -1.
     999901    1    3    3    0    0 -0.10238360169E+00 -0.69850711967E-01  0.63291838987E-01  0.89093623831E+00  0.88000000000E+00 0. -1.
        -11    1    4    4    0    0  0.55718008012E-01  0.31728289172E-01 -0.62640321260E-01  0.89639565590E-01  0.51100000000E-03 0.  1.
         11    1    4    4    0    0  0.42446729675E-01  0.25940108291E-01 -0.43612425373E-02  0.49938919048E-01  0.51100000000E-03 0. -1.
</event>
<event>
 8    1  0.2922807E+004  0.1043930E+01  0.7957747E-01            NaN
         13   -1    0    0    0    0  0.00000000000E+00  0.00000000000E+00  0.74505805969E-08  0.10566000000E+00  0.10566000000E+00 0. -1.
     999900   -1    0    0    0    0 -0.00000000000E+00 -0.00000000000E+00 -0.74505805969E-08  0.93827000000E+00  0.93827000000E+00 0.  1.
     999902    2    1    2    0    0  0.46457451573E-02 -0.70398965701E-02  0.98159756782E-02  0.10309879573E+01  0.10309067230E+01 0.  0.
     999903    2    3    3    0    0 -0.48005848769E-01 -0.27147213929E-01 -0.11959024984E+00  0.13974025558E+00  0.46733055031E-01 0.  0.
         14    1    1    2    0    0 -0.46457451573E-02  0.70398965701E-02 -0.98159756782E-02  0.12942042741E-01  0.00000000000E+00 0.  1.
     999901    1    3    3    0    0  0.52651593926E-01  0.20107317359E-01  0.12940622551E+00  0.89124770168E+00  0.88000000000E+00 0. -1.
        -11    1    4    4    0    0 -0.39854711771E-01 -0.19732037830E-01 -0.41354411359E-01  0.60730551020E-01  0.51100000000E-03 0.  1.
         11    1    4    4    0    0 -0.81511369975E-02 -0.74151760995E-02 -0.78235838477E-01  0.79009704556E-01  0.51100000000E-03 0. -1.
</event>
<event>
 8    1  0.2922807E+004  0.1043930E+01  0.7957747E-01            NaN
         13   -1    0    0    0    0  0.00000000000E+00  0.00000000000E+00  0.74505805969E-08  0.10566000000E+00  0.10566000000E+00 0. -1.
     999900   -1    0    0    0    0 -0.00000000000E+00 -0.00000000000E+00 -0.74505805969E-08  0.93827000000E+00  0.93827000000E+00 0.  1.
     999902    2    1    2    0    0  0.28884205592E-02 -0.11348203421E-01 -0.91695235988E-02  0.10290570428E+01  0.10289495577E+01 0.  0.
     999903    2    3    3    0    0 -0.12353534845E+00 -0.44016841314E-01  0.13758278909E-01  0.13912676829E+00  0.44367812444E-01 0.  0.
         14    1    1    2    0    0 -0.28884205592E-02  0.11348203421E-01  0.91695235988E-02  0.14872957246E-01  0.00000000000E+00 0. -1.
     999901    1    3    3    0    0  0.12642376901E+00  0.32668637893E-01 -0.22927802508E-01  0.88993027446E+00  0.88000000000E+00 0. -1.
        -11    1    4    4    0    0 -0.60597886163E-01 -0.26893844841E-01  0.28643801065E-01  0.72222649898E-01  0.51100000000E-03 0.  1.
         11    1    4    4    0    0 -0.62937462289E-01 -0.17122996472E-01 -0.14885522156E-01  0.66904118396E-01  0.51100000000E-03 0. -1.
</event>
<event>
 8    1  0.2922807E+004  0.1043930E+01  0.7957747E-01            NaN
         13   -1    0    0    0    0  0.00000000000E+00  0.00000000000E+00  0.74505805969E-08  0.10566000000E+00  0.10566000000E+00 0. -1.
     999900   -1    0    0    0    0 -0.00000000000E+00 -0.00000000000E+00 -0.74505805969E-08  0.93827000000E+00  0.93827000000E+00 0.  1.
     999902    2    1    2    0    0  0.45793491517E-02 -0.10715108912E-01  0.80330233756E-02  0.10297767862E+01  0.10296795209E+01 0.  0.
     999903    2    3    3    0    0  0.23604422209E-01  0.98431731540E-02 -0.12937059786E+00  0.13867390124E+00  0.42891053715E-01 0.  0.
         14    1    1    2    0    0 -0.45793491517E-02  0.10715108912E-01 -0.80330233756E-02  0.14153213847E-01  0.00000000000E+00 0. -1.
     999901    1    3    3    0    0 -0.19025073057E-01 -0.20558282066E-01  0.13740362124E+00  0.89110288491E+00  0.88000000000E+00 0. -1.
        -11    1    4    4    0    0 -0.93337269106E-02  0.36823820494E-02 -0.82430826746E-02  0.12995688846E-01  0.51100000000E-03 0.  1.
         11    1    4    4    0    0  0.32938149120E-01  0.61607911046E-02 -0.12112751519E+00  0.12567821240E+00  0.51100000000E-03 0. -1.
</event>
<event>
 8    1  0.2922807E+004  0.1043930E+01  0.7957747E-01            NaN
         13   -1    0    0    0    0  0.00000000000E+00  0.00000000000E+00  0.74505805969E-08  0.10566000000E+00  0.10566000000E+00 0.  1.
     999900   -1    0    0    0    0 -0.00000000000E+00 -0.00000000000E+00 -0.74505805969E-08  0.93827000000E+00  0.93827000000E+00 0.  1.
     999902    2    1    2    0    0  0.24136132623E-02  0.97943411476E-02 -0.10162741321E-01  0.10296109233E+01  0.10295113488E+01 0.  0.
     999903    2    3    3    0    0 -0.75189504884E-02  0.47222905723E-01 -0.12542795748E+00  0.14124972233E+00  0.43963326735E-01 0.  0.
         14    1    1    2    0    0 -0.24136132623E-02 -0.97943411476E-02  0.10162741321E-01  0.14319076739E-01  0.00000000000E+00 0. -1.
     999901    1    3    3    0    0  0.99325637507E-02 -0.37428564575E-01  0.11526521616E+00  0.88836120093E+00  0.88000000000E+00 0. -1.
        -11    1    4    4    0    0  0.17883881950E-01  0.23273435596E-01 -0.67590048270E-01  0.73689631456E-01  0.51100000000E-03 0.  1.
         11    1    4    4    0    0 -0.25402832438E-01  0.23949470127E-01 -0.57837909213E-01  0.67560090870E-01  0.51100000000E-03 0. -1.
</event>
<event>
 8    1  0.2922807E+004  0.1043930E+01  0.7957747E-01            NaN
         13   -1    0    0    0    0  0.00000000000E+00  0.00000000000E+00  0.74505805969E-08  0.10566000000E+00  0.10566000000E+00 0. -1.
     999900   -1    0    0    0    0 -0.00000000000E+00 -0.00000000000E+00 -0.74505805969E-08  0.93827000000E+00  0.93827000000E+00 0. -1.
     999902    2    1    2    0    0  0.12277919435E-01  0.31633844192E-02  0.48839189410E-02  0.10303429852E+01  0.10302533961E+01 0.  0.
     999903    2    3    3    0    0 -0.55034861991E-01 -0.11952828930E+00 -0.43879825408E-02  0.13923680439E+00  0.45296637051E-01 0.  0.
         14    1    1    2    0    0 -0.12277919435E-01 -0.31633844192E-02 -0.48839189410E-02  0.13587014789E-01  0.00000000000E+00 0.  1.
     999901    1    3    3    0    0  0.67312781426E-01  0.12269167372E+00  0.92719014818E-02  0.89110618082E+00  0.88000000000E+00 0. -1.
        -11    1    4    4    0    0 -0.30591765071E-01 -0.95349717745E-01  0.12522859851E-01  0.10091832294E+00  0.51100000000E-03 0.  1.
         11    1    4    4    0    0 -0.24443096919E-01 -0.24178571555E-01 -0.16910842392E-01  0.38318481453E-01  0.51100000000E-03 0. -1.
</event>
<event>
 8    1  0.2922807E+004  0.1043930E+01  0.7957747E-01            NaN
         13   -1    0    0    0    0  0.00000000000E+00  0.00000000000E+00  0.74505805969E-08  0.10566000000E+00  0.10566000000E+00 0.  1.
     999900   -1    0    0    0    0 -0.00000000000E+00 -0.00000000000E+00 -0.74505805969E-08  0.93827000000E+00  0.93827000000E+00 0. -1.
     999902    2    1    2    0    0  0.10180068990E-01 -0.95567241749E-02 -0.44097038715E-02  0.10292872451E+01  0.10291830851E+01 0.  0.
     999903    2    3    3    0    0 -0.11642873383E+00 -0.85147152105E-02  0.58181916232E-01  0.13802489003E+00  0.45139610704E-01 0.  0.
         14    1    1    2    0    0 -0.10180068990E-01  0.95567241749E-02  0.44097038715E-02  0.14642754858E-01  0.00000000000E+00 0. -1.
     999901    1    3    3    0    0  0.12660880282E+00 -0.10420089644E-02 -0.62591620104E-01  0.89126235511E+00  0.88000000000E+00 0. -1.
        -11    1    4    4    0    0  0.35043329565E-02 -0.82473911759E-03  0.59756488826E-02  0.69950014046E-02  0.51100000000E-03 0. -1.
         11    1    4    4    0    0 -0.11993306679E+00 -0.76899760929E-02  0.52206267350E-01  0.13102988862E+00  0.51100000000E-03 0.  1.
</event>
<event>
 8    1  0.2922807E+004  0.1043930E+01  0.7957747E-01            NaN
         13   -1    0    0    0    0  0.00000000000E+00  0.00000000000E+00  0.74505805969E-08  0.10566000000E+00  0.10566000000E+00 0.  1.
     999900   -1    0    0    0    0 -0.00000000000E+00 -0.00000000000E+00 -0.74505805969E-08  0.93827000000E+00  0.93827000000E+00 0.  1.
     999902    2    1    2    0    0  0.83637596115E-02 -0.10415733396E-01  0.28754963027E-02  0.10302658697E+01  0.10301752540E+01 0.  0.
     999903    2    3    3    0    0 -0.92307433710E-01  0.85371181129E-01 -0.36697910290E-01  0.13848345419E+00  0.44966983211E-01 0.  0.
         14    1    1    2    0    0 -0.83637596115E-02  0.10415733396E-01 -0.28754963027E-02  0.13664130269E-01  0.00000000000E+00 0.  1.
     999901    1    3    3    0    0  0.10067119332E+00 -0.95786914525E-01  0.39573406593E-01  0.89178241554E+00  0.88000000000E+00 0.  1.
        -11    1    4    4    0    0 -0.51315733053E-01  0.61172459947E-01 -0.25321102382E-02  0.79887715063E-01  0.51100000000E-03 0. -1.
         11    1    4    4    0    0 -0.40991700658E-01  0.24198721182E-01 -0.34165800052E-01  0.58595739127E-01  0.51100000000E-03 0.  1.
</event>
<event>
 8    1  0.2922807E+004  0.1043930E+01  0.7957747E-01            NaN
         13   -1    0    0    0    0  0.00000000000E+00  0.00000000000E+00  0.74505805969E-08  0.10566000000E+00  0.10566000000E+00 0. -1.
     999900   -1    0    0    0    0 -0.00000000000E+00 -0.00000000000E+00 -0.74505805969E-08  0.93827000000E+00  0.93827000000E+00 0.  1.
     999902    2    1    2    0    0  0.63859322715E-02 -0.69792636531E-02 -0.22491618316E-01  0.10195299355E+01  0.10192379145E+01 0.  0.
     999903    2    3    3    0    0  0.11333859013E+00  0.41562093563E-01 -0.27758319953E-01  0.13171076895E+00  0.44767831058E-01 0.  0.
         14    1    1    2    0    0 -0.63859322715E-02  0.69792636531E-02  0.22491618316E-01  0.24400064480E-01  0.00000000000E+00 0. -1.
     999901    1    3    3    0    0 -0.10695265786E+00 -0.48541357216E-01  0.52667016369E-02  0.88781916657E+00  0.88000000000E+00 0.  1.
        -11    1    4    4    0    0  0.80001994426E-01  0.80753895540E-02 -0.25679129401E-01  0.84410958035E-01  0.51100000000E-03 0. -1.
         11    1    4    4    0    0  0.33336595701E-01  0.33486704009E-01 -0.20791905525E-02  0.47299810916E-01  0.51100000000E-03 0.  1.
</event>
<event>
 8    1  0.2922807E+004  0.1043930E+01  0.7957747E-01            NaN
         13   -1    0    0    0    0  0.00000000000E+00  0.00000000000E+00  0.74505805969E-08  0.10566000000E+00  0.10566000000E+00 0.  1.
     999900   -1    0    0    0    0 -0.00000000000E+00 -0.00000000000E+00 -0.74505805969E-08  0.93827000000E+00  0.93827000000E+00 0.  1.
     999902    2    1    2    0    0  0.87140689182E-03 -0.47904741777E-03 -0.12766260758E-01  0.10311250693E+01  0.10310455578E+01 0.  0.
     999903    2    3    3    0    0  0.90923041796E-01  0.72837271852E-01  0.62639413620E-01  0.14029927525E+00  0.46775237006E-01 0.  0.
         14    1    1    2    0    0 -0.87140689182E-03  0.47904741777E-03  0.12766260758E-01  0.12804930697E-01  0.00000000000E+00 0.  1.
     999901    1    3    3    0    0 -0.90051634905E-01 -0.73316319270E-01 -0.75405674378E-01  0.89082579405E+00  0.88000000000E+00 0.  1.
        -11    1    4    4    0    0  0.46721275148E-01  0.61517372057E-01  0.52938654111E-01  0.93648421430E-01  0.51100000000E-03 0. -1.
         11    1    4    4    0    0  0.44201766648E-01  0.11319899795E-01  0.97007595095E-02  0.46650853821E-01  0.51100000000E-03 0.  1.
</event>
<event>
 8    1  0.2922807E+004  0.1043930E+01  0.7957747E-01            NaN
         13   -1    0    0    0    0  0.00000000000E+00  0.00000000000E+00  0.74505805969E-08  0.10566000000E+00  0.10566000000E+00 0.  1.
     999900   -1    0    0    0    0 -0.00000000000E+00 -0.00000000000E+00 -0.74505805969E-08  0.93827000000E+00  0.93827000000E+00 0. -1.
     999902    2    1    2    0    0 -0.66153814718E-02  0.10882693171E-01 -0.92480021408E-02  0.10281908188E+01  0.10280703468E+01 0.  0.
     999903    2    3    3    0    0  0.42288858045E-01  0.12092309130E+00 -0.42997637393E-01  0.13934912771E+00  0.34038816765E-01 0.  0.
         14    1    1    2    0    0  0.66153814718E-02 -0.10882693171E-01  0.92480021408E-02  0.15739181245E-01  0.00000000000E+00 0.  1.
     999901    1    3    3    0    0 -0.48904239517E-01 -0.11004039813E+00  0.33749635253E-01  0.88884169105E+00  0.88000000000E+00 0. -1.
        -11    1    4    4    0    0  0.13369947750E-01  0.85702215502E-01 -0.24227896763E-01  0.90060409434E-01  0.51100000000E-03 0. -1.
         11    1    4    4    0    0  0.28918910296E-01  0.35220875799E-01 -0.18769740630E-01  0.49288718274E-01  0.51100000000E-03 0.  1.
</event>
<event>
 8    1  0.2922807E+004  0.1043930E+01  0.7957747E-01            NaN
         13   -1    0    0    0    0  0.00000000000E+00  0.00000000000E+00  0.74505805969E-08  0.10566000000E+00  0.10566000000E+00 0. -1.
     999900   -1    0    0    0    0 -0.00000000000E+00 -0.00000000000E+00 -0.74505805969E-08  0.93827000000E+00  0.93827000000E+00 0.  1.
     999902    2    1    2    0    0 -0.78603577589E-02 -0.89620765373E-02  0.48774172699E-02  0.10310500451E+01  0.10309695932E+01 0.  0.
     999903    2    3    3    0    0  0.52436950783E-01 -0.10635165187E+00  0.63362139392E-01  0.14170143089E+00  0.44768595529E-01 0.  0.
         14    1    1    2    0    0  0.78603577589E-02  0.89620765373E-02 -0.48774172699E-02  0.12879954937E-01  0.00000000000E+00 0.  1.
     999901    1    3    3    0    0 -0.60297308542E-01  0.97389575336E-01 -0.58484722122E-01  0.88934861417E+00  0.88000000000E+00 0.  1.
        -11    1    4    4    0    0  0.56322747179E-01 -0.93394459019E-01  0.42967486040E-01  0.11722304723E+00  0.51100000000E-03 0.  1.
         11    1    4    4    0    0 -0.38857963958E-02 -0.12957192854E-01  0.20394653352E-01  0.24478383661E-01  0.51100000000E-03 0. -1.
</event>
<event>
 8    1  0.2922807E+004  0.1043930E+01  0.7957747E-01            NaN
         13   -1    0    0    0    0  0.00000000000E+00  0.00000000000E+00  0.74505805969E-08  0.10566000000E+00  0.10566000000E+00 0.  1.
     999900   -1    0    0    0    0 -0.00000000000E+00 -0.00000000000E+00 -0.74505805969E-08  0.93827000000E+00  0.93827000000E+00 0.  1.
     999902    2    1    2    0    0  0.63872580665E-02 -0.11225299670E-01  0.45363996307E-02  0.10302411965E+01  0.10301502510E+01 0.  0.
     999903    2    3    3    0    0  0.59012282978E-01  0.36370624956E-01  0.11223730548E+00  0.14084013381E+00  0.49330098797E-01 0.  0.
         14    1    1    2    0    0 -0.63872580665E-02  0.11225299670E-01 -0.45363996307E-02  0.13688803450E-01  0.00000000000E+00 0. -1.
     999901    1    3    3    0    0 -0.52625024911E-01 -0.47595924626E-01 -0.10770090585E+00  0.88940106274E+00  0.88000000000E+00 0. -1.
        -11    1    4    4    0    0  0.10401174212E-01 -0.38474130391E-02  0.53493182455E-01  0.54633036729E-01  0.51100000000E-03 0.  1.
         11    1    4    4    0    0  0.48611108765E-01  0.40218037995E-01  0.58744123025E-01  0.86207097077E-01  0.51100000000E-03 0. -1.
</event>
<event>
 8    1  0.2922807E+004  0.1043930E+01  0.7957747E-01            NaN
         13   -1    0    0    0    0  0.00000000000E+00  0.00000000000E+00  0.74505805969E-08  0.10566000000E+00  0.10566000000E+00 0. -1.
     999900   -1    0    0    0    0 -0.00000000000E+00 -0.00000000000E+00 -0.74505805969E-08  0.93827000000E+00  0.93827000000E+00 0.  1.
     999902    2    1    2    0    0 -0.56309919338E-02 -0.12270777087E-01  0.11195437626E-02  0.10303825494E+01  0.10302934847E+01 0.  0.
     999903    2    3    3    0    0  0.12597464799E+00  0.24989822239E-01  0.30061937867E-01  0.13934604119E+00  0.44938802101E-01 0.  0.
         14    1    1    2    0    0  0.56309919338E-02  0.12270777087E-01 -0.11195437626E-02  0.13547450635E-01  0.00000000000E+00 0.  1.
     999901    1    3    3    0    0 -0.13160563993E+00 -0.37260599326E-01 -0.28942394104E-01  0.89103650817E+00  0.88000000000E+00 0.  1.
        -11    1    4    4    0    0  0.89928357178E-01  0.22366858136E-01  0.53100550699E-03  0.92671078851E-01  0.51100000000E-03 0. -1.
         11    1    4    4    0    0  0.36046290817E-01  0.26229641027E-02  0.29530932360E-01  0.46674962339E-01  0.51100000000E-03 0.  1.
</event>
<event>
 8    1  0.2922807E+004  0.1043930E+01  0.7957747E-01            NaN
         13   -1    0    0    0    0  0.00000000000E+00  0.00000000000E+00  0.74505805969E-08  0.10566000000E+00  0.10566000000E+00 0. -1.
     999900   -1    0    0    0    0 -0.00000000000E+00 -0.00000000000E+00 -0.74505805969E-08  0.93827000000E+00  0.93827000000E+00 0.  1.
     999902    2    1    2    0    0  0.93089964838E-03  0.22272137095E-02  0.12855233898E-01  0.10308500882E+01  0.10307671028E+01 0.  0.
     999903    2    3    3    0    0  0.25774318529E-01 -0.12548660700E+00  0.38461656142E-01  0.14091542521E+00  0.44346973274E-01 0.  0.
         14    1    1    2    0    0 -0.93089964838E-03 -0.22272137095E-02 -0.12855233898E-01  0.13079911836E-01  0.00000000000E+00 0.  1.
     999901    1    3    3    0    0 -0.24843418881E-01  0.12771382071E+00 -0.25606422245E-01  0.88993466295E+00  0.88000000000E+00 0.  1.
        -11    1    4    4    0    0 -0.10935574608E-01 -0.15246584720E-01  0.85822581810E-03  0.18789433472E-01  0.51100000000E-03 0.  1.
         11    1    4    4    0    0  0.36709893137E-01 -0.11024002228E+00  0.37603430324E-01  0.12212599174E+00  0.51100000000E-03 0. -1.
</event>
<event>
 8    1  0.2922807E+004  0.1043930E+01  0.7957747E-01            NaN
         13   -1    0    0    0    0  0.00000000000E+00  0.00000000000E+00  0.74505805969E-08  0.10566000000E+00  0.10566000000E+00 0. -1.
     999900   -1    0    0    0    0 -0.00000000000E+00 -0.00000000000E+00 -0.74505805969E-08  0.93827000000E+00  0.93827000000E+00 0.  1.
     999902    2    1    2    0    0 -0.46095610908E-02  0.10544813167E-01 -0.76311182920E-02  0.10301214843E+01  0.10300289304E+01 0.  0.
     999903    2    3    3    0    0  0.18636871848E-01 -0.11840379478E+00 -0.55663095581E-01  0.13912473296E+00  0.43480104671E-01 0.  0.
         14    1    1    2    0    0  0.46095610908E-02 -0.10544813167E-01  0.76311182920E-02  0.13808515654E-01  0.00000000000E+00 0. -1.
     999901    1    3    3    0    0 -0.23246432939E-01  0.12894860794E+00  0.48031977289E-01  0.89099675138E+00  0.88000000000E+00 0. -1.
        -11    1    4    4    0    0 -0.13092790174E-01 -0.53512610187E-01 -0.27712985400E-01  0.61670830093E-01  0.51100000000E-03 0.  1.
         11    1    4    4    0    0  0.31729662022E-01 -0.64891184590E-01 -0.27950110181E-01  0.77453902869E-01  0.51100000000E-03 0. -1.
</event>
<event>
 8    1  0.2922807E+004  0.1043930E+01  0.7957747E-01            NaN
         13   -1    0    0    0    0  0.00000000000E+00  0.00000000000E+00  0.74505805969E-08  0.10566000000E+00  0.10566000000E+00 0. -1.
     999900   -1    0    0    0    0 -0.00000000000E+00 -0.00000000000E+00 -0.74505805969E-08  0.93827000000E+00  0.93827000000E+00 0.  1.
     999902    2    1    2    0    0  0.78127474212E-02 -0.66274251732E-02  0.95655475373E-02  0.10299135280E+01  0.10298181460E+01 0.  0.
     999903    2    3    3    0    0  0.12711979065E+00 -0.29215608590E-01  0.30864971192E-01  0.14132022284E+00  0.44785778717E-01 0.  0.
         14    1    1    2    0    0 -0.78127474212E-02  0.66274251732E-02 -0.95655475373E-02  0.14016471966E-01  0.00000000000E+00 0.  1.
     999901    1    3    3    0    0 -0.11930704323E+00  0.22588183417E-01 -0.21299423655E-01  0.88859330520E+00  0.88000000000E+00 0. -1.
        -11    1    4    4    0    0  0.52795859908E-01 -0.13904270485E-01  0.35775022077E-01  0.65275147543E-01  0.51100000000E-03 0. -1.
         11    1    4    4    0    0  0.74323930743E-01 -0.15311338105E-01 -0.49100508846E-02  0.76045075293E-01  0.51100000000E-03 0.  1.
</event>
<event>
 8    1  0.2922807E+004  0.1043930E+01  0.7957747E-01            NaN
         13   -1    0    0    0    0  0.00000000000E+00  0.00000000000E+00  0.74505805969E-08  0.10566000000E+00  0.10566000000E+00 0.  1.
     999900   -1    0    0    0    0 -0.00000000000E+00 -0.00000000000E+00 -0.74505805969E-08  0.93827000000E+00  0.93827000000E+00 0. -1.
     999902    2    1    2    0    0 -0.96868913960E-02 -0.66049845475E-02 -0.32111837078E-02  0.10317737923E+01  0.10317021784E+01 0.  0.
     999903    2    3    3    0    0  0.81347510883E-01  0.68377155193E-01 -0.80118616115E-01  0.14058114371E+00  0.45290312854E-01 0.  0.
         14    1    1    2    0    0  0.96868913960E-02  0.66049845475E-02  0.32111837078E-02  0.12156207739E-01  0.00000000000E+00 0. -1.
     999901    1    3    3    0    0 -0.91034402279E-01 -0.74982139741E-01  0.76907432407E-01  0.89119264855E+00  0.88000000000E+00 0.  1.
        -11    1    4    4    0    0  0.19179907089E-01  0.44456436019E-01 -0.40121459170E-01  0.62882717391E-01  0.51100000000E-03 0.  1.
         11    1    4    4    0    0  0.62167603794E-01  0.23920719174E-01 -0.39997156945E-01  0.77698426316E-01  0.51100000000E-03 0. -1.
</event>
<event>
 8    1  0.2922807E+004  0.1043930E+01  0.7957747E-01            NaN
         13   -1    0    0    0    0  0.00000000000E+00  0.00000000000E+00  0.74505805969E-08  0.10566000000E+00  0.10566000000E+00 0.  1.
     999900   -1    0    0    0    0 -0.00000000000E+00 -0.00000000000E+00 -0.74505805969E-08  0.93827000000E+00  0.93827000000E+00 0. -1.
     999902    2    1    2    0    0  0.66890924685E-02 -0.11963017216E-01 -0.17889310354E-02  0.10301076264E+01  0.10300148853E+01 0.  0.
     999903    2    3    3    0    0  0.50077968090E-01 -0.12135509353E+00  0.27966823808E-01  0.14177512901E+00  0.45641892588E-01 0.  0.
         14    1    1    2    0    0 -0.66890924685E-02  0.11963017216E-01  0.17889310354E-02  0.13822373646E-01  0.00000000000E+00 0. -1.
     999901    1    3    3    0    0 -0.43388875621E-01  0.10939207631E+00 -0.29755754843E-01  0.88833249734E+00  0.88000000000E+00 0.  1.
        -11    1    4    4    0    0  0.46113342112E-01 -0.55831878716E-01  0.64849509768E-02  0.72704571465E-01  0.51100000000E-03 0. -1.
         11    1    4    4    0    0  0.39646259778E-02 -0.65523214813E-01  0.21481872831E-01  0.69070557547E-01  0.51100000000E-03 0.  1.
</event>
<event>
 8    1  0.2922807E+004  0.1043930E+01  0.7957747E-01            NaN
         13   -1    0    0    0    0  0.00000000000E+00  0.00000000000E+00  0.74505805969E-08  0.10566000000E+00  0.10566000000E+00 0. -1.
     999900   -1    0    0    0    0 -0.00000000000E+00 -0.00000000000E+00 -0.74505805969E-08  0.93827000000E+00  0.93827000000E+00 0.  1.
     999902    2    1    2    0    0  0.28018983257E-02  0.13277705794E-01  0.59257223464E-02  0.10291224921E+01  0.10290159578E+01 0.  0.
     999903    2    3    3    0    0  0.12377051738E+00  0.34876167630E-01  0.33341402791E-01  0.14016157062E+00  0.44700432857E-01 0.  0.
         14    1    1    2    0    0 -0.28018983257E-02 -0.13277705794E-01 -0.59257223464E-02  0.14807507917E-01  0.00000000000E+00 0.  1.
     999901    1    3    3    0    0 -0.12096861906E+00 -0.21598461836E-01 -0.27415680444E-01  0.88896092146E+00  0.88000000000E+00 0.  1.
        -11    1    4    4    0    0  0.75500101235E-01 -0.16038219636E-02  0.21338212120E-01  0.78475588235E-01  0.51100000000E-03 0. -1.
         11    1    4    4    0    0  0.48270416148E-01  0.36479989594E-01  0.12003190671E-01  0.61685982388E-01  0.51100000000E-03 0.  1.
</event>
<event>
 8    1  0.2922807E+004  0.1043930E+01  0.7957747E-01            NaN
         13   -1    0    0    0    0  0.00000000000E+00  0.00000000000E+00  0.74505805969E-08  0.10566000000E+00  0.10566000000E+00 0.  1.
     999900   -1    0    0    0    0 -0.00000000000E+00 -0.00000000000E+00 -0.74505805969E-08  0.93827000000E+00  0.93827000000E+00 0. -1.
     999902    2    1    2    0    0  0.16658671840E-01  0.20445096198E-01 -0.69244312065E-02  0.10166635178E+01  0.10162978143E+01 0.  0.
     999903    2    3    3    0    0  0.75095894987E-02 -0.67175841256E-03 -0.12068923247E+00  0.12904194453E+00  0.45045392885E-01 0.  0.
         14    1    1    2    0    0 -0.16658671840E-01 -0.20445096198E-01  0.69244312065E-02  0.27266482236E-01  0.00000000000E+00 0. -1.
     999901    1    3    3    0    0  0.91490823410E-02  0.21116854610E-01  0.11376480127E+00  0.88762157323E+00  0.88000000000E+00 0.  1.
        -11    1    4    4    0    0  0.23817288003E-01 -0.41840668733E-02 -0.97600158093E-01  0.10055258129E+00  0.51100000000E-03 0. -1.
         11    1    4    4    0    0 -0.16307698505E-01  0.35123084608E-02 -0.23089074380E-01  0.28489363243E-01  0.51100000000E-03 0.  1.
</event>
<event>
 8    1  0.2922807E+004  0.1043930E+01  0.7957747E-01            NaN
         13   -1    0    0    0    0  0.00000000000E+00  0.00000000000E+00  0.74505805969E-08  0.10566000000E+00  0.10566000000E+00 0. -1.
     999900   -1    0    0    0    0 -0.00000000000E+00 -0.00000000000E+00 -0.74505805969E-08  0.93827000000E+00  0.93827000000E+00 0.  1.
     999902    2    1    2    0    0 -0.15646029539E-01 -0.10189855973E-02 -0.50698283958E-02  0.10274515373E+01  0.10273193865E+01 0.  0.
     999903    2    3    3    0    0 -0.10644804692E+00  0.32598097368E-01 -0.71985718286E-01  0.13961548774E+00  0.43780339611E-01 0.  0.
         14    1    1    2    0    0  0.15646029539E-01  0.10189855973E-02  0.50698283958E-02  0.16478462669E-01  0.00000000000E+00 0. -1.
     999901    1    3    3    0    0  0.90802017378E-01 -0.33617082965E-01  0.66915889890E-01  0.88783604959E+00  0.88000000000E+00 0. -1.
        -11    1    4    4    0    0 -0.97768637524E-01  0.41967796779E-01 -0.60297114009E-01  0.12229474857E+00  0.51100000000E-03 0. -1.
         11    1    4    4    0    0 -0.86794093923E-02 -0.93696994116E-02 -0.11688604276E-01  0.17320739170E-01  0.51100000000E-03 0.  1.
</event>
<event>
 8    1  0.2922807E+004  0.1043930E+01  0.7957747E-01            NaN
         13   -1    0    0    0    0  0.00000000000E+00  0.00000000000E+00  0.74505805969E-08  0.10566000000E+00  0.10566000000E+00 0.  1.
     999900   -1    0    0    0    0 -0.00000000000E+00 -0.00000000000E+00 -0.74505805969E-08  0.93827000000E+00  0.93827000000E+00 0. -1.
     999902    2    1    2    0    0 -0.71112607572E-02 -0.10290034044E-01 -0.65532876406E-02  0.10298090790E+01  0.10297122602E+01 0.  0.
     999903    2    3    3    0    0  0.11731832845E+00 -0.47137094342E-01  0.37559894762E-01  0.13919895030E+00  0.44498384430E-01 0.  0.
         14    1    1    2    0    0  0.71112607572E-02  0.10290034044E-01  0.65532876406E-02  0.14120920972E-01  0.00000000000E+00 0. -1.
     999901    1    3    3    0    0 -0.12442958921E+00  0.36847060298E-01 -0.44113182402E-01  0.89061012872E+00  0.88000000000E+00 0. -1.
        -11    1    4    4    0    0  0.10561124359E+00 -0.24307420023E-01  0.30547269492E-01  0.11259654628E+00  0.51100000000E-03 0. -1.
         11    1    4    4    0    0  0.11707084868E-01 -0.22829674319E-01  0.70126252703E-02  0.26602404023E-01  0.51100000000E-03 0.  1.
</event>
<event>
 8    1  0.2922807E+004  0.1043930E+01  0.7957747E-01            NaN
         13   -1    0    0    0    0  0.00000000000E+00  0.00000000000E+00  0.74505805969E-08  0.10566000000E+00  0.10566000000E+00 0.  1.
     999900   -1    0    0    0    0 -0.00000000000E+00 -0.00000000000E+00 -0.74505805969E-08  0.93827000000E+00  0.93827000000E+00 0. -1.
     999902    2    1    2    0    0  0.70011640887E-02  0.28807193184E-02 -0.14639259502E-01  0.10274490182E+01  0.10273168266E+01 0.  0.
     999903    2    3    3    0    0  0.61319690894E-01  0.47331179851E-01  0.10375779039E+00  0.13675029965E+00  0.43984318920E-01 0.  0.
         14    1    1    2    0    0 -0.70011640887E-02 -0.28807193184E-02  0.14639259502E-01  0.16480981802E-01  0.00000000000E+00 0.  1.
     999901    1    3    3    0    0 -0.54318526805E-01 -0.44450460533E-01 -0.11839704989E+00  0.89069871855E+00  0.88000000000E+00 0. -1.
        -11    1    4    4    0    0  0.17483205017E-01  0.30393584040E-01  0.19123370815E-01  0.39942419065E-01  0.51100000000E-03 0. -1.
         11    1    4    4    0    0  0.43836485876E-01  0.16937595811E-01  0.84634419575E-01  0.96807880587E-01  0.51100000000E-03 0.  1.
</event>
<event>
 7    1  0.2922807E+004  0.1043930E+01  0.7957747E-01            NaN
         13   -1    0    0    0    0  0.00000000000E+00  0.00000000000E+00  0.74505805969E-08  0.10566000000E+00  0.10566000000E+00 0.  1.
     999900   -1    0    0    0    0 -0.00000000000E+00 -0.00000000000E+00 -0.74505805969E-08  0.93827000000E+00  0.93827000000E+00 0. -1.
     999903    2    1    2    0    0 -0.97685399359E-01  0.25843546688E-01  0.58712135112E-01  0.12507872793E+00  0.44578551107E-01 0.  0.
         14    1    1    2    0    0  0.28623429844E-01  0.30059593704E-02  0.15270121841E-01  0.32580870904E-01  0.00000000000E+00 0.  1.
     999901    1    1    2    0    0  0.69061969515E-01 -0.28849506058E-01 -0.73982256953E-01  0.88627040116E+00  0.88000000000E+00 0. -1.
        -11    1    3    3    0    0 -0.15939126910E-01  0.20120332284E-01  0.26864623347E-01  0.37159825706E-01  0.51100000000E-03 0. -1.
         11    1    3    3    0    0 -0.81746272449E-01  0.57232144039E-02  0.31847511765E-01  0.87918902228E-01  0.51100000000E-03 0.  1.
</event>
<event>
 8    1  0.2922807E+004  0.1043930E+01  0.7957747E-01            NaN
         13   -1    0    0    0    0  0.00000000000E+00  0.00000000000E+00  0.74505805969E-08  0.10566000000E+00  0.10566000000E+00 0.  1.
     999900   -1    0    0    0    0 -0.00000000000E+00 -0.00000000000E+00 -0.74505805969E-08  0.93827000000E+00  0.93827000000E+00 0.  1.
     999902    2    1    2    0    0 -0.14122826597E-01 -0.18034215660E-02 -0.56317325174E-02  0.10286191224E+01  0.10285051658E+01 0.  0.
     999903    2    3    3    0    0  0.68876327385E-01  0.10814837614E+00  0.20206001122E-01  0.13752662115E+00  0.45445234157E-01 0.  0.
         14    1    1    2    0    0  0.14122826597E-01  0.18034215660E-02  0.56317325174E-02  0.15310877557E-01  0.00000000000E+00 0.  1.
     999901    1    3    3    0    0 -0.82999153982E-01 -0.10995179771E+00 -0.25837733640E-01  0.89109250129E+00  0.88000000000E+00 0.  1.
        -11    1    4    4    0    0  0.27055048571E-01  0.67349859974E-01  0.29529589793E-01  0.78359664918E-01  0.51100000000E-03 0. -1.
         11    1    4    4    0    0  0.41821278814E-01  0.40798516166E-01 -0.93235886704E-02  0.59166956232E-01  0.51100000000E-03 0.  1.
</event>
<event>
 8    1  0.2922807E+004  0.1043930E+01  0.7957747E-01            NaN
         13   -1    0    0    0    0  0.00000000000E+00  0.00000000000E+00  0.74505805969E-08  0.10566000000E+00  0.10566000000E+00 0. -1.
     999900   -1    0    0    0    0 -0.00000000000E+00 -0.00000000000E+00 -0.74505805969E-08  0.93827000000E+00  0.93827000000E+00 0. -1.
     999902    2    1    2    0    0  0.54196260424E-02 -0.13016668823E-01  0.23909729037E-02  0.10296288544E+01  0.10295295309E+01 0.  0.
     999903    2    3    3    0    0 -0.56444813241E-01  0.11469766934E+00  0.29110158715E-01  0.13785978346E+00  0.42618614027E-01 0.  0.
         14    1    1    2    0    0 -0.54196260424E-02  0.13016668823E-01 -0.23909729037E-02  0.14301145588E-01  0.00000000000E+00 0.  1.
     999901    1    3    3    0    0  0.61864439284E-01 -0.12771433816E+00 -0.26719185811E-01  0.89176907095E+00  0.88000000000E+00 0. -1.
        -11    1    4    4    0    0 -0.23114850233E-01  0.33477919656E-01  0.29176130886E-01  0.50065708227E-01  0.51100000000E-03 0.  1.
         11    1    4    4    0    0 -0.33329963008E-01  0.81219749681E-01 -0.65972171051E-04  0.87794075232E-01  0.51100000000E-03 0. -1.
</event>
<event>
 8    1  0.2922807E+004  0.1043930E+01  0.7957747E-01            NaN
         13   -1    0    0    0    0  0.00000000000E+00  0.00000000000E+00  0.74505805969E-08  0.10566000000E+00  0.10566000000E+00 0.  1.
     999900   -1    0    0    0    0 -0.00000000000E+00 -0.00000000000E+00 -0.74505805969E-08  0.93827000000E+00  0.93827000000E+00 0.  1.
     999902    2    1    2    0    0 -0.33822165382E-02 -0.12415967432E-01 -0.13216192022E-02  0.10309939143E+01  0.10309127553E+01 0.  0.
     999903    2    3    3    0    0  0.12657099648E+00  0.26060699891E-01 -0.30746588397E-01  0.14013246586E+00  0.44636062336E-01 0.  0.
         14    1    1    2    0    0  0.33822165382E-02  0.12415967432E-01  0.13216192022E-02  0.12936085703E-01  0.00000000000E+00 0. -1.
     999901    1    3    3    0    0 -0.12995321302E+00 -0.38476667323E-01  0.29424969195E-01  0.89086144844E+00  0.88000000000E+00 0. -1.
        -11    1    4    4    0    0  0.98840205942E-01  0.47139054723E-02 -0.34810255786E-01  0.10489815177E+00  0.51100000000E-03 0.  1.
         11    1    4    4    0    0  0.27730790538E-01  0.21346794418E-01  0.40636673884E-02  0.35234314091E-01  0.51100000000E-03 0. -1.
</event>
<event>
 8    1  0.2922807E+004  0.1043930E+01  0.7957747E-01            NaN
         13   -1    0    0    0    0  0.00000000000E+00  0.00000000000E+00  0.74505805969E-08  0.10566000000E+00  0.10566000000E+00 0. -1.
     999900   -1    0    0    0    0 -0.00000000000E+00 -0.00000000000E+00 -0.74505805969E-08  0.93827000000E+00  0.93827000000E+00 0.  1.
     999902    2    1    2    0    0 -0.15309381417E-01 -0.94805494469E-02  0.71065405946E-03  0.10259088178E+01  0.10257505250E+01 0.  0.
     999903    2    3    3    0    0 -0.10131377251E-01 -0.51294886815E-02 -0.12792742313E+00  0.13653066522E+00  0.46327535000E-01 0.  0.
         14    1    1    2    0    0  0.15309381417E-01  0.94805494469E-02 -0.71065405946E-03  0.18021182158E-01  0.00000000000E+00 0. -1.
     999901    1    3    3    0    0 -0.51780041658E-02 -0.43510607653E-02  0.12863807718E+00  0.88937815262E+00  0.88000000000E+00 0. -1.
        -11    1    4    4    0    0  0.45738575223E-02 -0.96872336996E-02 -0.11736342485E+00  0.11785243859E+00  0.51100000000E-03 0.  1.
         11    1    4    4    0    0 -0.14705234773E-01  0.45577450181E-02 -0.10563998279E-01  0.18678226629E-01  0.51100000000E-03 0. -1.
</event>
<event>
 8    1  0.2922807E+004  0.1043930E+01  0.7957747E-01            NaN
         13   -1    0    0    0    0  0.00000000000E+00  0.00000000000E+00  0.74505805969E-08  0.10566000000E+00  0.10566000000E+00 0.  1.
     999900   -1    0    0    0    0 -0.00000000000E+00 -0.00000000000E+00 -0.74505805969E-08  0.93827000000E+00  0.93827000000E+00 0.  1.
     999902    2    1    2    0    0 -0.59817536923E-03  0.13654192102E-01 -0.82595926114E-03  0.10302377765E+01  0.10301467852E+01 0.  0.
     999903    2    3    3    0    0 -0.39623566411E-01  0.82162145648E-01  0.98260824209E-01  0.14117393655E+00  0.44206850081E-01 0.  0.
         14    1    1    2    0    0  0.59817536923E-03 -0.13654192102E-01  0.82595926114E-03  0.13692223502E-01  0.00000000000E+00 0. -1.
     999901    1    3    3    0    0  0.39025391042E-01 -0.68507953546E-01 -0.99086783470E-01  0.88906383995E+00  0.88000000000E+00 0.  1.
        -11    1    4    4    0    0 -0.45564014487E-01  0.49922387291E-01  0.75066238387E-01  0.10101250138E+00  0.51100000000E-03 0.  1.
         11    1    4    4    0    0  0.59404480752E-02  0.32239758357E-01  0.23194585821E-01  0.40161435167E-01  0.51100000000E-03 0. -1.
</event>
<event>
 8    1  0.2922807E+004  0.1043930E+01  0.7957747E-01            NaN
         13   -1    0    0    0    0  0.00000000000E+00  0.00000000000E+00  0.74505805969E-08  0.10566000000E+00  0.10566000000E+00 0. -1.
     999900   -1    0    0    0    0 -0.00000000000E+00 -0.00000000000E+00 -0.74505805969E-08  0.93827000000E+00  0.93827000000E+00 0.  1.
     999902    2    1    2    0    0  0.89899914872E-02  0.17333036799E-02  0.11277513099E-01  0.10294039341E+01  0.10293014393E+01 0.  0.
     999903    2    3    3    0    0  0.97357307556E-01 -0.48044994735E-01 -0.67444248783E-01  0.14008746775E+00  0.57349848064E-01 0.  0.
         14    1    1    2    0    0 -0.89899914872E-02 -0.17333036799E-02 -0.11277513099E-01  0.14526065892E-01  0.00000000000E+00 0.  1.
     999901    1    3    3    0    0 -0.88367316069E-01  0.49778298414E-01  0.78721761883E-01  0.88931646636E+00  0.88000000000E+00 0. -1.
        -11    1    4    4    0    0 -0.57783252095E-02 -0.81276189780E-02  0.98967223874E-03  0.10034331299E-01  0.51100000000E-03 0. -1.
         11    1    4    4    0    0  0.10313563277E+00 -0.39917375756E-01 -0.68433921022E-01  0.13005313645E+00  0.51100000000E-03 0.  1.
</event>
<event>
 8    1  0.2922807E+004  0.1043930E+01  0.7957747E-01            NaN
         13   -1    0    0    0    0  0.00000000000E+00  0.00000000000E+00  0.74505805969E-08  0.10566000000E+00  0.10566000000E+00 0. -1.
     999900   -1    0    0    0    0 -0.00000000000E+00 -0.00000000000E+00 -0.74505805969E-08  0.93827000000E+00  0.93827000000E+00 0.  1.
     999902    2    1    2    0    0 -0.13555120015E-01 -0.49711832988E-02 -0.16907675424E-02  0.10293934035E+01  0.10292907590E+01 0.  0.
     999903    2    3    3    0    0  0.11399776779E+00 -0.59187610869E-01 -0.23669170859E-01  0.13827488705E+00  0.45398792897E-01 0.  0.
         14    1    1    2    0    0  0.13555120015E-01  0.49711832988E-02  0.16907675424E-02  0.14536596469E-01  0.00000000000E+00 0. -1.
     999901    1    3    3    0    0 -0.12755288781E+00  0.54216427570E-01  0.21978403317E-01  0.89111851648E+00  0.88000000000E+00 0. -1.
        -11    1    4    4    0    0  0.10199588121E+00 -0.64541843880E-01 -0.28911450698E-01  0.12411664875E+00  0.51100000000E-03 0.  1.
         11    1    4    4    0    0  0.12001886584E-01  0.53542330108E-02  0.52422798386E-02  0.14158238295E-01  0.51100000000E-03 0. -1.
</event>
<event>
 8    1  0.2922807E+004  0.1043930E+01  0.7957747E-01            NaN
         13   -1    0    0    0    0  0.00000000000E+00  0.00000000000E+00  0.74505805969E-08  0.10566000000E+00  0.10566000000E+00 0.  1.
     999900   -1    0    0    0    0 -0.00000000000E+00 -0.00000000000E+00 -0.74505805969E-08  0.93827000000E+00  0.93827000000E+00 0.  1.
     999902    2    1    2    0    0 -0.16486811706E-02 -0.13338076470E-01 -0.23015118757E-02  0.10302947739E+01  0.10302045437E+01 0.  0.
     999903    2    3    3    0    0  0.10162505955E+00  0.10232659040E-01 -0.86519399076E-01  0.13995006672E+00  0.40841825628E-01 0.  0.
         14    1    1    2    0    0  0.16486811706E-02  0.13338076470E-01  0.23015118757E-02  0.13635226087E-01  0.00000000000E+00 0. -1.
     999901    1    3    3    0    0 -0.10327374072E+00 -0.23570735511E-01  0.84217887200E-01  0.89034470719E+00  0.88000000000E+00 0. -1.
        -11    1    4    4    0    0  0.32125912903E-01 -0.84011916389E-02 -0.47897440634E-01  0.58284476845E-01  0.51100000000E-03 0. -1.
         11    1    4    4    0    0  0.69499146645E-01  0.18633850679E-01 -0.38621958442E-01  0.81665589879E-01  0.51100000000E-03 0.  1.
</event>
<event>
 8    1  0.2922807E+004  0.1043930E+01  0.7957747E-01            NaN
         13   -1    0    0    0    0  0.00000000000E+00  0.00000000000E+00  0.74505805969E-08  0.10566000000E+00  0.10566000000E+00 0.  1.
     999900   -1    0    0    0    0 -0.00000000000E+00 -0.00000000000E+00 -0.74505805969E-08  0.93827000000E+00  0.93827000000E+00 0.  1.
     999902    2    1    2    0    0 -0.11460542357E-01  0.86565051842E-02 -0.91838743671E-03  0.10295382472E+01  0.10294376523E+01 0.  0.
     999903    2    3    3    0    0 -0.63737067104E-01  0.11742713498E+00 -0.79527927507E-02  0.14127400284E+00  0.45205654672E-01 0.  0.
         14    1    1    2    0    0  0.11460542357E-01 -0.86565051842E-02  0.91838743671E-03  0.14391752798E-01  0.00000000000E+00 0.  1.
     999901    1    3    3    0    0  0.52276524747E-01 -0.10877062980E+00  0.70344053140E-02  0.88826424436E+00  0.88000000000E+00 0.  1.
        -11    1    4    4    0    0 -0.22520791475E-01  0.48204839527E-01 -0.25213910605E-01  0.58880344866E-01  0.51100000000E-03 0. -1.
         11    1    4    4    0    0 -0.41216275629E-01  0.69222295453E-01  0.17261117854E-01  0.82393657979E-01  0.51100000000E-03 0.  1.
</event>
<event>
 8    1  0.2922807E+004  0.1043930E+01  0.7957747E-01            NaN
         13   -1    0    0    0    0  0.00000000000E+00  0.00000000000E+00  0.74505805969E-08  0.10566000000E+00  0.10566000000E+00 0. -1.
     999900   -1    0    0    0    0 -0.00000000000E+00 -0.00000000000E+00 -0.74505805969E-08  0.93827000000E+00  0.93827000000E+00 0. -1.
     999902    2    1    2    0    0  0.81511025208E-02  0.93814975900E-02 -0.40906733158E-02  0.10308461711E+01  0.10307631357E+01 0.  0.
     999903    2    3    3    0    0  0.13058699724E+00  0.31581809947E-01 -0.11040171081E-01  0.14206515329E+00  0.44835787414E-01 0.  0.
         14    1    1    2    0    0 -0.81511025208E-02 -0.93814975900E-02  0.40906733158E-02  0.13083828855E-01  0.00000000000E+00 0.  1.
     999901    1    3    3    0    0 -0.12243589472E+00 -0.22200312357E-01  0.69494977650E-02  0.88878101786E+00  0.88000000000E+00 0. -1.
        -11    1    4    4    0    0  0.69185673120E-01  0.31361989846E-01  0.11143931488E-01  0.76776820084E-01  0.51100000000E-03 0.  1.
         11    1    4    4    0    0  0.61401324121E-01  0.21982010104E-03 -0.22184102569E-01  0.65288333203E-01  0.51100000000E-03 0. -1.
</event>
<event>
 8    1  0.2922807E+004  0.1043930E+01  0.7957747E-01            NaN
         13   -1    0    0    0    0  0.00000000000E+00  0.00000000000E+00  0.74505805969E-08  0.10566000000E+00  0.10566000000E+00 0.  1.
     999900   -1    0    0    0    0 -0.00000000000E+00 -0.00000000000E+00 -0.74505805969E-08  0.93827000000E+00  0.93827000000E+00 0.  1.
     999902    2    1    2    0    0 -0.34094510328E-02 -0.36153454705E-02 -0.11993417069E-01  0.10309478148E+01  0.10308660726E+01 0.  0.
     999903    2    3    3    0    0 -0.12526561478E+00  0.39128664310E-01 -0.23337147567E-01  0.14145095971E+00  0.47341577185E-01 0.  0.
         14    1    1    2    0    0  0.34094510328E-02  0.36153454705E-02  0.11993417069E-01  0.12982185186E-01  0.00000000000E+00 0.  1.
     999901    1    3    3    0    0  0.12185616375E+00 -0.42744009781E-01  0.11343730498E-01  0.88949685510E+00  0.88000000000E+00 0. -1.
        -11    1    4    4    0    0 -0.37699891323E-01 -0.61786325774E-02  0.57947284390E-02  0.38643205159E-01  0.51100000000E-03 0. -1.
         11    1    4    4    0    0 -0.87565723456E-01  0.45307296888E-01 -0.29131876006E-01  0.10280775455E+00  0.51100000000E-03 0.  1.
</event>
<event>
 8    1  0.2922807E+004  0.1043930E+01  0.7957747E-01            NaN
         13   -1    0    0    0    0  0.00000000000E+00  0.00000000000E+00  0.74505805969E-08  0.10566000000E+00  0.10566000000E+00 0. -1.
     999900   -1    0    0    0    0 -0.00000000000E+00 -0.00000000000E+00 -0.74505805969E-08  0.93827000000E+00  0.93827000000E+00 0.  1.
     999902    2    1    2    0    0 -0.14309460869E-02 -0.83045029225E-02  0.12465654632E-01  0.10288832422E+01  0.10287732117E+01 0.  0.
     999903    2    3    3    0    0  0.11363606266E+00 -0.11944398626E-02 -0.63684114551E-01  0.13810282207E+00  0.45849117717E-01 0.  0.
         14    1    1    2    0    0  0.14309460869E-02  0.83045029225E-02 -0.12465654632E-01  0.15046757820E-01  0.00000000000E+00 0.  1.
     999901    1    3    3    0    0 -0.11506700875E+00 -0.71100630599E-02  0.76149769183E-01  0.89078042011E+00  0.88000000000E+00 0. -1.
        -11    1    4    4    0    0  0.98994847060E-02 -0.14813943283E-01 -0.11172541701E-01  0.21036623353E-01  0.51100000000E-03 0.  1.
         11    1    4    4    0    0  0.10373657795E+00  0.13619503420E-01 -0.52511572850E-01  0.11706619872E+00  0.51100000000E-03 0. -1.
</event>
<event>
 7    1  0.2922807E+004  0.1043930E+01  0.7957747E-01            NaN
         13   -1    0    0    0    0  0.00000000000E+00  0.00000000000E+00  0.74505805969E-08  0.10566000000E+00  0.10566000000E+00 0.  1.
     999900   -1    0    0    0    0 -0.00000000000E+00 -0.00000000000E+00 -0.74505805969E-08  0.93827000000E+00  0.93827000000E+00 0. -1.
     999903    2    1    2    0    0 -0.29519165212E-01  0.34128007194E-01 -0.10195905721E+00  0.12056928035E+00  0.45882458817E-01 0.  0.
         14    1    1    2    0    0  0.10837313816E-01  0.14757589585E-01  0.34711947253E-01  0.39244784408E-01  0.00000000000E+00 0. -1.
     999901    1    1    2    0    0  0.18681851397E-01 -0.48885596779E-01  0.67247109962E-01  0.88411593524E+00  0.88000000000E+00 0. -1.
        -11    1    3    3    0    0 -0.40549989756E-01  0.23101325866E-01 -0.88097487314E-01  0.99696546169E-01  0.51100000000E-03 0. -1.
         11    1    3    3    0    0  0.11030824544E-01  0.11026681328E-01 -0.13861569901E-01  0.20872734185E-01  0.51100000000E-03 0.  1.
</event>
<event>
 8    1  0.2922807E+004  0.1043930E+01  0.7957747E-01            NaN
         13   -1    0    0    0    0  0.00000000000E+00  0.00000000000E+00  0.74505805969E-08  0.10566000000E+00  0.10566000000E+00 0. -1.
     999900   -1    0    0    0    0 -0.00000000000E+00 -0.00000000000E+00 -0.74505805969E-08  0.93827000000E+00  0.93827000000E+00 0. -1.
     999902    2    1    2    0    0 -0.40853043045E-02 -0.62377551569E-03 -0.13095318625E-01  0.10301980600E+01  0.10301065365E+01 0.  0.
     999903    2    3    3    0    0  0.10469536124E+00 -0.62989312790E-01  0.49034856671E-01  0.13914090573E+00  0.45022242132E-01 0.  0.
         14    1    1    2    0    0  0.40853043045E-02  0.62377551569E-03  0.13095318625E-01  0.13731940033E-01  0.00000000000E+00 0. -1.
     999901    1    3    3    0    0 -0.10878066555E+00  0.62365537275E-01 -0.62130175297E-01  0.89105715424E+00  0.88000000000E+00 0. -1.
        -11    1    4    4    0    0  0.28489137723E-01 -0.14337381740E-01 -0.71537484116E-02  0.32689887132E-01  0.51100000000E-03 0. -1.
         11    1    4    4    0    0  0.76206223521E-01 -0.48651931050E-01  0.56188605083E-01  0.10645101860E+00  0.51100000000E-03 0.  1.
</event>
<event>
 8    1  0.2922807E+004  0.1043930E+01  0.7957747E-01            NaN
         13   -1    0    0    0    0  0.00000000000E+00  0.00000000000E+00  0.74505805969E-08  0.10566000000E+00  0.10566000000E+00 0.  1.
     999900   -1    0    0    0    0 -0.00000000000E+00 -0.00000000000E+00 -0.74505805969E-08  0.93827000000E+00  0.93827000000E+00 0.  1.
     999902    2    1    2    0    0 -0.34485823007E-02  0.12321846149E-01  0.81773966750E-02  0.10287447957E+01  0.10286327159E+01 0.  0.
     999903    2    3    3    0    0  0.78964982309E-02 -0.88348400889E-03  0.13361105544E+00  0.13967972817E+00  0.39942171928E-01 0.  0.
         14    1    1    2    0    0  0.34485823007E-02 -0.12321846149E-01 -0.81773966750E-02  0.15185204272E-01  0.00000000000E+00 0. -1.
     999901    1    3    3    0    0 -0.11345080532E-01  0.13205330158E-01 -0.12543365876E+00  0.88906506756E+00  0.88000000000E+00 0.  1.
        -11    1    4    4    0    0  0.16567591807E-01 -0.13911312439E-01  0.48052942229E-01  0.52700627035E-01  0.51100000000E-03 0.  1.
         11    1    4    4    0    0 -0.86710935765E-02  0.13027828430E-01  0.85558113211E-01  0.86979101137E-01  0.51100000000E-03 0. -1.
</event>
<event>
 8    1  0.2922807E+004  0.1043930E+01  0.7957747E-01            NaN
         13   -1    0    0    0    0  0.00000000000E+00  0.00000000000E+00  0.74505805969E-08  0.10566000000E+00  0.10566000000E+00 0. -1.
     999900   -1    0    0    0    0 -0.00000000000E+00 -0.00000000000E+00 -0.74505805969E-08  0.93827000000E+00  0.93827000000E+00 0.  1.
     999902    2    1    2    0    0 -0.40210182994E-02  0.72869551395E-02  0.10918497224E-01  0.10302011295E+01  0.10301096472E+01 0.  0.
     999903    2    3    3    0    0  0.48671783845E-01  0.12394938768E+00  0.85155237650E-02  0.14093602345E+00  0.45365794523E-01 0.  0.
         14    1    1    2    0    0  0.40210182994E-02 -0.72869551395E-02 -0.10918497224E-01  0.13728870493E-01  0.00000000000E+00 0.  1.
     999901    1    3    3    0    0 -0.52692802144E-01 -0.11666243254E+00  0.24029734592E-02  0.88926510605E+00  0.88000000000E+00 0.  1.
        -11    1    4    4    0    0  0.16495074039E-01  0.18672298271E-01  0.17550916446E-01  0.30480124333E-01  0.51100000000E-03 0. -1.
         11    1    4    4    0    0  0.32176709806E-01  0.10527708941E+00 -0.90353926812E-02  0.11045589912E+00  0.51100000000E-03 0.  1.
</event>
<event>
 8    1  0.2922807E+004  0.1043930E+01  0.7957747E-01            NaN
         13   -1    0    0    0    0  0.00000000000E+00  0.00000000000E+00  0.74505805969E-08  0.10566000000E+00  0.10566000000E+00 0.  1.
     999900   -1    0    0    0    0 -0.00000000000E+00 -0.00000000000E+00 -0.74505805969E-08  0.93827000000E+00  0.93827000000E+00 0. -1.
     999902    2    1    2    0    0 -0.81070855916E-02  0.10408096472E-01  0.29674433040E-02  0.10304074622E+01  0.10303187270E+01 0.  0.
     999903    2    3    3    0    0 -0.73333488797E-01 -0.32070654111E-01 -0.10661438341E+00  0.14020124750E+00  0.43398567003E-01 0.  0.
         14    1    1    2    0    0  0.81070855916E-02 -0.10408096472E-01 -0.29674433040E-02  0.13522537806E-01  0.00000000000E+00 0. -1.
     999901    1    3    3    0    0  0.65226403205E-01  0.42478750583E-01  0.10958182671E+00  0.89020621469E+00  0.88000000000E+00 0.  1.
        -11    1    4    4    0    0 -0.20336784545E-01 -0.70573148367E-03 -0.58831275253E-01  0.62253216234E-01  0.51100000000E-03 0. -1.
         11    1    4    4    0    0 -0.52996704251E-01 -0.31364922627E-01 -0.47783108156E-01  0.77948031271E-01  0.51100000000E-03 0.  1.
</event>
<event>
 8    1  0.2922807E+004  0.1043930E+01  0.7957747E-01            NaN
         13   -1    0    0    0    0  0.00000000000E+00  0.00000000000E+00  0.74505805969E-08  0.10566000000E+00  0.10566000000E+00 0. -1.
     999900   -1    0    0    0    0 -0.00000000000E+00 -0.00000000000E+00 -0.74505805969E-08  0.93827000000E+00  0.93827000000E+00 0. -1.
     999902    2    1    2    0    0 -0.96268112017E-02 -0.85161061147E-02  0.52032034557E-02  0.10300637502E+01  0.10299704154E+01 0.  0.
     999903    2    3    3    0    0 -0.42690482298E-01 -0.20076434337E-01 -0.12395366372E+00  0.13994671078E+00  0.44665765571E-01 0.  0.
         14    1    1    2    0    0  0.96268112017E-02  0.85161061147E-02 -0.52032034557E-02  0.13866249798E-01  0.00000000000E+00 0.  1.
     999901    1    3    3    0    0  0.33063671097E-01  0.11560328222E-01  0.12915686717E+00  0.89011703942E+00  0.88000000000E+00 0.  1.
        -11    1    4    4    0    0 -0.31821347733E-02 -0.24457843753E-01 -0.56486373176E-01  0.61638328809E-01  0.51100000000E-03 0.  1.
         11    1    4    4    0    0 -0.39508347525E-01  0.43814094163E-02 -0.67467290541E-01  0.78308381968E-01  0.51100000000E-03 0. -1.
</event>
<event>
 8    1  0.2922807E+004  0.1043930E+01  0.7957747E-01            NaN
         13   -1    0    0    0    0  0.00000000000E+00  0.00000000000E+00  0.74505805969E-08  0.10566000000E+00  0.10566000000E+00 0. -1.
     999900   -1    0    0    0    0 -0.00000000000E+00 -0.00000000000E+00 -0.74505805969E-08  0.93827000000E+00  0.93827000000E+00 0.  1.
     999902    2    1    2    0    0 -0.54854170641E-02  0.85749524053E-02  0.93702965307E-02  0.10300944636E+01  0.10300015446E+01 0.  0.
     999903    2    3    3    0    0  0.61047367339E-01 -0.87611076590E-01  0.78105493499E-01  0.13969966869E+00  0.44866998099E-01 0.  0.
         14    1    1    2    0    0  0.54854170641E-02 -0.85749524053E-02 -0.93702965307E-02  0.13835536354E-01  0.00000000000E+00 0.  1.
     999901    1    3    3    0    0 -0.66532784403E-01  0.96186028995E-01 -0.68735196969E-01  0.89039479495E+00  0.88000000000E+00 0.  1.
        -11    1    4    4    0    0  0.18264137239E-01 -0.30626766990E-01  0.24168633724E-02  0.35744648759E-01  0.51100000000E-03 0.  1.
         11    1    4    4    0    0  0.42783230100E-01 -0.56984309600E-01  0.75688630127E-01  0.10395501994E+00  0.51100000000E-03 0. -1.
</event>
<event>
 8    1  0.2922807E+004  0.1043930E+01  0.7957747E-01            NaN
         13   -1    0    0    0    0  0.00000000000E+00  0.00000000000E+00  0.74505805969E-08  0.10566000000E+00  0.10566000000E+00 0. -1.
     999900   -1    0    0    0    0 -0.00000000000E+00 -0.00000000000E+00 -0.74505805969E-08  0.93827000000E+00  0.93827000000E+00 0.  1.
     999902    2    1    2    0    0 -0.19306209921E-02  0.12691020751E-01 -0.30161144988E-02  0.10307434064E+01  0.10306590530E+01 0.  0.
     999903    2    3    3    0    0 -0.83027318148E-01  0.30484801422E-01  0.10014405710E+00  0.14083593144E+00  0.44531659910E-01 0.  0.
         14    1    1    2    0    0  0.19306209921E-02 -0.12691020751E-01  0.30161144988E-02  0.13186593639E-01  0.00000000000E+00 0.  1.
     999901    1    3    3    0    0  0.81096697156E-01 -0.17793780670E-01 -0.10316017160E+00  0.88990747492E+00  0.88000000000E+00 0.  1.
        -11    1    4    4    0    0 -0.46353366035E-01 -0.23540536189E-02  0.30467640866E-01  0.55522197112E-01  0.51100000000E-03 0.  1.
         11    1    4    4    0    0 -0.36673952114E-01  0.32838855041E-01  0.69676416237E-01  0.85313734326E-01  0.51100000000E-03 0. -1.
</event>
<event>
 8    1  0.2922807E+004  0.1043930E+01  0.7957747E-01            NaN
         13   -1    0    0    0    0  0.00000000000E+00  0.00000000000E+00  0.74505805969E-08  0.10566000000E+00  0.10566000000E+00 0. -1.
     999900   -1    0    0    0    0 -0.00000000000E+00 -0.00000000000E+00 -0.74505805969E-08  0.93827000000E+00  0.93827000000E+00 0. -1.
     999902    2    1    2    0    0 -0.72025431146E-02  0.11463223301E-01 -0.68957278270E-02  0.10287368049E+01  0.10286246062E+01 0.  0.
     999903    2    3    3    0    0  0.61832690326E-01  0.49089403953E-01 -0.10611598016E+00  0.13967761034E+00  0.44901919891E-01 0.  0.
         14    1    1    2    0    0  0.72025431146E-02 -0.11463223301E-01  0.68957278270E-02  0.15193195122E-01  0.00000000000E+00 0.  1.
     999901    1    3    3    0    0 -0.69035233441E-01 -0.37626180652E-01  0.99220252335E-01  0.88905919454E+00  0.88000000000E+00 0.  1.
        -11    1    4    4    0    0 -0.24797808487E-02  0.32080040206E-02 -0.28966685121E-01  0.29253556549E-01  0.51100000000E-03 0.  1.
         11    1    4    4    0    0  0.64312471175E-01  0.45881399933E-01 -0.77149295041E-01  0.11042405379E+00  0.51100000000E-03 0. -1.
</event>
<event>
 8    1  0.2922807E+004  0.1043930E+01  0.7957747E-01            NaN
         13   -1    0    0    0    0  0.00000000000E+00  0.00000000000E+00  0.74505805969E-08  0.10566000000E+00  0.10566000000E+00 0.  1.
     999900   -1    0    0    0    0 -0.00000000000E+00 -0.00000000000E+00 -0.74505805969E-08  0.93827000000E+00  0.93827000000E+00 0.  1.
     999902    2    1    2    0    0  0.64934630263E-02  0.78282030899E-02 -0.97649459637E-02  0.10298303548E+01  0.10297338295E+01 0.  0.
     999903    2    3    3    0    0  0.17563434801E-01  0.13233611310E+00 -0.97831501914E-02  0.14099698217E+00  0.44307086143E-01 0.  0.
         14    1    1    2    0    0 -0.64934630263E-02 -0.78282030899E-02  0.97649459637E-02  0.14099645221E-01  0.00000000000E+00 0.  1.
     999901    1    3    3    0    0 -0.11069971775E-01 -0.12450791001E+00  0.18204227700E-04  0.88883337261E+00  0.88000000000E+00 0.  1.
        -11    1    4    4    0    0  0.24499784845E-01  0.11004099731E+00 -0.21655802879E-01  0.11479762831E+00  0.51100000000E-03 0. -1.
         11    1    4    4    0    0 -0.69363500445E-02  0.22295115782E-01  0.11872652688E-01  0.26199353857E-01  0.51100000000E-03 0.  1.
</event>
<event>
 8    1  0.2922807E+004  0.1043930E+01  0.7957747E-01            NaN
         13   -1    0    0    0    0  0.00000000000E+00  0.00000000000E+00  0.74505805969E-08  0.10566000000E+00  0.10566000000E+00 0. -1.
     999900   -1    0    0    0    0 -0.00000000000E+00 -0.00000000000E+00 -0.74505805969E-08  0.93827000000E+00  0.93827000000E+00 0. -1.
     999902    2    1    2    0    0 -0.11065587829E-01  0.83676607461E-02 -0.49150680906E-02  0.10292118862E+01  0.10291066435E+01 0.  0.
     999903    2    3    3    0    0  0.20375833383E-01 -0.80158059343E-01 -0.10177532122E+00  0.13892694598E+00  0.45847478096E-01 0.  0.
         14    1    1    2    0    0  0.11065587829E-01 -0.83676607461E-02  0.49150680906E-02  0.14718113830E-01  0.00000000000E+00 0. -1.
     999901    1    3    3    0    0 -0.31441421212E-01  0.88525720089E-01  0.96860253128E-01  0.89028494019E+00  0.88000000000E+00 0.  1.
        -11    1    4    4    0    0  0.76396897904E-02 -0.67429140459E-01 -0.50532224984E-01  0.84609814596E-01  0.51100000000E-03 0. -1.
         11    1    4    4    0    0  0.12736143592E-01 -0.12728918884E-01 -0.51243096235E-01  0.54317131389E-01  0.51100000000E-03 0.  1.
</event>
<event>
 8    1  0.2922807E+004  0.1043930E+01  0.7957747E-01            NaN
         13   -1    0    0    0    0  0.00000000000E+00  0.00000000000E+00  0.74505805969E-08  0.10566000000E+00  0.10566000000E+00 0.  1.
     999900   -1    0    0    0    0 -0.00000000000E+00 -0.00000000000E+00 -0.74505805969E-08  0.93827000000E+00  0.93827000000E+00 0. -1.
     999902    2    1    2    0    0  0.10165599926E-01 -0.63591976186E-02  0.80372321593E-02  0.10294947682E+01  0.10293935602E+01 0.  0.
     999903    2    3    3    0    0  0.45678816317E-02  0.12632467181E+00 -0.34788181108E-01  0.13850073922E+00  0.44648056744E-01 0.  0.
         14    1    1    2    0    0 -0.10165599926E-01  0.63591976186E-02 -0.80372321593E-02  0.14435231796E-01  0.00000000000E+00 0. -1.
     999901    1    3    3    0    0  0.55977182944E-02 -0.13268386943E+00  0.42825413267E-01  0.89099402898E+00  0.88000000000E+00 0. -1.
        -11    1    4    4    0    0  0.57677873554E-02  0.86816930770E-01 -0.18216911324E-02  0.87028883245E-01  0.51100000000E-03 0.  1.
         11    1    4    4    0    0 -0.11999057237E-02  0.39507741038E-01 -0.32966489976E-01  0.51471855979E-01  0.51100000000E-03 0. -1.
</event>
<event>
 8    1  0.2922807E+004  0.1043930E+01  0.7957747E-01            NaN
         13   -1    0    0    0    0  0.00000000000E+00  0.00000000000E+00  0.74505805969E-08  0.10566000000E+00  0.10566000000E+00 0. -1.
     999900   -1    0    0    0    0 -0.00000000000E+00 -0.00000000000E+00 -0.74505805969E-08  0.93827000000E+00  0.93827000000E+00 0. -1.
     999902    2    1    2    0    0 -0.22258374964E-02  0.12753199976E-02 -0.12706005196E-01  0.10309676174E+01  0.10308861260E+01 0.  0.
     999903    2    3    3    0    0 -0.96558628324E-01 -0.77219428619E-01 -0.52701736954E-01  0.14155221418E+00  0.44420123843E-01 0.  0.
         14    1    1    2    0    0  0.22258374964E-02 -0.12753199976E-02  0.12706005196E-01  0.12962382563E-01  0.00000000000E+00 0. -1.
     999901    1    3    3    0    0  0.94332790828E-01  0.78494748616E-01  0.39995731758E-01  0.88941540325E+00  0.88000000000E+00 0. -1.
        -11    1    4    4    0    0 -0.32336503600E-01 -0.37144299184E-01 -0.42717167054E-01  0.65194830386E-01  0.51100000000E-03 0. -1.
         11    1    4    4    0    0 -0.64222124724E-01 -0.40075129435E-01 -0.99845699005E-02  0.76357383798E-01  0.51100000000E-03 0.  1.
</event>
<event>
 8    1  0.2922807E+004  0.1043930E+01  0.7957747E-01            NaN
         13   -1    0    0    0    0  0.00000000000E+00  0.00000000000E+00  0.74505805969E-08  0.10566000000E+00  0.10566000000E+00 0.  1.
     999900   -1    0    0    0    0 -0.00000000000E+00 -0.00000000000E+00 -0.74505805969E-08  0.93827000000E+00  0.93827000000E+00 0. -1.
     999902    2    1    2    0    0 -0.88219853817E-02 -0.25619291538E-02 -0.10122577138E-01  0.10302604179E+01  0.10301697293E+01 0.  0.
     999903    2    3    3    0    0  0.76290425195E-01 -0.57079799571E-01  0.90179279138E-01  0.13881396241E+00  0.45372693080E-01 0.  0.
         14    1    1    2    0    0  0.88219853817E-02  0.25619291538E-02  0.10122577138E-01  0.13669582107E-01  0.00000000000E+00 0.  1.
     999901    1    3    3    0    0 -0.85112410576E-01  0.54517870418E-01 -0.10030185628E+00  0.89144645549E+00  0.88000000000E+00 0. -1.
        -11    1    4    4    0    0  0.64112144547E-01 -0.63884264063E-01  0.84232648390E-01  0.12364047254E+00  0.51100000000E-03 0. -1.
         11    1    4    4    0    0  0.12178280648E-01  0.68044644910E-02  0.59466307479E-02  0.15173489869E-01  0.51100000000E-03 0.  1.
</event>
<event>
 8    1  0.2922807E+004  0.1043930E+01  0.7957747E-01            NaN
         13   -1    0    0    0    0  0.00000000000E+00  0.00000000000E+00  0.74505805969E-08  0.10566000000E+00  0.10566000000E+00 0. -1.
     999900   -1    0    0    0    0 -0.00000000000E+00 -0.00000000000E+00 -0.74505805969E-08  0.93827000000E+00  0.93827000000E+00 0.  1.
     999902    2    1    2    0    0  0.84512440611E-02 -0.96627819452E-02 -0.50149512160E-02  0.10301480329E+01  0.10300558369E+01 0.  0.
     999903    2    3    3    0    0 -0.13289354610E-01 -0.21238576467E-01  0.12968672416E+00  0.13955767029E+00  0.45055663764E-01 0.  0.
         14    1    1    2    0    0 -0.84512440611E-02  0.96627819452E-02  0.50149512160E-02  0.13781967087E-01  0.00000000000E+00 0. -1.
     999901    1    3    3    0    0  0.21740598671E-01  0.11575794522E-01 -0.13470167537E+00  0.89059036262E+00  0.88000000000E+00 0.  1.
        -11    1    4    4    0    0 -0.12171888524E-01  0.97568311167E-02  0.18907706521E-01  0.24517608173E-01  0.51100000000E-03 0. -1.
         11    1    4    4    0    0 -0.11174660861E-02 -0.30995407584E-01  0.11077901764E+00  0.11504006212E+00  0.51100000000E-03 0.  1.
</event>
<event>
 8    1  0.2922807E+004  0.1043930E+01  0.7957747E-01            NaN
         13   -1    0    0    0    0  0.00000000000E+00  0.00000000000E+00  0.74505805969E-08  0.10566000000E+00  0.10566000000E+00 0.  1.
     999900   -1    0    0    0    0 -0.00000000000E+00 -0.00000000000E+00 -0.74505805969E-08  0.93827000000E+00  0.93827000000E+00 0. -1.
     999902    2    1    2    0    0  0.12174125160E-01 -0.34535077879E-02 -0.65845257614E-02  0.10296649371E+01  0.10295661177E+01 0.  0.
     999903    2    3    3    0    0  0.30238464088E-01 -0.11474585333E+00 -0.60763902705E-01  0.14081865603E+00  0.45350484550E-01 0.  0.
         14    1    1    2    0    0 -0.12174125160E-01  0.34535077879E-02  0.65845257614E-02  0.14265062880E-01  0.00000000000E+00 0.  1.
     999901    1    3    3    0    0 -0.18064338928E-01  0.11129234554E+00  0.54179376943E-01  0.88884628109E+00  0.88000000000E+00 0.  1.
        -11    1    4    4    0    0  0.39197277735E-01 -0.62290809204E-01 -0.31179970568E-01  0.79931365425E-01  0.51100000000E-03 0. -1.
         11    1    4    4    0    0 -0.89588136465E-02 -0.52455044123E-01 -0.29583932137E-01  0.60887290608E-01  0.51100000000E-03 0.  1.
</event>
<event>
 8    1  0.2922807E+004  0.1043930E+01  0.7957747E-01            NaN
         13   -1    0    0    0    0  0.00000000000E+00  0.00000000000E+00  0.74505805969E-08  0.10566000000E+00  0.10566000000E+00 0. -1.
     999900   -1    0    0    0    0 -0.00000000000E+00 -0.00000000000E+00 -0.74505805969E-08  0.93827000000E+00  0.93827000000E+00 0. -1.
     999902    2    1    2    0    0  0.21130243805E-03 -0.88633782678E-02 -0.96762838453E-02  0.10308061823E+01  0.10307226352E+01 0.  0.
     999903    2    3    3    0    0 -0.97475092018E-01  0.80885501787E-01 -0.40251537084E-01  0.14033869872E+00  0.45065576187E-01 0.  0.
         14    1    1    2    0    0 -0.21130243805E-03  0.88633782678E-02  0.96762838453E-02  0.13123817741E-01  0.00000000000E+00 0. -1.
     999901    1    3    3    0    0  0.97686394456E-01 -0.89748880054E-01  0.30575253239E-01  0.89046748354E+00  0.88000000000E+00 0.  1.
        -11    1    4    4    0    0 -0.25473911742E-01  0.33472401388E-01 -0.33659880535E-01  0.53875509397E-01  0.51100000000E-03 0.  1.
         11    1    4    4    0    0 -0.72001180276E-01  0.47413100399E-01 -0.65916565492E-02  0.86463189322E-01  0.51100000000E-03 0. -1.
</event>
<event>
 8    1  0.2922807E+004  0.1043930E+01  0.7957747E-01            NaN
         13   -1    0    0    0    0  0.00000000000E+00  0.00000000000E+00  0.74505805969E-08  0.10566000000E+00  0.10566000000E+00 0. -1.
     999900   -1    0    0    0    0 -0.00000000000E+00 -0.00000000000E+00 -0.74505805969E-08  0.93827000000E+00  0.93827000000E+00 0. -1.
     999902    2    1    2    0    0  0.93184075472E-02 -0.99265274351E-02 -0.30608124469E-02  0.10299751715E+01  0.10298806322E+01 0.  0.
     999903    2    3    3    0    0  0.69388557070E-01 -0.11283435547E+00 -0.12497135359E-01  0.14189438229E+00  0.49309975748E-01 0.  0.
         14    1    1    2    0    0 -0.93184075472E-02  0.99265274351E-02  0.30608124469E-02  0.13954828518E-01  0.00000000000E+00 0. -1.
     999901    1    3    3    0    0 -0.60070149523E-01  0.10290782803E+00  0.94363229118E-02  0.88808078919E+00  0.88000000000E+00 0.  1.
        -11    1    4    4    0    0  0.17099191336E-01 -0.47496082233E-01 -0.26544951624E-01  0.57036442294E-01  0.51100000000E-03 0.  1.
         11    1    4    4    0    0  0.52289365735E-01 -0.65338273235E-01  0.14047816265E-01  0.84857940001E-01  0.51100000000E-03 0. -1.
</event>
<event>
 8    1  0.2922807E+004  0.1043930E+01  0.7957747E-01            NaN
         13   -1    0    0    0    0  0.00000000000E+00  0.00000000000E+00  0.74505805969E-08  0.10566000000E+00  0.10566000000E+00 0. -1.
     999900   -1    0    0    0    0 -0.00000000000E+00 -0.00000000000E+00 -0.74505805969E-08  0.93827000000E+00  0.93827000000E+00 0.  1.
     999902    2    1    2    0    0 -0.61483313225E-02  0.95972484720E-02  0.83875369883E-02  0.10297786773E+01  0.10296814383E+01 0.  0.
     999903    2    3    3    0    0  0.31032497139E-01 -0.10677916613E+00 -0.68269640217E-01  0.13803756766E+00  0.45042425676E-01 0.  0.
         14    1    1    2    0    0  0.61483313225E-02 -0.95972484720E-02 -0.83875369883E-02  0.14151322660E-01  0.00000000000E+00 0. -1.
     999901    1    3    3    0    0 -0.37180828462E-01  0.11637641460E+00  0.76657177205E-01  0.89174110968E+00  0.88000000000E+00 0. -1.
        -11    1    4    4    0    0  0.33734840387E-01 -0.80622050115E-01 -0.69567431777E-01  0.11170426628E+00  0.51100000000E-03 0. -1.
         11    1    4    4    0    0 -0.27023432476E-02 -0.26157116018E-01  0.12977915597E-02  0.26333301375E-01  0.51100000000E-03 0.  1.
</event>
<event>
 8    1  0.2922807E+004  0.1043930E+01  0.7957747E-01            NaN
         13   -1    0    0    0    0  0.00000000000E+00  0.00000000000E+00  0.74505805969E-08  0.10566000000E+00  0.10566000000E+00 0. -1.
     999900   -1    0    0    0    0 -0.00000000000E+00 -0.00000000000E+00 -0.74505805969E-08  0.93827000000E+00  0.93827000000E+00 0.  1.
     999902    2    1    2    0    0  0.16646969767E-01 -0.17683257026E-02  0.82471085160E-03  0.10271690714E+01  0.10270323133E+01 0.  0.
     999903    2    3    3    0    0 -0.48032513908E-01 -0.48753741559E-01 -0.10947453372E+00  0.13668774751E+00  0.44886713827E-01 0.  0.
         14    1    1    2    0    0 -0.16646969767E-01  0.17683257026E-02 -0.82471085160E-03  0.16760928561E-01  0.00000000000E+00 0.  1.
     999901    1    3    3    0    0  0.64679483675E-01  0.46985415857E-01  0.11029924457E+00  0.89048132393E+00  0.88000000000E+00 0. -1.
        -11    1    4    4    0    0 -0.10112178863E-01 -0.27885310168E-01 -0.77169569318E-01  0.82675572174E-01  0.51100000000E-03 0. -1.
         11    1    4    4    0    0 -0.37920335045E-01 -0.20868431392E-01 -0.32304964402E-01  0.54012175337E-01  0.51100000000E-03 0.  1.
</event>
<event>
 8    1  0.2922807E+004  0.1043930E+01  0.7957747E-01            NaN
         13   -1    0    0    0    0  0.00000000000E+00  0.00000000000E+00  0.74505805969E-08  0.10566000000E+00  0.10566000000E+00 0.  1.
     999900   -1    0    0    0    0 -0.00000000000E+00 -0.00000000000E+00 -0.74505805969E-08  0.93827000000E+00  0.93827000000E+00 0.  1.
     999902    2    1    2    0    0 -0.10799722449E-01  0.68890517081E-03 -0.85685766424E-02  0.10301267721E+01  0.10300342895E+01 0.  0.
     999903    2    3    3    0    0 -0.11519248022E+00 -0.64354730816E-01 -0.25836053566E-01  0.14140483119E+00  0.43783395733E-01 0.  0.
         14    1    1    2    0    0  0.10799722449E-01 -0.68890517081E-03  0.85685766424E-02  0.13803227919E-01  0.00000000000E+00 0.  1.
     999901    1    3    3    0    0  0.10439275777E+00  0.65043635987E-01  0.17267476924E-01  0.88872194089E+00  0.88000000000E+00 0.  1.
        -11    1    4    4    0    0 -0.92334458444E-01 -0.47257601176E-01 -0.12593198242E-02  0.10373417996E+00  0.51100000000E-03 0.  1.
         11    1    4    4    0    0 -0.22858021780E-01 -0.17097129640E-01 -0.24576733742E-01  0.37670651229E-01  0.51100000000E-03 0. -1.
</event>
<event>
 8    1  0.2922807E+004  0.1043930E+01  0.7957747E-01            NaN
         13   -1    0    0    0    0  0.00000000000E+00  0.00000000000E+00  0.74505805969E-08  0.10566000000E+00  0.10566000000E+00 0. -1.
     999900   -1    0    0    0    0 -0.00000000000E+00 -0.00000000000E+00 -0.74505805969E-08  0.93827000000E+00  0.93827000000E+00 0. -1.
     999902    2    1    2    0    0 -0.63582265342E-02  0.40476853608E-02 -0.11675257723E-01  0.10300331498E+01  0.10299393998E+01 0.  0.
     999903    2    3    3    0    0 -0.10917209343E+00 -0.49424233090E-01  0.56845801465E-01  0.13979437690E+00  0.44155655003E-01 0.  0.
         14    1    1    2    0    0  0.63582265342E-02 -0.40476853608E-02  0.11675257723E-01  0.13896850159E-01  0.00000000000E+00 0. -1.
     999901    1    3    3    0    0  0.10281386690E+00  0.53471918451E-01 -0.68521059188E-01  0.89023877294E+00  0.88000000000E+00 0. -1.
        -11    1    4    4    0    0 -0.13135473725E-01 -0.20576889166E-01  0.24096167135E-01  0.34305035044E-01  0.51100000000E-03 0.  1.
         11    1    4    4    0    0 -0.96036619707E-01 -0.28847343924E-01  0.32749634330E-01  0.10548934186E+00  0.51100000000E-03 0. -1.
</event>
<event>
 8    1  0.2922807E+004  0.1043930E+01  0.7957747E-01            NaN
         13   -1    0    0    0    0  0.00000000000E+00  0.00000000000E+00  0.74505805969E-08  0.10566000000E+00  0.10566000000E+00 0. -1.
     999900   -1    0    0    0    0 -0.00000000000E+00 -0.00000000000E+00 -0.74505805969E-08  0.93827000000E+00  0.93827000000E+00 0. -1.
     999902    2    1    2    0    0  0.65681387035E-02 -0.97339143452E-02 -0.84103117698E-02  0.10294862166E+01  0.10293848878E+01 0.  0.
     999903    2    3    3    0    0 -0.29166827473E-01  0.10914188417E+00  0.64595628805E-01  0.13778093422E+00  0.45258544721E-01 0.  0.
         14    1    1    2    0    0 -0.65681387035E-02  0.97339143452E-02  0.84103117698E-02  0.14443783388E-01  0.00000000000E+00 0. -1.
     999901    1    3    3    0    0  0.35734966176E-01 -0.11887579851E+00 -0.73005940574E-01  0.89170528239E+00  0.88000000000E+00 0. -1.
        -11    1    4    4    0    0 -0.17408472496E-01  0.79339443268E-01  0.21403287215E-01  0.84000976169E-01  0.51100000000E-03 0. -1.
         11    1    4    4    0    0 -0.11758354976E-01  0.29802440900E-01  0.43192341589E-01  0.53779958054E-01  0.51100000000E-03 0.  1.
</event>
<event>
 8    1  0.2922807E+004  0.1043930E+01  0.7957747E-01            NaN
         13   -1    0    0    0    0  0.00000000000E+00  0.00000000000E+00  0.74505805969E-08  0.10566000000E+00  0.10566000000E+00 0.  1.
     999900   -1    0    0    0    0 -0.00000000000E+00 -0.00000000000E+00 -0.74505805969E-08  0.93827000000E+00  0.93827000000E+00 0.  1.
     999902    2    1    2    0    0  0.72518991092E-03 -0.58139580644E-02 -0.12612009146E-01  0.10300234985E+01  0.10299296174E+01 0.  0.
     999903    2    3    3    0    0  0.10683908859E+00 -0.22758049933E-01 -0.77344701454E-01  0.14112666356E+00  0.44743855850E-01 0.  0.
         14    1    1    2    0    0 -0.72518991092E-03  0.58139580644E-02  0.12612009146E-01  0.13906501482E-01  0.00000000000E+00 0.  1.
     999901    1    3    3    0    0 -0.10611389868E+00  0.16944091869E-01  0.64732692308E-01  0.88889683496E+00  0.88000000000E+00 0. -1.
        -11    1    4    4    0    0  0.14230856727E-01 -0.86032941186E-02  0.39362230519E-02  0.17096459452E-01  0.51100000000E-03 0.  1.
         11    1    4    4    0    0  0.92608231867E-01 -0.14154755815E-01 -0.81280924506E-01  0.12403020411E+00  0.51100000000E-03 0. -1.
</event>
<event>
 8    1  0.2922807E+004  0.1043930E+01  0.7957747E-01            NaN
         13   -1    0    0    0    0  0.00000000000E+00  0.00000000000E+00  0.74505805969E-08  0.10566000000E+00  0.10566000000E+00 0.  1.
     999900   -1    0    0    0    0 -0.00000000000E+00 -0.00000000000E+00 -0.74505805969E-08  0.93827000000E+00  0.93827000000E+00 0. -1.
     999902    2    1    2    0    0 -0.94662265221E-03  0.10714137881E-01  0.90736306154E-02  0.10298580557E+01  0.10297619119E+01 0.  0.
     999903    2    3    3    0    0  0.11475958228E+00  0.44480462191E-01 -0.48690130393E-01  0.13976550845E+00  0.44893154406E-01 0.  0.
         14    1    1    2    0    0  0.94662265221E-03 -0.10714137881E-01 -0.90736306154E-02  0.14071944341E-01  0.00000000000E+00 0. -1.
     999901    1    3    3    0    0 -0.11570620493E+00 -0.33766324309E-01  0.57763761009E-01  0.89009254721E+00  0.88000000000E+00 0.  1.
        -11    1    4    4    0    0  0.10697262309E+00  0.37083114180E-01 -0.28282074551E-01  0.11669805616E+00  0.51100000000E-03 0. -1.
         11    1    4    4    0    0  0.77869591849E-02  0.73973480104E-02 -0.20408055843E-01  0.23067452291E-01  0.51100000000E-03 0.  1.
</event>
<event>
 8    1  0.2922807E+004  0.1043930E+01  0.7957747E-01            NaN
         13   -1    0    0    0    0  0.00000000000E+00  0.00000000000E+00  0.74505805969E-08  0.10566000000E+00  0.10566000000E+00 0. -1.
     999900   -1    0    0    0    0 -0.00000000000E+00 -0.00000000000E+00 -0.74505805969E-08  0.93827000000E+00  0.93827000000E+00 0. -1.
     999902    2    1    2    0    0 -0.85071262161E-02  0.99022072554E-02  0.34934713709E-02  0.10304159611E+01  0.10303273381E+01 0.  0.
     999903    2    3    3    0    0 -0.74690126063E-01  0.99103795877E-01 -0.51344320504E-01  0.14174037559E+00  0.45320166978E-01 0.  0.
         14    1    1    2    0    0  0.85071262161E-02 -0.99022072554E-02 -0.34934713709E-02  0.13514038893E-01  0.00000000000E+00 0.  1.
     999901    1    3    3    0    0  0.66182999847E-01 -0.89201588622E-01  0.54837791875E-01  0.88867558552E+00  0.88000000000E+00 0. -1.
        -11    1    4    4    0    0 -0.64437650615E-01  0.65907265530E-01 -0.18676940869E-01  0.94048220120E-01  0.51100000000E-03 0. -1.
         11    1    4    4    0    0 -0.10252475448E-01  0.33196530347E-01 -0.32667379635E-01  0.47692155467E-01  0.51100000000E-03 0.  1.
</event>
<event>
 8    1  0.2922807E+004  0.1043930E+01  0.7957747E-01            NaN
         13   -1    0    0    0    0  0.00000000000E+00  0.00000000000E+00  0.74505805969E-08  0.10566000000E+00  0.10566000000E+00 0. -1.
     999900   -1    0    0    0    0 -0.00000000000E+00 -0.00000000000E+00 -0.74505805969E-08  0.93827000000E+00  0.93827000000E+00 0. -1.
     999902    2    1    2    0    0 -0.61373822359E-02  0.26700106504E-02  0.12109161115E-01  0.10300942420E+01  0.10300013200E+01 0.  0.
     999903    2    3    3    0    0  0.44021660016E-02 -0.12133270538E+00  0.53911941006E-01  0.14035538810E+00  0.45300476010E-01 0.  0.
         14    1    1    2    0    0  0.61373822359E-02 -0.26700106504E-02 -0.12109161115E-01  0.13835758038E-01  0.00000000000E+00 0.  1.
     999901    1    3    3    0    0 -0.10539548237E-01  0.12400271603E+00 -0.41802779891E-01  0.88973885386E+00  0.88000000000E+00 0.  1.
        -11    1    4    4    0    0 -0.61088507061E-02 -0.11036932746E+00  0.34696252447E-01  0.11585679763E+00  0.51100000000E-03 0. -1.
         11    1    4    4    0    0  0.10511016708E-01 -0.10963377916E-01  0.19215688559E-01  0.24498590477E-01  0.51100000000E-03 0.  1.
</event>
<event>
 8    1  0.2922807E+004  0.1043930E+01  0.7957747E-01            NaN
         13   -1    0    0    0    0  0.00000000000E+00  0.00000000000E+00  0.74505805969E-08  0.10566000000E+00  0.10566000000E+00 0. -1.
     999900   -1    0    0    0    0 -0.00000000000E+00 -0.00000000000E+00 -0.74505805969E-08  0.93827000000E+00  0.93827000000E+00 0. -1.
     999902    2    1    2    0    0 -0.29178542751E-02 -0.88099661399E-02 -0.85235731424E-02  0.10313291795E+01  0.10312521980E+01 0.  0.
     999903    2    3    3    0    0  0.10081061962E+00  0.75116927574E-01  0.41635848982E-01  0.13985888424E+00  0.44962537125E-01 0.  0.
         14    1    1    2    0    0  0.29178542751E-02  0.88099661399E-02  0.85235731424E-02  0.12600820452E-01  0.00000000000E+00 0. -1.
     999901    1    3    3    0    0 -0.10372847389E+00 -0.83926893714E-01 -0.50159422125E-01  0.89147029531E+00  0.88000000000E+00 0.  1.
        -11    1    4    4    0    0  0.38765034115E-01  0.55798266563E-01  0.27829647738E-01  0.73422917645E-01  0.51100000000E-03 0. -1.
         11    1    4    4    0    0  0.62045585504E-01  0.19318661011E-01  0.13806201244E-01  0.66435966596E-01  0.51100000000E-03 0.  1.
</event>
<event>
 7    1  0.2922807E+004  0.1043930E+01  0.7957747E-01            NaN
         13   -1    0    0    0    0  0.00000000000E+00  0.00000000000E+00  0.74505805969E-08  0.10566000000E+00  0.10566000000E+00 0.  1.
     999900   -1    0    0    0    0 -0.00000000000E+00 -0.00000000000E+00 -0.74505805969E-08  0.93827000000E+00  0.93827000000E+00 0. -1.
     999903    2    1    2    0    0  0.61498965550E-01 -0.69251074033E-01 -0.24325301371E-01  0.10569622057E+00  0.44745242624E-01 0.  0.
         14    1    1    2    0    0 -0.25545712195E-01 -0.42436285124E-01  0.88179962656E-02  0.50310821548E-01  0.00000000000E+00 0.  1.
     999901    1    1    2    0    0 -0.35953253355E-01  0.11168735916E+00  0.15507305106E-01  0.88792295788E+00  0.88000000000E+00 0.  1.
        -11    1    3    3    0    0  0.45567865673E-01 -0.50522711680E-01  0.40349411118E-02  0.68158027028E-01  0.51100000000E-03 0. -1.
         11    1    3    3    0    0  0.15931099878E-01 -0.18728362353E-01 -0.28360242483E-01  0.37538193542E-01  0.51100000000E-03 0.  1.
</event>
<event>
 8    1  0.2922807E+004  0.1043930E+01  0.7957747E-01            NaN
         13   -1    0    0    0    0  0.00000000000E+00  0.00000000000E+00  0.74505805969E-08  0.10566000000E+00  0.10566000000E+00 0. -1.
     999900   -1    0    0    0    0 -0.00000000000E+00 -0.00000000000E+00 -0.74505805969E-08  0.93827000000E+00  0.93827000000E+00 0. -1.
     999902    2    1    2    0    0 -0.10112423511E-01 -0.96522811320E-02 -0.72176309740E-03  0.10299318365E+01  0.10298367051E+01 0.  0.
     999903    2    3    3    0    0 -0.11082129308E+00  0.37985477576E-01  0.63121762667E-01  0.14061320502E+00  0.45425334311E-01 0.  0.
         14    1    1    2    0    0  0.10112423511E-01  0.96522811320E-02  0.72176309740E-03  0.13998163532E-01  0.00000000000E+00 0. -1.
     999901    1    3    3    0    0  0.10070886956E+00 -0.47637758708E-01 -0.63843525765E-01  0.88931863145E+00  0.88000000000E+00 0. -1.
        -11    1    4    4    0    0 -0.93777473885E-01  0.45147885568E-01  0.41216857286E-01  0.11194479275E+00  0.51100000000E-03 0. -1.
         11    1    4    4    0    0 -0.17043819191E-01 -0.71624079919E-02  0.21904905381E-01  0.28668412262E-01  0.51100000000E-03 0.  1.
</event>
<event>
 8    1  0.2922807E+004  0.1043930E+01  0.7957747E-01            NaN
         13   -1    0    0    0    0  0.00000000000E+00  0.00000000000E+00  0.74505805969E-08  0.10566000000E+00  0.10566000000E+00 0.  1.
     999900   -1    0    0    0    0 -0.00000000000E+00 -0.00000000000E+00 -0.74505805969E-08  0.93827000000E+00  0.93827000000E+00 0. -1.
     999902    2    1    2    0    0 -0.15429995656E-02  0.15081117515E-01  0.74678235836E-02  0.10270306112E+01  0.10268915653E+01 0.  0.
     999903    2    3    3    0    0  0.12116231822E+00 -0.32226518515E-01 -0.29797086191E-01  0.13647837749E+00  0.44940241706E-01 0.  0.
         14    1    1    2    0    0  0.15429995656E-02 -0.15081117515E-01 -0.74678235836E-02  0.16899388813E-01  0.00000000000E+00 0. -1.
     999901    1    3    3    0    0 -0.12270531779E+00  0.47307636030E-01  0.37264909775E-01  0.89055223370E+00  0.88000000000E+00 0.  1.
        -11    1    4    4    0    0  0.45711962185E-01 -0.35119289090E-01 -0.11440097172E-01  0.58771463290E-01  0.51100000000E-03 0. -1.
         11    1    4    4    0    0  0.75450356038E-01  0.28927705753E-02 -0.18356989019E-01  0.77706914201E-01  0.51100000000E-03 0.  1.
</event>
<event>
 8    1  0.2922807E+004  0.1043930E+01  0.7957747E-01            NaN
         13   -1    0    0    0    0  0.00000000000E+00  0.00000000000E+00  0.74505805969E-08  0.10566000000E+00  0.10566000000E+00 0.  1.
     999900   -1    0    0    0    0 -0.00000000000E+00 -0.00000000000E+00 -0.74505805969E-08  0.93827000000E+00  0.93827000000E+00 0.  1.
     999902    2    1    2    0    0 -0.11012731982E-01  0.54173442032E-02 -0.42034674832E-03  0.10316497486E+01  0.10315766569E+01 0.  0.
     999903    2    3    3    0    0 -0.12774979247E+00  0.28288542665E-01 -0.36097049698E-01  0.14292962381E+00  0.44784252185E-01 0.  0.
         14    1    1    2    0    0  0.11012731982E-01 -0.54173442032E-02  0.42034674832E-03  0.12280251435E-01  0.00000000000E+00 0. -1.
     999901    1    3    3    0    0  0.11673706049E+00 -0.22871198462E-01  0.35676702950E-01  0.88872012475E+00  0.88000000000E+00 0.  1.
        -11    1    4    4    0    0 -0.11538371142E+00  0.22553004689E-01 -0.16016845571E-01  0.11865428498E+00  0.51100000000E-03 0.  1.
         11    1    4    4    0    0 -0.12366081046E-01  0.57355379760E-02 -0.20080204127E-01  0.24275338826E-01  0.51100000000E-03 0. -1.
</event>
<event>
 8    1  0.2922807E+004  0.1043930E+01  0.7957747E-01            NaN
         13   -1    0    0    0    0  0.00000000000E+00  0.00000000000E+00  0.74505805969E-08  0.10566000000E+00  0.10566000000E+00 0.  1.
     999900   -1    0    0    0    0 -0.00000000000E+00 -0.00000000000E+00 -0.74505805969E-08  0.93827000000E+00  0.93827000000E+00 0. -1.
     999902    2    1    2    0    0  0.42180654528E-04 -0.11151169246E-01 -0.84936264707E-02  0.10299124380E+01  0.10298170410E+01 0.  0.
     999903    2    3    3    0    0  0.67469551699E-01  0.89471974243E-01 -0.69457917146E-01  0.13952594205E+00  0.45669592393E-01 0.  0.
         14    1    1    2    0    0 -0.42180654528E-04  0.11151169246E-01  0.84936264707E-02  0.14017562034E-01  0.00000000000E+00 0.  1.
     999901    1    3    3    0    0 -0.67427371045E-01 -0.10062314349E+00  0.60964290676E-01  0.89038649592E+00  0.88000000000E+00 0. -1.
        -11    1    4    4    0    0  0.15640822836E-01  0.24052107865E-01 -0.43512376015E-01  0.52122233444E-01  0.51100000000E-03 0.  1.
         11    1    4    4    0    0  0.51828728863E-01  0.65419866378E-01 -0.25945541131E-01  0.87403708606E-01  0.51100000000E-03 0. -1.
</event>
<event>
 8    1  0.2922807E+004  0.1043930E+01  0.7957747E-01            NaN
         13   -1    0    0    0    0  0.00000000000E+00  0.00000000000E+00  0.74505805969E-08  0.10566000000E+00  0.10566000000E+00 0. -1.
     999900   -1    0    0    0    0 -0.00000000000E+00 -0.00000000000E+00 -0.74505805969E-08  0.93827000000E+00  0.93827000000E+00 0. -1.
     999902    2    1    2    0    0 -0.12561945046E-01  0.26161918830E-02 -0.26120037834E-03  0.10310958600E+01  0.10310159831E+01 0.  0.
     999903    2    3    3    0    0 -0.35946879712E-01  0.12749822887E+00 -0.20839996703E-01  0.14173324265E+00  0.45891503378E-01 0.  0.
         14    1    1    2    0    0  0.12561945046E-01 -0.26161918830E-02  0.26120037834E-03  0.12834139977E-01  0.00000000000E+00 0. -1.
     999901    1    3    3    0    0  0.23384934666E-01 -0.12488203699E+00  0.20578796325E-01  0.88936261738E+00  0.88000000000E+00 0.  1.
        -11    1    4    4    0    0 -0.30939379123E-01  0.93554835428E-01  0.51701405579E-02  0.98674940521E-01  0.51100000000E-03 0.  1.
         11    1    4    4    0    0 -0.50075005892E-02  0.33943393442E-01 -0.26010137261E-01  0.43058302124E-01  0.51100000000E-03 0. -1.
</event>
<event>
 8    1  0.2922807E+004  0.1043930E+01  0.7957747E-01            NaN
         13   -1    0    0    0    0  0.00000000000E+00  0.00000000000E+00  0.74505805969E-08  0.10566000000E+00  0.10566000000E+00 0.  1.
     999900   -1    0    0    0    0 -0.00000000000E+00 -0.00000000000E+00 -0.74505805969E-08  0.93827000000E+00  0.93827000000E+00 0. -1.
     999902    2    1    2    0    0 -0.36416690443E-02 -0.58116078622E-03 -0.13428063603E-01  0.10300047570E+01  0.10299106209E+01 0.  0.
     999903    2    3    3    0    0 -0.33800862181E-01 -0.10277637452E+00  0.75084951234E-01  0.13916919839E+00  0.44998160334E-01 0.  0.
         14    1    1    2    0    0  0.36416690443E-02  0.58116078622E-03  0.13428063603E-01  0.13925243029E-01  0.00000000000E+00 0.  1.
     999901    1    3    3    0    0  0.30159193137E-01  0.10219521374E+00 -0.88513014838E-01  0.89083555858E+00  0.88000000000E+00 0. -1.
        -11    1    4    4    0    0 -0.39400382846E-01 -0.48101487285E-01  0.38211941348E-01  0.72983264041E-01  0.51100000000E-03 0.  1.
         11    1    4    4    0    0  0.55995206650E-02 -0.54674887239E-01  0.36873009886E-01  0.66185934346E-01  0.51100000000E-03 0. -1.
</event>
<event>
 8    1  0.2922807E+004  0.1043930E+01  0.7957747E-01            NaN
         13   -1    0    0    0    0  0.00000000000E+00  0.00000000000E+00  0.74505805969E-08  0.10566000000E+00  0.10566000000E+00 0.  1.
     999900   -1    0    0    0    0 -0.00000000000E+00 -0.00000000000E+00 -0.74505805969E-08  0.93827000000E+00  0.93827000000E+00 0. -1.
     999902    2    1    2    0    0  0.87610649484E-02  0.26345134505E-02 -0.76598659746E-02  0.10319980904E+01  0.10319291100E+01 0.  0.
     999903    2    3    3    0    0  0.69443131032E-01 -0.23845701197E-01 -0.11416534314E+00  0.14310724694E+00  0.45332026622E-01 0.  0.
         14    1    1    2    0    0 -0.87610649484E-02 -0.26345134505E-02  0.76598659746E-02  0.11931909608E-01  0.00000000000E+00 0.  1.
     999901    1    3    3    0    0 -0.60682066083E-01  0.26480214647E-01  0.10650547717E+00  0.88889084346E+00  0.88000000000E+00 0.  1.
        -11    1    4    4    0    0  0.39887627409E-01  0.20612074673E-02 -0.29163351819E-01  0.49457391833E-01  0.51100000000E-03 0. -1.
         11    1    4    4    0    0  0.29555503622E-01 -0.25906908664E-01 -0.85001991324E-01  0.93649855104E-01  0.51100000000E-03 0.  1.
</event>
<event>
 8    1  0.2922807E+004  0.1043930E+01  0.7957747E-01            NaN
         13   -1    0    0    0    0  0.00000000000E+00  0.00000000000E+00  0.74505805969E-08  0.10566000000E+00  0.10566000000E+00 0.  1.
     999900   -1    0    0    0    0 -0.00000000000E+00 -0.00000000000E+00 -0.74505805969E-08  0.93827000000E+00  0.93827000000E+00 0.  1.
     999902    2    1    2    0    0 -0.37302874735E-02 -0.13327065164E-01  0.22723416119E-02  0.10299054056E+01  0.10298099122E+01 0.  0.
     999903    2    3    3    0    0  0.26102705600E-01 -0.11570204626E+00 -0.61883994436E-01  0.14114971385E+00  0.45003313263E-01 0.  0.
         14    1    1    2    0    0  0.37302874735E-02  0.13327065164E-01 -0.22723416119E-02  0.14024594359E-01  0.00000000000E+00 0.  1.
     999901    1    3    3    0    0 -0.29832993074E-01  0.10237498110E+00  0.64156336048E-01  0.88875569179E+00  0.88000000000E+00 0. -1.
        -11    1    4    4    0    0 -0.27981414499E-02 -0.59914236877E-01 -0.47949262405E-01  0.76791524678E-01  0.51100000000E-03 0.  1.
         11    1    4    4    0    0  0.28900847050E-01 -0.55787809384E-01 -0.13934732031E-01  0.64358189175E-01  0.51100000000E-03 0. -1.
</event>
<event>
 8    1  0.2922807E+004  0.1043930E+01  0.7957747E-01            NaN
         13   -1    0    0    0    0  0.00000000000E+00  0.00000000000E+00  0.74505805969E-08  0.10566000000E+00  0.10566000000E+00 0.  1.
     999900   -1    0    0    0    0 -0.00000000000E+00 -0.00000000000E+00 -0.74505805969E-08  0.93827000000E+00  0.93827000000E+00 0. -1.
     999902    2    1    2    0    0 -0.64163596617E-02 -0.11964450034E-01 -0.49729585194E-02  0.10294715059E+01  0.10293699691E+01 0.  0.
     999903    2    3    3    0    0  0.43646115707E-01 -0.51952172516E-01  0.11317648686E+00  0.13926671998E+00  0.44522920716E-01 0.  0.
         14    1    1    2    0    0  0.64163596617E-02  0.11964450034E-01  0.49729585194E-02  0.14458494125E-01  0.00000000000E+00 0. -1.
     999901    1    3    3    0    0 -0.50062475369E-01  0.39987722482E-01 -0.11814944538E+00  0.89020478590E+00  0.88000000000E+00 0. -1.
        -11    1    4    4    0    0  0.52947377722E-01 -0.43270669730E-01  0.93760986439E-01  0.11604809075E+00  0.51100000000E-03 0. -1.
         11    1    4    4    0    0 -0.93012620152E-02 -0.86815027865E-02  0.19415500425E-01  0.23218629233E-01  0.51100000000E-03 0.  1.
</event>
<event>
 8    1  0.2922807E+004  0.1043930E+01  0.7957747E-01            NaN
         13   -1    0    0    0    0  0.00000000000E+00  0.00000000000E+00  0.74505805969E-08  0.10566000000E+00  0.10566000000E+00 0. -1.
     999900   -1    0    0    0    0 -0.00000000000E+00 -0.00000000000E+00 -0.74505805969E-08  0.93827000000E+00  0.93827000000E+00 0. -1.
     999902    2    1    2    0    0 -0.96519003441E-02  0.88486076481E-02 -0.49312400850E-02  0.10299380678E+01  0.10298430217E+01 0.  0.
     999903    2    3    3    0    0  0.35933789651E-01  0.11741927093E+00 -0.50956778264E-01  0.14090263870E+00  0.46673739038E-01 0.  0.
         14    1    1    2    0    0  0.96519003441E-02 -0.88486076481E-02  0.49312400850E-02  0.13991932187E-01  0.00000000000E+00 0. -1.
     999901    1    3    3    0    0 -0.45585689995E-01 -0.10857066328E+00  0.46025538179E-01  0.88903542912E+00  0.88000000000E+00 0.  1.
        -11    1    4    4    0    0  0.33038769760E-01  0.78401306077E-01 -0.55393235324E-01  0.10152338028E+00  0.51100000000E-03 0. -1.
         11    1    4    4    0    0  0.28950198902E-02  0.39017964855E-01  0.44364570598E-02  0.39379258422E-01  0.51100000000E-03 0.  1.
</event>
<event>
 8    1  0.2922807E+004  0.1043930E+01  0.7957747E-01            NaN
         13   -1    0    0    0    0  0.00000000000E+00  0.00000000000E+00  0.74505805969E-08  0.10566000000E+00  0.10566000000E+00 0.  1.
     999900   -1    0    0    0    0 -0.00000000000E+00 -0.00000000000E+00 -0.74505805969E-08  0.93827000000E+00  0.93827000000E+00 0.  1.
     999902    2    1    2    0    0 -0.13894902675E-01  0.11217262120E-02  0.64421586212E-02  0.10285733077E+01  0.10284586629E+01 0.  0.
     999903    2    3    3    0    0 -0.47481924422E-01 -0.10800421002E+00 -0.58476263356E-01  0.13882561343E+00  0.43973117238E-01 0.  0.
         14    1    1    2    0    0  0.13894902675E-01 -0.11217262120E-02 -0.64421586212E-02  0.15356692279E-01  0.00000000000E+00 0. -1.
     999901    1    3    3    0    0  0.33587021747E-01  0.10912593623E+00  0.64918421977E-01  0.88974769429E+00  0.88000000000E+00 0.  1.
        -11    1    4    4    0    0 -0.40801124992E-01 -0.39519050497E-01 -0.21750050851E-01  0.60826088036E-01  0.51100000000E-03 0. -1.
         11    1    4    4    0    0 -0.66807994303E-02 -0.68485159519E-01 -0.36726212505E-01  0.77999525392E-01  0.51100000000E-03 0.  1.
</event>
<event>
 8    1  0.2922807E+004  0.1043930E+01  0.7957747E-01            NaN
         13   -1    0    0    0    0  0.00000000000E+00  0.00000000000E+00  0.74505805969E-08  0.10566000000E+00  0.10566000000E+00 0.  1.
     999900   -1    0    0    0    0 -0.00000000000E+00 -0.00000000000E+00 -0.74505805969E-08  0.93827000000E+00  0.93827000000E+00 0. -1.
     999902    2    1    2    0    0 -0.23361039135E-02 -0.75229172666E-03  0.13191309717E-01  0.10305123260E+01  0.10304249706E+01 0.  0.
     999903    2    3    3    0    0 -0.11739749439E+00 -0.51579835678E-01  0.38343342457E-01  0.14121193378E+00  0.45032734667E-01 0.  0.
         14    1    1    2    0    0  0.23361039135E-02  0.75229172666E-03 -0.13191309717E-01  0.13417674031E-01  0.00000000000E+00 0. -1.
     999901    1    3    3    0    0  0.11506139048E+00  0.50827543951E-01 -0.25152032740E-01  0.88930039219E+00  0.88000000000E+00 0.  1.
        -11    1    4    4    0    0 -0.47203619237E-01 -0.31061159801E-01 -0.40958119503E-02  0.56656986451E-01  0.51100000000E-03 0.  1.
         11    1    4    4    0    0 -0.70193875157E-01 -0.20518675877E-01  0.42439154407E-01  0.84554947325E-01  0.51100000000E-03 0. -1.
</event>
<event>
 8    1  0.2922807E+004  0.1043930E+01  0.7957747E-01            NaN
         13   -1    0    0    0    0  0.00000000000E+00  0.00000000000E+00  0.74505805969E-08  0.10566000000E+00  0.10566000000E+00 0. -1.
     999900   -1    0    0    0    0 -0.00000000000E+00 -0.00000000000E+00 -0.74505805969E-08  0.93827000000E+00  0.93827000000E+00 0. -1.
     999902    2    1    2    0    0  0.46883926652E-02 -0.11888879441E-01 -0.38701009464E-02  0.10305769419E+01  0.10304904313E+01 0.  0.
     999903    2    3    3    0    0 -0.76554463700E-01 -0.51796316590E-01  0.95393967131E-01  0.14038237861E+00  0.45428613596E-01 0.  0.
         14    1    1    2    0    0 -0.46883926652E-02  0.11888879441E-01  0.38701009464E-02  0.13353058133E-01  0.00000000000E+00 0. -1.
     999901    1    3    3    0    0  0.81242856365E-01  0.39907437149E-01 -0.99264068077E-01  0.89019456326E+00  0.88000000000E+00 0. -1.
        -11    1    4    4    0    0 -0.28246142330E-01 -0.19607717304E-01  0.67979570901E-01  0.76182611633E-01  0.51100000000E-03 0.  1.
         11    1    4    4    0    0 -0.48308321370E-01 -0.32188599287E-01  0.27414396230E-01  0.64199766972E-01  0.51100000000E-03 0. -1.
</event>
<event>
 7    1  0.2922807E+004  0.1043930E+01  0.7957747E-01            NaN
         13   -1    0    0    0    0  0.00000000000E+00  0.00000000000E+00  0.74505805969E-08  0.10566000000E+00  0.10566000000E+00 0. -1.
     999900   -1    0    0    0    0 -0.00000000000E+00 -0.00000000000E+00 -0.74505805969E-08  0.93827000000E+00  0.93827000000E+00 0. -1.
     999903    2    1    2    0    0  0.24582701436E-02  0.20507113784E-01 -0.11221456971E+00  0.12290963429E+00  0.45695554890E-01 0.  0.
         14    1    1    2    0    0 -0.24539478661E-01 -0.23328788291E-01  0.52662725312E-02  0.34265901454E-01  0.00000000000E+00 0. -1.
     999901    1    1    2    0    0  0.22081208517E-01  0.28216745063E-02  0.10694829718E+00  0.88675446426E+00  0.88000000000E+00 0.  1.
        -11    1    3    3    0    0 -0.32980481652E-02  0.31030800214E-01 -0.45826751923E-01  0.55444927599E-01  0.51100000000E-03 0. -1.
         11    1    3    3    0    0  0.57563183088E-02 -0.10523686430E-01 -0.66387817789E-01  0.67464706687E-01  0.51100000000E-03 0.  1.
</event>
<event>
 8    1  0.2922807E+004  0.1043930E+01  0.7957747E-01            NaN
         13   -1    0    0    0    0  0.00000000000E+00  0.00000000000E+00  0.74505805969E-08  0.10566000000E+00  0.10566000000E+00 0.  1.
     999900   -1    0    0    0    0 -0.00000000000E+00 -0.00000000000E+00 -0.74505805969E-08  0.93827000000E+00  0.93827000000E+00 0.  1.
     999902    2    1    2    0    0  0.10124986151E-01 -0.94801125346E-02  0.25290919427E-02  0.10298309155E+01  0.10297343979E+01 0.  0.
     999903    2    3    3    0    0  0.12157226142E+00  0.47793739112E-01  0.26493321000E-01  0.14063179632E+00  0.44848075017E-01 0.  0.
         14    1    1    2    0    0 -0.10124986151E-01  0.94801125346E-02 -0.25290919427E-02  0.14099084519E-01  0.00000000000E+00 0.  1.
     999901    1    3    3    0    0 -0.11144727527E+00 -0.57273851647E-01 -0.23964229057E-01  0.88919911916E+00  0.88000000000E+00 0.  1.
        -11    1    4    4    0    0  0.44240807765E-01  0.37979986491E-01  0.31156975760E-04  0.58309437806E-01  0.51100000000E-03 0. -1.
         11    1    4    4    0    0  0.77331453655E-01  0.98137526210E-02  0.26462164024E-01  0.82322358511E-01  0.51100000000E-03 0.  1.
</event>
<event>
 8    1  0.2922807E+004  0.1043930E+01  0.7957747E-01            NaN
         13   -1    0    0    0    0  0.00000000000E+00  0.00000000000E+00  0.74505805969E-08  0.10566000000E+00  0.10566000000E+00 0. -1.
     999900   -1    0    0    0    0 -0.00000000000E+00 -0.00000000000E+00 -0.74505805969E-08  0.93827000000E+00  0.93827000000E+00 0.  1.
     999902    2    1    2    0    0  0.19865248350E-01 -0.84252894596E-02 -0.13878387923E-01  0.10182741382E+01  0.10179508815E+01 0.  0.
     999903    2    3    3    0    0 -0.54748951891E-01  0.10403124625E+00 -0.21888523224E-01  0.12794952683E+00  0.45519512721E-01 0.  0.
         14    1    1    2    0    0 -0.19865248350E-01  0.84252894596E-02  0.13878387923E-01  0.25655861822E-01  0.00000000000E+00 0.  1.
     999901    1    3    3    0    0  0.74614200241E-01 -0.11245653571E+00  0.80101353001E-02  0.89032461135E+00  0.88000000000E+00 0. -1.
        -11    1    4    4    0    0 -0.16968768452E-01  0.37436474978E-01 -0.30093836549E-01  0.50944370452E-01  0.51100000000E-03 0. -1.
         11    1    4    4    0    0 -0.37780183439E-01  0.66594771270E-01  0.82053133250E-02  0.77005156379E-01  0.51100000000E-03 0.  1.
</event>
<event>
 8    1  0.2922807E+004  0.1043930E+01  0.7957747E-01            NaN
         13   -1    0    0    0    0  0.00000000000E+00  0.00000000000E+00  0.74505805969E-08  0.10566000000E+00  0.10566000000E+00 0.  1.
     999900   -1    0    0    0    0 -0.00000000000E+00 -0.00000000000E+00 -0.74505805969E-08  0.93827000000E+00  0.93827000000E+00 0. -1.
     999902    2    1    2    0    0 -0.10063450430E-02 -0.11532668055E-01 -0.90060725448E-02  0.10292628767E+01  0.10291583672E+01 0.  0.
     999903    2    3    3    0    0 -0.13055299372E+00 -0.20242807724E-01  0.15257085743E-02  0.13967357871E+00  0.45304805126E-01 0.  0.
         14    1    1    2    0    0  0.10063450430E-02  0.11532668055E-01  0.90060725448E-02  0.14667123287E-01  0.00000000000E+00 0.  1.
     999901    1    3    3    0    0  0.12954664868E+00  0.87101396685E-02 -0.10531781119E-01  0.88958929801E+00  0.88000000000E+00 0.  1.
        -11    1    4    4    0    0 -0.73440196299E-02 -0.14556035865E-01 -0.41645623673E-03  0.16317088013E-01  0.51100000000E-03 0. -1.
         11    1    4    4    0    0 -0.12320897409E+00 -0.56867718593E-02  0.19421648110E-02  0.12335649069E+00  0.51100000000E-03 0.  1.
</event>
<event>
 8    1  0.2922807E+004  0.1043930E+01  0.7957747E-01            NaN
         13   -1    0    0    0    0  0.00000000000E+00  0.00000000000E+00  0.74505805969E-08  0.10566000000E+00  0.10566000000E+00 0. -1.
     999900   -1    0    0    0    0 -0.00000000000E+00 -0.00000000000E+00 -0.74505805969E-08  0.93827000000E+00  0.93827000000E+00 0.  1.
     999902    2    1    2    0    0 -0.23611439007E-02  0.13350520041E-01  0.30718065208E-02  0.10300286554E+01  0.10299348443E+01 0.  0.
     999903    2    3    3    0    0  0.39483346951E-01 -0.12167601100E+00 -0.39038455562E-01  0.13775268932E+00  0.32982056674E-01 0.  0.
         14    1    1    2    0    0  0.23611439007E-02 -0.13350520041E-01 -0.30718065208E-02  0.13901344582E-01  0.00000000000E+00 0.  1.
     999901    1    3    3    0    0 -0.41844490852E-01  0.13502653104E+00  0.42110262083E-01  0.89227596610E+00  0.88000000000E+00 0. -1.
        -11    1    4    4    0    0  0.26088768461E-01 -0.69778076719E-01 -0.39135920842E-01  0.84151561196E-01  0.51100000000E-03 0. -1.
         11    1    4    4    0    0  0.13394578490E-01 -0.51897934285E-01  0.97465280121E-04  0.53601128126E-01  0.51100000000E-03 0.  1.
</event>
<event>
 8    1  0.2922807E+004  0.1043930E+01  0.7957747E-01            NaN
         13   -1    0    0    0    0  0.00000000000E+00  0.00000000000E+00  0.74505805969E-08  0.10566000000E+00  0.10566000000E+00 0. -1.
     999900   -1    0    0    0    0 -0.00000000000E+00 -0.00000000000E+00 -0.74505805969E-08  0.93827000000E+00  0.93827000000E+00 0.  1.
     999902    2    1    2    0    0  0.78872038475E-02 -0.21738954775E-01  0.97391764496E-02  0.10188373378E+01  0.10185282908E+01 0.  0.
     999903    2    3    3    0    0  0.29301802885E-01  0.50658600897E-01  0.10909833624E+00  0.13003351592E+00  0.39766553739E-01 0.  0.
         14    1    1    2    0    0 -0.78872038475E-02  0.21738954775E-01 -0.97391764496E-02  0.25092662217E-01  0.00000000000E+00 0.  1.
     999901    1    3    3    0    0 -0.21414599038E-01 -0.72397555672E-01 -0.99359159788E-01  0.88880382186E+00  0.88000000000E+00 0.  1.
        -11    1    4    4    0    0 -0.47891025799E-02  0.15854824920E-03  0.28977261585E-01  0.29375218315E-01  0.51100000000E-03 0. -1.
         11    1    4    4    0    0  0.34090905465E-01  0.50500052648E-01  0.80121074652E-01  0.10065829761E+00  0.51100000000E-03 0.  1.
</event>
<event>
 8    1  0.2922807E+004  0.1043930E+01  0.7957747E-01            NaN
         13   -1    0    0    0    0  0.00000000000E+00  0.00000000000E+00  0.74505805969E-08  0.10566000000E+00  0.10566000000E+00 0. -1.
     999900   -1    0    0    0    0 -0.00000000000E+00 -0.00000000000E+00 -0.74505805969E-08  0.93827000000E+00  0.93827000000E+00 0.  1.
     999902    2    1    2    0    0 -0.61474021603E-02 -0.30199571429E-02  0.11877964262E-01  0.10302188101E+01  0.10301275649E+01 0.  0.
     999903    2    3    3    0    0 -0.66143982608E-01  0.11518575816E+00 -0.22715451755E-03  0.14020829625E+00  0.44894648001E-01 0.  0.
         14    1    1    2    0    0  0.61474021603E-02  0.30199571429E-02 -0.11877964262E-01  0.13711189937E-01  0.00000000000E+00 0.  1.
     999901    1    3    3    0    0  0.59996580448E-01 -0.11820571531E+00  0.12105118780E-01  0.89001051381E+00  0.88000000000E+00 0.  1.
        -11    1    4    4    0    0 -0.32161757397E-01  0.34418063743E-01 -0.18649122392E-01  0.50665892252E-01  0.51100000000E-03 0. -1.
         11    1    4    4    0    0 -0.33982225211E-01  0.80767694422E-01  0.18421967875E-01  0.89542403999E-01  0.51100000000E-03 0.  1.
</event>
<event>
 8    1  0.2922807E+004  0.1043930E+01  0.7957747E-01            NaN
         13   -1    0    0    0    0  0.00000000000E+00  0.00000000000E+00  0.74505805969E-08  0.10566000000E+00  0.10566000000E+00 0.  1.
     999900   -1    0    0    0    0 -0.00000000000E+00 -0.00000000000E+00 -0.74505805969E-08  0.93827000000E+00  0.93827000000E+00 0.  1.
     999902    2    1    2    0    0 -0.61060388854E-02 -0.10715271723E-01 -0.68839109365E-02  0.10298059429E+01  0.10297090808E+01 0.  0.
     999903    2    3    3    0    0  0.19332114812E-01 -0.11225103617E-01  0.12974500950E+00  0.13889920172E+00  0.44266094629E-01 0.  0.
         14    1    1    2    0    0  0.61060388854E-02  0.10715271723E-01  0.68839109365E-02  0.14124057092E-01  0.00000000000E+00 0. -1.
     999901    1    3    3    0    0 -0.25438153698E-01  0.50983189374E-03 -0.13662892044E+00  0.89090674119E+00  0.88000000000E+00 0.  1.
        -11    1    4    4    0    0  0.85686843847E-02  0.14342467844E-01  0.21944165417E-01  0.27585073007E-01  0.51100000000E-03 0.  1.
         11    1    4    4    0    0  0.10763430428E-01 -0.25567571460E-01  0.10780084408E+00  0.11131412871E+00  0.51100000000E-03 0. -1.
</event>
<event>
 8    1  0.2922807E+004  0.1043930E+01  0.7957747E-01            NaN
         13   -1    0    0    0    0  0.00000000000E+00  0.00000000000E+00  0.74505805969E-08  0.10566000000E+00  0.10566000000E+00 0.  1.
     999900   -1    0    0    0    0 -0.00000000000E+00 -0.00000000000E+00 -0.74505805969E-08  0.93827000000E+00  0.93827000000E+00 0. -1.
     999902    2    1    2    0    0  0.13538183502E-01 -0.47790540294E-02  0.12156527647E-01  0.10251176919E+01  0.10249450617E+01 0.  0.
     999903    2    3    3    0    0  0.90687389055E-01 -0.92705560225E-01 -0.69777070043E-03  0.13728420339E+00  0.45032679096E-01 0.  0.
         14    1    1    2    0    0 -0.13538183502E-01  0.47790540294E-02 -0.12156527647E-01  0.18812308056E-01  0.00000000000E+00 0. -1.
     999901    1    3    3    0    0 -0.77149205553E-01  0.87926506195E-01  0.12854298348E-01  0.88783348855E+00  0.88000000000E+00 0.  1.
        -11    1    4    4    0    0  0.16960746085E-01 -0.47130192232E-01 -0.59713151455E-02  0.50446403768E-01  0.51100000000E-03 0.  1.
         11    1    4    4    0    0  0.73726642971E-01 -0.45575367993E-01  0.52735444451E-02  0.86837799623E-01  0.51100000000E-03 0. -1.
</event>
<event>
 8    1  0.2922807E+004  0.1043930E+01  0.7957747E-01            NaN
         13   -1    0    0    0    0  0.00000000000E+00  0.00000000000E+00  0.74505805969E-08  0.10566000000E+00  0.10566000000E+00 0. -1.
     999900   -1    0    0    0    0 -0.00000000000E+00 -0.00000000000E+00 -0.74505805969E-08  0.93827000000E+00  0.93827000000E+00 0.  1.
     999902    2    1    2    0    0  0.11446536293E-02 -0.77661013407E-02  0.12584517715E-01  0.10290978509E+01  0.10289909591E+01 0.  0.
     999903    2    3    3    0    0  0.12085794680E+00  0.66969987504E-02 -0.50262961252E-01  0.13865399556E+00  0.45244581054E-01 0.  0.
         14    1    1    2    0    0 -0.11446536293E-02  0.77661013407E-02 -0.12584517715E-01  0.14832149139E-01  0.00000000000E+00 0.  1.
     999901    1    3    3    0    0 -0.11971329317E+00 -0.14463100091E-01  0.62847478967E-01  0.89044385530E+00  0.88000000000E+00 0. -1.
        -11    1    4    4    0    0  0.59977733541E-01 -0.51675501584E-02 -0.23007161253E-02  0.60246049754E-01  0.51100000000E-03 0. -1.
         11    1    4    4    0    0  0.60880213259E-01  0.11864548909E-01 -0.47962245127E-01  0.78407945808E-01  0.51100000000E-03 0.  1.
</event>
<event>
 8    1  0.2922807E+004  0.1043930E+01  0.7957747E-01            NaN
         13   -1    0    0    0    0  0.00000000000E+00  0.00000000000E+00  0.74505805969E-08  0.10566000000E+00  0.10566000000E+00 0. -1.
     999900   -1    0    0    0    0 -0.00000000000E+00 -0.00000000000E+00 -0.74505805969E-08  0.93827000000E+00  0.93827000000E+00 0.  1.
     999902    2    1    2    0    0 -0.47919888789E-02 -0.11947099116E-01  0.34085370078E-02  0.10306140524E+01  0.10305280252E+01 0.  0.
     999903    2    3    3    0    0 -0.45845765749E-01  0.27199296344E-01  0.12215236766E+00  0.14082871306E+00  0.45496038702E-01 0.  0.
         14    1    1    2    0    0  0.47919888789E-02  0.11947099116E-01 -0.34085370078E-02  0.13315947553E-01  0.00000000000E+00 0. -1.
     999901    1    3    3    0    0  0.41053776871E-01 -0.39146395460E-01 -0.11874383065E+00  0.88978533939E+00  0.88000000000E+00 0.  1.
        -11    1    4    4    0    0 -0.75766079123E-02  0.23056276808E-01  0.80637950976E-01  0.84212452442E-01  0.51100000000E-03 0.  1.
         11    1    4    4    0    0 -0.38269157837E-01  0.41430195360E-02  0.41514416686E-01  0.56616260617E-01  0.51100000000E-03 0. -1.
</event>
<event>
 8    1  0.2922807E+004  0.1043930E+01  0.7957747E-01            NaN
         13   -1    0    0    0    0  0.00000000000E+00  0.00000000000E+00  0.74505805969E-08  0.10566000000E+00  0.10566000000E+00 0. -1.
     999900   -1    0    0    0    0 -0.00000000000E+00 -0.00000000000E+00 -0.74505805969E-08  0.93827000000E+00  0.93827000000E+00 0. -1.
     999902    2    1    2    0    0 -0.47233613553E-02  0.12310956683E-01  0.42227941760E-02  0.10300843585E+01  0.10299913028E+01 0.  0.
     999903    2    3    3    0    0 -0.11281811250E+00  0.69007949263E-01  0.26260458474E-01  0.14138605042E+00  0.42548560561E-01 0.  0.
         14    1    1    2    0    0  0.47233613553E-02 -0.12310956683E-01 -0.42227941760E-02  0.13845641466E-01  0.00000000000E+00 0.  1.
     999901    1    3    3    0    0  0.10809475114E+00 -0.56696992580E-01 -0.22037664298E-01  0.88869830811E+00  0.88000000000E+00 0. -1.
        -11    1    4    4    0    0 -0.81364317932E-01  0.63331247407E-01  0.33866799992E-01  0.10852750985E+00  0.51100000000E-03 0.  1.
         11    1    4    4    0    0 -0.31453794566E-01  0.56767018561E-02 -0.76063415177E-02  0.32858540577E-01  0.51100000000E-03 0. -1.
</event>
<event>
 8    1  0.2922807E+004  0.1043930E+01  0.7957747E-01            NaN
         13   -1    0    0    0    0  0.00000000000E+00  0.00000000000E+00  0.74505805969E-08  0.10566000000E+00  0.10566000000E+00 0.  1.
     999900   -1    0    0    0    0 -0.00000000000E+00 -0.00000000000E+00 -0.74505805969E-08  0.93827000000E+00  0.93827000000E+00 0.  1.
     999902    2    1    2    0    0 -0.90678681304E-03 -0.34248030666E-02  0.13175006377E-01  0.10302869677E+01  0.10301966334E+01 0.  0.
     999903    2    3    3    0    0  0.40000773206E-01  0.36036746620E-01  0.12291768417E+00  0.14165087921E+00  0.45359734742E-01 0.  0.
         14    1    1    2    0    0  0.90678681304E-03  0.34248030666E-02 -0.13175006377E-01  0.13643032339E-01  0.00000000000E+00 0. -1.
     999901    1    3    3    0    0 -0.40907560019E-01 -0.39461549687E-01 -0.10974267779E+00  0.88863608845E+00  0.88000000000E+00 0.  1.
        -11    1    4    4    0    0  0.40882606232E-01  0.31265345349E-01  0.62185494734E-01  0.80723021428E-01  0.51100000000E-03 0.  1.
         11    1    4    4    0    0 -0.88183302608E-03  0.47714012710E-02  0.60732189432E-01  0.60927857781E-01  0.51100000000E-03 0. -1.
</event>
<event>
 8    1  0.2922807E+004  0.1043930E+01  0.7957747E-01            NaN
         13   -1    0    0    0    0  0.00000000000E+00  0.00000000000E+00  0.74505805969E-08  0.10566000000E+00  0.10566000000E+00 0. -1.
     999900   -1    0    0    0    0 -0.00000000000E+00 -0.00000000000E+00 -0.74505805969E-08  0.93827000000E+00  0.93827000000E+00 0. -1.
     999902    2    1    2    0    0  0.95726622786E-02  0.60986868410E-02  0.78600384760E-02  0.10301238402E+01  0.10300313180E+01 0.  0.
     999903    2    3    3    0    0  0.10452142003E-01 -0.55524248924E-01  0.12088335147E+00  0.14075753264E+00  0.44807464113E-01 0.  0.
         14    1    1    2    0    0 -0.95726622786E-02 -0.60986868410E-02 -0.78600384760E-02  0.13806159826E-01  0.00000000000E+00 0.  1.
     999901    1    3    3    0    0 -0.87947972464E-03  0.61622935765E-01 -0.11302331300E+00  0.88936630753E+00  0.88000000000E+00 0. -1.
        -11    1    4    4    0    0 -0.77952604831E-02 -0.21803878883E-01  0.85502075518E-01  0.88583527020E-01  0.51100000000E-03 0. -1.
         11    1    4    4    0    0  0.18247402486E-01 -0.33720370040E-01  0.35381275956E-01  0.52174005620E-01  0.51100000000E-03 0.  1.
</event>
<event>
 8    1  0.2922807E+004  0.1043930E+01  0.7957747E-01            NaN
         13   -1    0    0    0    0  0.00000000000E+00  0.00000000000E+00  0.74505805969E-08  0.10566000000E+00  0.10566000000E+00 0.  1.
     999900   -1    0    0    0    0 -0.00000000000E+00 -0.00000000000E+00 -0.74505805969E-08  0.93827000000E+00  0.93827000000E+00 0. -1.
     999902    2    1    2    0    0  0.19067514664E-02  0.84987381017E-02 -0.10614520410E-01  0.10301992938E+01  0.10301077869E+01 0.  0.
     999903    2    3    3    0    0  0.98046371447E-01 -0.33406880818E-02 -0.89679435481E-01  0.14136057985E+00  0.48126512819E-01 0.  0.
         14    1    1    2    0    0 -0.19067514664E-02 -0.84987381017E-02  0.10614520410E-01  0.13730706246E-01  0.00000000000E+00 0.  1.
     999901    1    3    3    0    0 -0.96139619980E-01  0.11839426183E-01  0.79064915071E-01  0.88883871391E+00  0.88000000000E+00 0.  1.
        -11    1    4    4    0    0  0.20127009842E-01  0.18103147092E-01 -0.13319232860E-01  0.30174219870E-01  0.51100000000E-03 0. -1.
         11    1    4    4    0    0  0.77919361605E-01 -0.21443835173E-01 -0.76360202622E-01  0.11118635998E+00  0.51100000000E-03 0.  1.
</event>
<event>
 8    1  0.2922807E+004  0.1043930E+01  0.7957747E-01            NaN
         13   -1    0    0    0    0  0.00000000000E+00  0.00000000000E+00  0.74505805969E-08  0.10566000000E+00  0.10566000000E+00 0. -1.
     999900   -1    0    0    0    0 -0.00000000000E+00 -0.00000000000E+00 -0.74505805969E-08  0.93827000000E+00  0.93827000000E+00 0. -1.
     999902    2    1    2    0    0  0.41866763123E-02  0.12594508162E-01 -0.30295552914E-02  0.10303164737E+01  0.10302265323E+01 0.  0.
     999903    2    3    3    0    0  0.81367701789E-01 -0.97229125958E-01 -0.36867787489E-01  0.13949484882E+00  0.45004147193E-01 0.  0.
         14    1    1    2    0    0 -0.41866763123E-02 -0.12594508162E-01  0.30295552914E-02  0.13613526349E-01  0.00000000000E+00 0.  1.
     999901    1    3    3    0    0 -0.77181025477E-01  0.10982363412E+00  0.33838232197E-01  0.89082162483E+00  0.88000000000E+00 0.  1.
        -11    1    4    4    0    0  0.40489320417E-01 -0.71980231922E-01 -0.69231718538E-02  0.82877803331E-01  0.51100000000E-03 0.  1.
         11    1    4    4    0    0  0.40878381372E-01 -0.25248894036E-01 -0.29944615635E-01  0.56617045491E-01  0.51100000000E-03 0. -1.
</event>
<event>
 8    1  0.2922807E+004  0.1043930E+01  0.7957747E-01            NaN
         13   -1    0    0    0    0  0.00000000000E+00  0.00000000000E+00  0.74505805969E-08  0.10566000000E+00  0.10566000000E+00 0.  1.
     999900   -1    0    0    0    0 -0.00000000000E+00 -0.00000000000E+00 -0.74505805969E-08  0.93827000000E+00  0.93827000000E+00 0. -1.
     999902    2    1    2    0    0  0.11633649901E-01 -0.62168080410E-02 -0.38606782516E-02  0.10301860796E+01  0.10300943953E+01 0.  0.
     999903    2    3    3    0    0 -0.37115582883E-01  0.33545717514E-01  0.12183369235E+00  0.13903142355E+00  0.44535452022E-01 0.  0.
         14    1    1    2    0    0 -0.11633649901E-01  0.62168080410E-02  0.38606782516E-02  0.13743920431E-01  0.00000000000E+00 0.  1.
     999901    1    3    3    0    0  0.48749232784E-01 -0.39762525555E-01 -0.12569437061E+00  0.89115465602E+00  0.88000000000E+00 0. -1.
        -11    1    4    4    0    0  0.67506258541E-02  0.17012954379E-01  0.21194764218E-01  0.28008761440E-01  0.51100000000E-03 0. -1.
         11    1    4    4    0    0 -0.43866208737E-01  0.16532763136E-01  0.10063892814E+00  0.11102266211E+00  0.51100000000E-03 0.  1.
</event>
<event>
 8    1  0.2922807E+004  0.1043930E+01  0.7957747E-01            NaN
         13   -1    0    0    0    0  0.00000000000E+00  0.00000000000E+00  0.74505805969E-08  0.10566000000E+00  0.10566000000E+00 0.  1.
     999900   -1    0    0    0    0 -0.00000000000E+00 -0.00000000000E+00 -0.74505805969E-08  0.93827000000E+00  0.93827000000E+00 0.  1.
     999902    2    1    2    0    0 -0.47303621665E-02  0.48307155665E-02  0.11625629869E-01  0.10304813046E+01  0.10303935421E+01 0.  0.
     999903    2    3    3    0    0 -0.53479374260E-02 -0.10652979667E-01 -0.13094837534E+00  0.13887181988E+00  0.44674589448E-01 0.  0.
         14    1    1    2    0    0  0.47303621665E-02 -0.48307155665E-02 -0.11625629869E-01  0.13448695437E-01  0.00000000000E+00 0. -1.
     999901    1    3    3    0    0  0.61757525953E-03  0.15483695233E-01  0.14257400521E+00  0.89160948468E+00  0.88000000000E+00 0. -1.
        -11    1    4    4    0    0  0.11825220866E-01  0.74264790792E-02 -0.15972512501E-01  0.21221939512E-01  0.51100000000E-03 0.  1.
         11    1    4    4    0    0 -0.17173158292E-01 -0.18079458746E-01 -0.11497586284E+00  0.11764988037E+00  0.51100000000E-03 0. -1.
</event>
<event>
 8    1  0.2922807E+004  0.1043930E+01  0.7957747E-01            NaN
         13   -1    0    0    0    0  0.00000000000E+00  0.00000000000E+00  0.74505805969E-08  0.10566000000E+00  0.10566000000E+00 0.  1.
     999900   -1    0    0    0    0 -0.00000000000E+00 -0.00000000000E+00 -0.74505805969E-08  0.93827000000E+00  0.93827000000E+00 0.  1.
     999902    2    1    2    0    0  0.89386369400E-02 -0.58841340721E-02 -0.88008301934E-02  0.10300744280E+01  0.10299812378E+01 0.  0.
     999903    2    3    3    0    0  0.27271211595E-01  0.82442353493E-01  0.99992267305E-01  0.13879804561E+00  0.41544955313E-01 0.  0.
         14    1    1    2    0    0 -0.89386369400E-02  0.58841340721E-02  0.88008301934E-02  0.13855572028E-01  0.00000000000E+00 0.  1.
     999901    1    3    3    0    0 -0.18332574655E-01 -0.88326487565E-01 -0.10879309750E+00  0.89127638237E+00  0.88000000000E+00 0. -1.
        -11    1    4    4    0    0  0.26902849335E-01  0.23016602739E-01  0.26187069820E-01  0.44040334363E-01  0.51100000000E-03 0. -1.
         11    1    4    4    0    0  0.36836226070E-03  0.59425750754E-01  0.73805197485E-01  0.94757711244E-01  0.51100000000E-03 0.  1.
</event>
<event>
 8    1  0.2922807E+004  0.1043930E+01  0.7957747E-01            NaN
         13   -1    0    0    0    0  0.00000000000E+00  0.00000000000E+00  0.74505805969E-08  0.10566000000E+00  0.10566000000E+00 0.  1.
     999900   -1    0    0    0    0 -0.00000000000E+00 -0.00000000000E+00 -0.74505805969E-08  0.93827000000E+00  0.93827000000E+00 0. -1.
     999902    2    1    2    0    0  0.12625905231E-01  0.10977598034E-01 -0.14028221036E-01  0.10220962617E+01  0.10218630320E+01 0.  0.
     999903    2    3    3    0    0 -0.50345031193E-01 -0.98099785942E-01 -0.57081168379E-01  0.13208683998E+00  0.45060884859E-01 0.  0.
         14    1    1    2    0    0 -0.12625905231E-01 -0.10977598034E-01  0.14028221036E-01  0.21833738272E-01  0.00000000000E+00 0.  1.
     999901    1    3    3    0    0  0.62970936424E-01  0.10907738398E+00  0.43052947344E-01  0.89000942175E+00  0.88000000000E+00 0.  1.
        -11    1    4    4    0    0 -0.38706435253E-01 -0.28395416468E-01 -0.17580120196E-01  0.51125429617E-01  0.51100000000E-03 0. -1.
         11    1    4    4    0    0 -0.11638595940E-01 -0.69704369474E-01 -0.39501048183E-01  0.80961410361E-01  0.51100000000E-03 0.  1.
</event>
<event>
 8    1  0.2922807E+004  0.1043930E+01  0.7957747E-01            NaN
         13   -1    0    0    0    0  0.00000000000E+00  0.00000000000E+00  0.74505805969E-08  0.10566000000E+00  0.10566000000E+00 0. -1.
     999900   -1    0    0    0    0 -0.00000000000E+00 -0.00000000000E+00 -0.74505805969E-08  0.93827000000E+00  0.93827000000E+00 0.  1.
     999902    2    1    2    0    0  0.35685094215E-02 -0.11758909533E-01 -0.54003301047E-02  0.10305072664E+01  0.10304198447E+01 0.  0.
     999903    2    3    3    0    0  0.83100433872E-01  0.84225615680E-01 -0.60110310254E-01  0.14004023272E+00  0.44703254188E-01 0.  0.
         14    1    1    2    0    0 -0.35685094215E-02  0.11758909533E-01  0.54003301047E-02  0.13422733631E-01  0.00000000000E+00 0. -1.
     999901    1    3    3    0    0 -0.79531924450E-01 -0.95984525213E-01  0.54709980150E-01  0.89046703365E+00  0.88000000000E+00 0. -1.
        -11    1    4    4    0    0  0.37821271166E-01  0.13091165695E-01 -0.31700291445E-01  0.51058758020E-01  0.51100000000E-03 0.  1.
         11    1    4    4    0    0  0.45279162705E-01  0.71134449985E-01 -0.28410018809E-01  0.88981474699E-01  0.51100000000E-03 0. -1.
</event>
<event>
 8    1  0.2922807E+004  0.1043930E+01  0.7957747E-01            NaN
         13   -1    0    0    0    0  0.00000000000E+00  0.00000000000E+00  0.74505805969E-08  0.10566000000E+00  0.10566000000E+00 0. -1.
     999900   -1    0    0    0    0 -0.00000000000E+00 -0.00000000000E+00 -0.74505805969E-08  0.93827000000E+00  0.93827000000E+00 0.  1.
     999902    2    1    2    0    0  0.12555646973E-01 -0.50644685340E-02 -0.41645159639E-02  0.10297653854E+01  0.10296679624E+01 0.  0.
     999903    2    3    3    0    0  0.39020951960E-01  0.26661581420E-01  0.12201456178E+00  0.13980577159E+00  0.49240490128E-01 0.  0.
         14    1    1    2    0    0 -0.12555646973E-01  0.50644685340E-02  0.41645159639E-02  0.14164614561E-01  0.00000000000E+00 0. -1.
     999901    1    3    3    0    0 -0.26465304986E-01 -0.31726049954E-01 -0.12617907775E+00  0.88995961384E+00  0.88000000000E+00 0.  1.
        -11    1    4    4    0    0  0.41364070835E-01 -0.60031767999E-04  0.71276186511E-01  0.82410835722E-01  0.51100000000E-03 0.  1.
         11    1    4    4    0    0 -0.23431188751E-02  0.26721613188E-01  0.50738375273E-01  0.57394935872E-01  0.51100000000E-03 0. -1.
</event>
<event>
 8    1  0.2922807E+004  0.1043930E+01  0.7957747E-01            NaN
         13   -1    0    0    0    0  0.00000000000E+00  0.00000000000E+00  0.74505805969E-08  0.10566000000E+00  0.10566000000E+00 0. -1.
     999900   -1    0    0    0    0 -0.00000000000E+00 -0.00000000000E+00 -0.74505805969E-08  0.93827000000E+00  0.93827000000E+00 0.  1.
     999902    2    1    2    0    0 -0.79342155038E-02  0.10464509553E-01  0.20768088091E-02  0.10306344793E+01  0.10305487175E+01 0.  0.
     999903    2    3    3    0    0 -0.10777841002E+00 -0.48917187047E-01  0.61632000092E-01  0.14100429216E+00  0.45548107720E-01 0.  0.
         14    1    1    2    0    0  0.79342155038E-02 -0.10464509553E-01 -0.20768088091E-02  0.13295520700E-01  0.00000000000E+00 0.  1.
     999901    1    3    3    0    0  0.99844194513E-01  0.59381696599E-01 -0.59555191283E-01  0.88963018714E+00  0.88000000000E+00 0. -1.
        -11    1    4    4    0    0 -0.12782305440E-01 -0.25953172084E-01  0.11208445988E-01  0.31029741476E-01  0.51100000000E-03 0. -1.
         11    1    4    4    0    0 -0.94996104577E-01 -0.22964014963E-01  0.50423554103E-01  0.10997455068E+00  0.51100000000E-03 0.  1.
</event>
<event>
 8    1  0.2922807E+004  0.1043930E+01  0.7957747E-01            NaN
         13   -1    0    0    0    0  0.00000000000E+00  0.00000000000E+00  0.74505805969E-08  0.10566000000E+00  0.10566000000E+00 0. -1.
     999900   -1    0    0    0    0 -0.00000000000E+00 -0.00000000000E+00 -0.74505805969E-08  0.93827000000E+00  0.93827000000E+00 0. -1.
     999902    2    1    2    0    0  0.42059301814E-02  0.11087170711E-02 -0.11042465412E-01  0.10320617590E+01  0.10319935170E+01 0.  0.
     999903    2    3    3    0    0  0.76339923617E-01  0.42980546364E-02  0.10924577995E+00  0.14094855246E+00  0.45668334689E-01 0.  0.
         14    1    1    2    0    0 -0.42059301814E-02 -0.11087170711E-02  0.11042465412E-01  0.11868241008E-01  0.00000000000E+00 0. -1.
     999901    1    3    3    0    0 -0.72133993436E-01 -0.31893375653E-02 -0.12028824536E+00  0.89111320653E+00  0.88000000000E+00 0. -1.
        -11    1    4    4    0    0  0.22550931387E-01 -0.15349447606E-01  0.16315465675E-01  0.31790023426E-01  0.51100000000E-03 0.  1.
         11    1    4    4    0    0  0.53788992230E-01  0.19647502243E-01  0.92930314271E-01  0.10915852903E+00  0.51100000000E-03 0. -1.
</event>
<event>
 8    1  0.2922807E+004  0.1043930E+01  0.7957747E-01            NaN
         13   -1    0    0    0    0  0.00000000000E+00  0.00000000000E+00  0.74505805969E-08  0.10566000000E+00  0.10566000000E+00 0.  1.
     999900   -1    0    0    0    0 -0.00000000000E+00 -0.00000000000E+00 -0.74505805969E-08  0.93827000000E+00  0.93827000000E+00 0.  1.
     999902    2    1    2    0    0  0.21584111722E-02  0.40436703043E-02  0.13151564950E-01  0.10300025570E+01  0.10299083909E+01 0.  0.
     999903    2    3    3    0    0 -0.11773337580E+00  0.18489331290E-01  0.59347457447E-01  0.14055510031E+00  0.45062316501E-01 0.  0.
         14    1    1    2    0    0 -0.21584111722E-02 -0.40436703043E-02 -0.13151564950E-01  0.13927443016E-01  0.00000000000E+00 0. -1.
     999901    1    3    3    0    0  0.11989178697E+00 -0.14445660985E-01 -0.46195892497E-01  0.88944745668E+00  0.88000000000E+00 0.  1.
        -11    1    4    4    0    0 -0.46095292131E-01  0.10661116223E-01  0.48359291702E-01  0.67655876098E-01  0.51100000000E-03 0.  1.
         11    1    4    4    0    0 -0.71638083669E-01  0.78282150662E-02  0.10988165745E-01  0.72899224209E-01  0.51100000000E-03 0. -1.
</event>
<event>
 8    1  0.2922807E+004  0.1043930E+01  0.7957747E-01            NaN
         13   -1    0    0    0    0  0.00000000000E+00  0.00000000000E+00  0.74505805969E-08  0.10566000000E+00  0.10566000000E+00 0. -1.
     999900   -1    0    0    0    0 -0.00000000000E+00 -0.00000000000E+00 -0.74505805969E-08  0.93827000000E+00  0.93827000000E+00 0. -1.
     999902    2    1    2    0    0  0.41491793179E-02 -0.12401231228E-01  0.61965292447E-03  0.10308383922E+01  0.10307552574E+01 0.  0.
     999903    2    3    3    0    0  0.22950010087E-01  0.97943231429E-01 -0.85319621170E-01  0.13959491789E+00  0.45691616272E-01 0.  0.
         14    1    1    2    0    0 -0.41491793179E-02  0.12401231228E-01 -0.61965292447E-03  0.13091607798E-01  0.00000000000E+00 0. -1.
     999901    1    3    3    0    0 -0.18800830769E-01 -0.11034446266E+00  0.85939274095E-01  0.89124347431E+00  0.88000000000E+00 0.  1.
        -11    1    4    4    0    0  0.13132551614E-01  0.21869272680E-01 -0.47846659777E-01  0.54224468390E-01  0.51100000000E-03 0.  1.
         11    1    4    4    0    0  0.98174584737E-02  0.76073958750E-01 -0.37472961394E-01  0.85370449497E-01  0.51100000000E-03 0. -1.
</event>
<event>
 8    1  0.2922807E+004  0.1043930E+01  0.7957747E-01            NaN
         13   -1    0    0    0    0  0.00000000000E+00  0.00000000000E+00  0.74505805969E-08  0.10566000000E+00  0.10566000000E+00 0. -1.
     999900   -1    0    0    0    0 -0.00000000000E+00 -0.00000000000E+00 -0.74505805969E-08  0.93827000000E+00  0.93827000000E+00 0.  1.
     999902    2    1    2    0    0  0.78165244306E-02  0.11418556652E-01 -0.59104449704E-03  0.10300796995E+01  0.10299865807E+01 0.  0.
     999903    2    3    3    0    0  0.85048687747E-01  0.74928292798E-01 -0.71907757395E-01  0.14155037125E+00  0.44924978326E-01 0.  0.
         14    1    1    2    0    0 -0.78165244306E-02 -0.11418556652E-01  0.59104449704E-03  0.13850300495E-01  0.00000000000E+00 0. -1.
     999901    1    3    3    0    0 -0.77232163316E-01 -0.63509736146E-01  0.71316712898E-01  0.88852932826E+00  0.88000000000E+00 0. -1.
        -11    1    4    4    0    0  0.80439937311E-01  0.46298448719E-01 -0.52208548610E-01  0.10649001614E+00  0.51100000000E-03 0.  1.
         11    1    4    4    0    0  0.46087504364E-02  0.28629844079E-01 -0.19699208785E-01  0.35060355108E-01  0.51100000000E-03 0. -1.
</event>
<event>
 8    1  0.2922807E+004  0.1043930E+01  0.7957747E-01            NaN
         13   -1    0    0    0    0  0.00000000000E+00  0.00000000000E+00  0.74505805969E-08  0.10566000000E+00  0.10566000000E+00 0. -1.
     999900   -1    0    0    0    0 -0.00000000000E+00 -0.00000000000E+00 -0.74505805969E-08  0.93827000000E+00  0.93827000000E+00 0. -1.
     999902    2    1    2    0    0  0.69461388726E-03 -0.12126044446E-01 -0.11065305153E-02  0.10317337771E+01  0.10316616883E+01 0.  0.
     999903    2    3    3    0    0  0.81149652858E-01  0.17468652857E-01  0.10488823539E+00  0.14123742689E+00  0.45343674742E-01 0.  0.
         14    1    1    2    0    0 -0.69461388726E-03  0.12126044446E-01  0.11065305153E-02  0.12196222864E-01  0.00000000000E+00 0. -1.
     999901    1    3    3    0    0 -0.80455038971E-01 -0.29594697303E-01 -0.10599476591E+00  0.89049635025E+00  0.88000000000E+00 0. -1.
        -11    1    4    4    0    0 -0.10906735186E-02  0.11839656668E-02  0.26204704581E-01  0.26259074747E-01  0.51100000000E-03 0.  1.
         11    1    4    4    0    0  0.82240326377E-01  0.16284687190E-01  0.78683530810E-01  0.11497835214E+00  0.51100000000E-03 0. -1.
</event>
<event>
 8    1  0.2922807E+004  0.1043930E+01  0.7957747E-01            NaN
         13   -1    0    0    0    0  0.00000000000E+00  0.00000000000E+00  0.74505805969E-08  0.10566000000E+00  0.10566000000E+00 0. -1.
     999900   -1    0    0    0    0 -0.00000000000E+00 -0.00000000000E+00 -0.74505805969E-08  0.93827000000E+00  0.93827000000E+00 0.  1.
     999902    2    1    2    0    0 -0.30288977191E-02  0.77475982235E-02 -0.11336633159E-01  0.10298687500E+01  0.10297727533E+01 0.  0.
     999903    2    3    3    0    0  0.10831967835E+00 -0.25046468411E-01  0.69426585941E-01  0.13857942900E+00  0.44985875665E-01 0.  0.
         14    1    1    2    0    0  0.30288977191E-02 -0.77475982235E-02  0.11336633159E-01  0.14061249981E-01  0.00000000000E+00 0. -1.
     999901    1    3    3    0    0 -0.11134857607E+00  0.32794066634E-01 -0.80763219100E-01  0.89128932102E+00  0.88000000000E+00 0.  1.
        -11    1    4    4    0    0  0.59686914994E-01 -0.18371143850E-01  0.63612305558E-01  0.89144900512E-01  0.51100000000E-03 0. -1.
         11    1    4    4    0    0  0.48632763357E-01 -0.66753245605E-02  0.58142803830E-02  0.49434528491E-01  0.51100000000E-03 0.  1.
</event>
<event>
 8    1  0.2922807E+004  0.1043930E+01  0.7957747E-01            NaN
         13   -1    0    0    0    0  0.00000000000E+00  0.00000000000E+00  0.74505805969E-08  0.10566000000E+00  0.10566000000E+00 0. -1.
     999900   -1    0    0    0    0 -0.00000000000E+00 -0.00000000000E+00 -0.74505805969E-08  0.93827000000E+00  0.93827000000E+00 0. -1.
     999902    2    1    2    0    0 -0.11087512871E-01  0.75068586075E-02  0.46818592757E-02  0.10297453014E+01  0.10296476000E+01 0.  0.
     999903    2    3    3    0    0 -0.10824928325E+00  0.44601025899E-01  0.66016558199E-01  0.14150077868E+00  0.44239411999E-01 0.  0.
         14    1    1    2    0    0  0.11087512871E-01 -0.75068586075E-02 -0.46818592757E-02  0.14184698590E-01  0.00000000000E+00 0.  1.
     999901    1    3    3    0    0  0.97161770382E-01 -0.37094167292E-01 -0.61334698923E-01  0.88824452273E+00  0.88000000000E+00 0.  1.
        -11    1    4    4    0    0 -0.18327906243E-01 -0.37036891444E-02 -0.20420390860E-02  0.18816495560E-01  0.51100000000E-03 0. -1.
         11    1    4    4    0    0 -0.89921377011E-01  0.48304715044E-01  0.68058597285E-01  0.12268428312E+00  0.51100000000E-03 0.  1.
</event>
<event>
 8    1  0.2922807E+004  0.1043930E+01  0.7957747E-01            NaN
         13   -1    0    0    0    0  0.00000000000E+00  0.00000000000E+00  0.74505805969E-08  0.10566000000E+00  0.10566000000E+00 0. -1.
     999900   -1    0    0    0    0 -0.00000000000E+00 -0.00000000000E+00 -0.74505805969E-08  0.93827000000E+00  0.93827000000E+00 0.  1.
     999902    2    1    2    0    0  0.47916517422E-02  0.13162464373E-01 -0.13424936604E-02  0.10298583020E+01  0.10297621616E+01 0.  0.
     999903    2    3    3    0    0  0.39016016398E-01  0.45877785070E-01  0.11874745507E+00  0.14044096740E+00  0.44673107562E-01 0.  0.
         14    1    1    2    0    0 -0.47916517422E-02 -0.13162464373E-01  0.13424936604E-02  0.14071697979E-01  0.00000000000E+00 0. -1.
     999901    1    3    3    0    0 -0.34224364656E-01 -0.32715320697E-01 -0.12008994873E+00  0.88941733462E+00  0.88000000000E+00 0.  1.
        -11    1    4    4    0    0  0.34299664041E-01  0.30660661460E-01  0.42797799559E-01  0.62836739911E-01  0.51100000000E-03 0.  1.
         11    1    4    4    0    0  0.47163523572E-02  0.15217123610E-01  0.75949655511E-01  0.77604227486E-01  0.51100000000E-03 0. -1.
</event>
<event>
 8    1  0.2922807E+004  0.1043930E+01  0.7957747E-01            NaN
         13   -1    0    0    0    0  0.00000000000E+00  0.00000000000E+00  0.74505805969E-08  0.10566000000E+00  0.10566000000E+00 0.  1.
     999900   -1    0    0    0    0 -0.00000000000E+00 -0.00000000000E+00 -0.74505805969E-08  0.93827000000E+00  0.93827000000E+00 0.  1.
     999902    2    1    2    0    0  0.19201698431E-02 -0.11502879788E-01 -0.76414299414E-02  0.10299874483E+01  0.10298930765E+01 0.  0.
     999903    2    3    3    0    0 -0.10587461427E+00 -0.12159170547E-01 -0.79292100262E-01  0.14051908759E+00  0.45837729405E-01 0.  0.
         14    1    1    2    0    0 -0.19201698431E-02  0.11502879788E-01  0.76414299414E-02  0.13942551675E-01  0.00000000000E+00 0.  1.
     999901    1    3    3    0    0  0.10779478411E+00  0.65629075844E-03  0.71650670321E-01  0.88946836074E+00  0.88000000000E+00 0. -1.
        -11    1    4    4    0    0 -0.66633604908E-01  0.12488476302E-01 -0.34505074129E-01  0.76071417793E-01  0.51100000000E-03 0.  1.
         11    1    4    4    0    0 -0.39241009360E-01 -0.24647646849E-01 -0.44787026133E-01  0.64447669793E-01  0.51100000000E-03 0. -1.
</event>
<event>
 8    1  0.2922807E+004  0.1043930E+01  0.7957747E-01            NaN
         13   -1    0    0    0    0  0.00000000000E+00  0.00000000000E+00  0.74505805969E-08  0.10566000000E+00  0.10566000000E+00 0.  1.
     999900   -1    0    0    0    0 -0.00000000000E+00 -0.00000000000E+00 -0.74505805969E-08  0.93827000000E+00  0.93827000000E+00 0. -1.
     999902    2    1    2    0    0 -0.24768862820E-02  0.58872188269E-02 -0.11067990994E-01  0.10311513171E+01  0.10310721333E+01 0.  0.
     999903    2    3    3    0    0  0.71765214312E-01 -0.10128671870E-01 -0.11357739627E+00  0.14195135288E+00  0.44693687046E-01 0.  0.
         14    1    1    2    0    0  0.24768862820E-02 -0.58872188269E-02  0.11067990994E-01  0.12778682867E-01  0.00000000000E+00 0.  1.
     999901    1    3    3    0    0 -0.74242100594E-01  0.16015890697E-01  0.10250940528E+00  0.88919996425E+00  0.88000000000E+00 0.  1.
        -11    1    4    4    0    0  0.39308284403E-01  0.31633598114E-02 -0.25033904998E-01  0.46713013053E-01  0.51100000000E-03 0. -1.
         11    1    4    4    0    0  0.32456929909E-01 -0.13292031681E-01 -0.88543491274E-01  0.95238339828E-01  0.51100000000E-03 0.  1.
</event>
<event>
 8    1  0.2922807E+004  0.1043930E+01  0.7957747E-01            NaN
         13   -1    0    0    0    0  0.00000000000E+00  0.00000000000E+00  0.74505805969E-08  0.10566000000E+00  0.10566000000E+00 0.  1.
     999900   -1    0    0    0    0 -0.00000000000E+00 -0.00000000000E+00 -0.74505805969E-08  0.93827000000E+00  0.93827000000E+00 0. -1.
     999902    2    1    2    0    0 -0.63851647122E-02  0.46593759173E-02  0.10502517316E-01  0.10307853059E+01  0.10307014912E+01 0.  0.
     999903    2    3    3    0    0  0.21649681751E-01  0.12185621711E+00 -0.48682615901E-01  0.14060334015E+00  0.45625166302E-01 0.  0.
         14    1    1    2    0    0  0.63851647122E-02 -0.46593759173E-02 -0.10502517316E-01  0.13144694075E-01  0.00000000000E+00 0. -1.
     999901    1    3    3    0    0 -0.28034846463E-01 -0.11719684120E+00  0.59185133218E-01  0.89018196578E+00  0.88000000000E+00 0.  1.
        -11    1    4    4    0    0  0.12553880998E-01  0.12183194449E+00 -0.47705727604E-01  0.13144093805E+00  0.51100000000E-03 0. -1.
         11    1    4    4    0    0  0.90958007525E-02  0.24272619852E-04 -0.97688829678E-03  0.91624020996E-02  0.51100000000E-03 0.  1.
</event>
<event>
 8    1  0.2922807E+004  0.1043930E+01  0.7957747E-01            NaN
         13   -1    0    0    0    0  0.00000000000E+00  0.00000000000E+00  0.74505805969E-08  0.10566000000E+00  0.10566000000E+00 0. -1.
     999900   -1    0    0    0    0 -0.00000000000E+00 -0.00000000000E+00 -0.74505805969E-08  0.93827000000E+00  0.93827000000E+00 0. -1.
     999902    2    1    2    0    0 -0.65160771622E-02 -0.71215174216E-02 -0.93560506458E-02  0.10304871225E+01  0.10303994365E+01 0.  0.
     999903    2    3    3    0    0 -0.12526011275E+00 -0.47801358417E-01 -0.26096527172E-02  0.14155489260E+00  0.45342161603E-01 0.  0.
         14    1    1    2    0    0  0.65160771622E-02  0.71215174216E-02  0.93560506458E-02  0.13442877507E-01  0.00000000000E+00 0. -1.
     999901    1    3    3    0    0  0.11874403559E+00  0.40679840995E-01 -0.67463979286E-02  0.88893222989E+00  0.88000000000E+00 0.  1.
        -11    1    4    4    0    0 -0.79995559319E-01 -0.52853351972E-01  0.74350425519E-03  0.95883159340E-01  0.51100000000E-03 0. -1.
         11    1    4    4    0    0 -0.45264553436E-01  0.50519935551E-02 -0.33531569724E-02  0.45671733264E-01  0.51100000000E-03 0.  1.
</event>
<event>
 8    1  0.2922807E+004  0.1043930E+01  0.7957747E-01            NaN
         13   -1    0    0    0    0  0.00000000000E+00  0.00000000000E+00  0.74505805969E-08  0.10566000000E+00  0.10566000000E+00 0. -1.
     999900   -1    0    0    0    0 -0.00000000000E+00 -0.00000000000E+00 -0.74505805969E-08  0.93827000000E+00  0.93827000000E+00 0.  1.
     999902    2    1    2    0    0  0.98174105020E-02  0.92427917048E-02 -0.22122929128E-02  0.10302659967E+01  0.10301753826E+01 0.  0.
     999903    2    3    3    0    0 -0.63557894066E-01 -0.10915187360E+00  0.34668129809E-01  0.13854776892E+00  0.45164893898E-01 0.  0.
         14    1    1    2    0    0 -0.98174105020E-02 -0.92427917048E-02  0.22122929128E-02  0.13664003344E-01  0.00000000000E+00 0. -1.
     999901    1    3    3    0    0  0.73375304568E-01  0.11839466530E+00 -0.36880422722E-01  0.89171822773E+00  0.88000000000E+00 0.  1.
        -11    1    4    4    0    0 -0.46906352579E-01 -0.90174260637E-01  0.82159944398E-02  0.10197728610E+00  0.51100000000E-03 0. -1.
         11    1    4    4    0    0 -0.16651541487E-01 -0.18977612960E-01  0.26452135370E-01  0.36570482827E-01  0.51100000000E-03 0.  1.
</event>
<event>
 8    1  0.2922807E+004  0.1043930E+01  0.7957747E-01            NaN
         13   -1    0    0    0    0  0.00000000000E+00  0.00000000000E+00  0.74505805969E-08  0.10566000000E+00  0.10566000000E+00 0. -1.
     999900   -1    0    0    0    0 -0.00000000000E+00 -0.00000000000E+00 -0.74505805969E-08  0.93827000000E+00  0.93827000000E+00 0.  1.
     999902    2    1    2    0    0  0.98796333434E-02 -0.51181018836E-02  0.86640294361E-02  0.10298279601E+01  0.10297314019E+01 0.  0.
     999903    2    3    3    0    0 -0.11378946078E-01  0.48544853509E-01  0.12459398209E+00  0.14034980196E+00  0.41089211722E-01 0.  0.
         14    1    1    2    0    0 -0.98796333434E-02  0.51181018836E-02 -0.86640294361E-02  0.14102039851E-01  0.00000000000E+00 0.  1.
     999901    1    3    3    0    0  0.21258579421E-01 -0.53662955393E-01 -0.11592995265E+00  0.88947815819E+00  0.88000000000E+00 0.  1.
        -11    1    4    4    0    0  0.10399296688E-01  0.39142724583E-01  0.85710055194E-01  0.94798591454E-01  0.51100000000E-03 0. -1.
         11    1    4    4    0    0 -0.21778242765E-01  0.94021289264E-02  0.38883926896E-01  0.45551210502E-01  0.51100000000E-03 0.  1.
</event>
<event>
 8    1  0.2922807E+004  0.1043930E+01  0.7957747E-01            NaN
         13   -1    0    0    0    0  0.00000000000E+00  0.00000000000E+00  0.74505805969E-08  0.10566000000E+00  0.10566000000E+00 0.  1.
     999900   -1    0    0    0    0 -0.00000000000E+00 -0.00000000000E+00 -0.74505805969E-08  0.93827000000E+00  0.93827000000E+00 0.  1.
     999902    2    1    2    0    0 -0.27600811253E-02 -0.13681307750E-01  0.44766002860E-02  0.10292727090E+01  0.10291683406E+01 0.  0.
     999903    2    3    3    0    0 -0.15044066513E-01 -0.14142223685E-01  0.13084592237E+00  0.14016061578E+00  0.45804108829E-01 0.  0.
         14    1    1    2    0    0  0.27600811253E-02  0.13681307750E-01 -0.44766002860E-02  0.14657291007E-01  0.00000000000E+00 0. -1.
     999901    1    3    3    0    0  0.12283985387E-01  0.46091593509E-03 -0.12636932208E+00  0.88911209322E+00  0.88000000000E+00 0.  1.
        -11    1    4    4    0    0 -0.24637564570E-01  0.54905712112E-02  0.45236576935E-01  0.51805067069E-01  0.51100000000E-03 0. -1.
         11    1    4    4    0    0  0.95934980577E-02 -0.19632794896E-01  0.85609345435E-01  0.88355548707E-01  0.51100000000E-03 0.  1.
</event>
<event>
 8    1  0.2922807E+004  0.1043930E+01  0.7957747E-01            NaN
         13   -1    0    0    0    0  0.00000000000E+00  0.00000000000E+00  0.74505805969E-08  0.10566000000E+00  0.10566000000E+00 0.  1.
     999900   -1    0    0    0    0 -0.00000000000E+00 -0.00000000000E+00 -0.74505805969E-08  0.93827000000E+00  0.93827000000E+00 0. -1.
     999902    2    1    2    0    0  0.40971651011E-02 -0.13553632319E-01 -0.47765027792E-02  0.10289866841E+01  0.10288781723E+01 0.  0.
     999903    2    3    3    0    0 -0.93990563886E-01  0.42534827258E-01  0.79658169456E-01  0.13775364402E+00  0.44578075896E-01 0.  0.
         14    1    1    2    0    0 -0.40971651011E-02  0.13553632319E-01  0.47765027792E-02  0.14943315888E-01  0.00000000000E+00 0. -1.
     999901    1    3    3    0    0  0.98087728987E-01 -0.56088459577E-01 -0.84434672235E-01  0.89123304009E+00  0.88000000000E+00 0.  1.
        -11    1    4    4    0    0 -0.70860555557E-01  0.25532462042E-01  0.78830484580E-01  0.10903041489E+00  0.51100000000E-03 0. -1.
         11    1    4    4    0    0 -0.23130008328E-01  0.17002365216E-01  0.82768487502E-03  0.28723229127E-01  0.51100000000E-03 0.  1.
</event>
<event>
 8    1  0.2922807E+004  0.1043930E+01  0.7957747E-01            NaN
         13   -1    0    0    0    0  0.00000000000E+00  0.00000000000E+00  0.74505805969E-08  0.10566000000E+00  0.10566000000E+00 0. -1.
     999900   -1    0    0    0    0 -0.00000000000E+00 -0.00000000000E+00 -0.74505805969E-08  0.93827000000E+00  0.93827000000E+00 0. -1.
     999902    2    1    2    0    0 -0.72775229644E-02  0.76970210187E-02 -0.98800405681E-02  0.10294447774E+01  0.10293428622E+01 0.  0.
     999903    2    3    3    0    0 -0.50723215142E-01 -0.70725939627E-01 -0.10037902890E+00  0.14027226553E+00  0.45003954733E-01 0.  0.
         14    1    1    2    0    0  0.72775229644E-02 -0.76970210187E-02  0.98800405681E-02  0.14485222632E-01  0.00000000000E+00 0. -1.
     999901    1    3    3    0    0  0.43445692177E-01  0.78422960646E-01  0.90498988337E-01  0.88917251184E+00  0.88000000000E+00 0.  1.
        -11    1    4    4    0    0 -0.47688892211E-01 -0.46584329446E-01 -0.46887798400E-01  0.81504950464E-01  0.51100000000E-03 0.  1.
         11    1    4    4    0    0 -0.30343229304E-02 -0.24141610181E-01 -0.53491230505E-01  0.58767315063E-01  0.51100000000E-03 0. -1.
</event>
<event>
 8    1  0.2922807E+004  0.1043930E+01  0.7957747E-01            NaN
         13   -1    0    0    0    0  0.00000000000E+00  0.00000000000E+00  0.74505805969E-08  0.10566000000E+00  0.10566000000E+00 0. -1.
     999900   -1    0    0    0    0 -0.00000000000E+00 -0.00000000000E+00 -0.74505805969E-08  0.93827000000E+00  0.93827000000E+00 0.  1.
     999902    2    1    2    0    0  0.99907719967E-02  0.91413114819E-02 -0.43748028728E-02  0.10296991181E+01  0.10296007749E+01 0.  0.
     999903    2    3    3    0    0 -0.11325898755E+00  0.49610410445E-01  0.45921370215E-01  0.13876816887E+00  0.43116601948E-01 0.  0.
         14    1    1    2    0    0 -0.99907719967E-02 -0.91413114819E-02  0.43748028728E-02  0.14230881943E-01  0.00000000000E+00 0. -1.
     999901    1    3    3    0    0  0.12324975954E+00 -0.40469098963E-01 -0.50296173088E-01  0.89093094919E+00  0.88000000000E+00 0. -1.
        -11    1    4    4    0    0 -0.40270093257E-01  0.13842669933E-01  0.38043516497E-01  0.57104029545E-01  0.51100000000E-03 0.  1.
         11    1    4    4    0    0 -0.72988894289E-01  0.35767740512E-01  0.78778537179E-02  0.81664139321E-01  0.51100000000E-03 0. -1.
</event>
<event>
 8    1  0.2922807E+004  0.1043930E+01  0.7957747E-01            NaN
         13   -1    0    0    0    0  0.00000000000E+00  0.00000000000E+00  0.74505805969E-08  0.10566000000E+00  0.10566000000E+00 0.  1.
     999900   -1    0    0    0    0 -0.00000000000E+00 -0.00000000000E+00 -0.74505805969E-08  0.93827000000E+00  0.93827000000E+00 0.  1.
     999902    2    1    2    0    0  0.11158257493E-01  0.58977153089E-03 -0.86737589519E-02  0.10297847310E+01  0.10296875757E+01 0.  0.
     999903    2    3    3    0    0 -0.11233166142E+00 -0.66909123490E-01 -0.10427574623E-01  0.13860072263E+00  0.44790546286E-01 0.  0.
         14    1    1    2    0    0 -0.11158257493E-01 -0.58977153089E-03  0.86737589519E-02  0.14145269001E-01  0.00000000000E+00 0.  1.
     999901    1    3    3    0    0  0.12348991892E+00  0.67498895021E-01  0.17538156715E-02  0.89118400837E+00  0.88000000000E+00 0.  1.
        -11    1    4    4    0    0 -0.82635890520E-01 -0.30291977726E-01 -0.20542695253E-01  0.90380073942E-01  0.51100000000E-03 0.  1.
         11    1    4    4    0    0 -0.29695770904E-01 -0.36617145765E-01  0.10115120630E-01  0.48220648688E-01  0.51100000000E-03 0. -1.
</event>
<event>
 8    1  0.2922807E+004  0.1043930E+01  0.7957747E-01            NaN
         13   -1    0    0    0    0  0.00000000000E+00  0.00000000000E+00  0.74505805969E-08  0.10566000000E+00  0.10566000000E+00 0. -1.
     999900   -1    0    0    0    0 -0.00000000000E+00 -0.00000000000E+00 -0.74505805969E-08  0.93827000000E+00  0.93827000000E+00 0.  1.
     999902    2    1    2    0    0 -0.12706945383E-01 -0.43713904942E-02 -0.14246194858E-02  0.10304168562E+01  0.10303282450E+01 0.  0.
     999903    2    3    3    0    0  0.53500510593E-01 -0.15660863624E-01  0.12106793315E+00  0.13939760559E+00  0.40825001227E-01 0.  0.
         14    1    1    2    0    0  0.12706945383E-01  0.43713904942E-02  0.14246194858E-02  0.13513143842E-01  0.00000000000E+00 0.  1.
     999901    1    3    3    0    0 -0.66207455975E-01  0.11289473130E-01 -0.12249255263E+00  0.89101925057E+00  0.88000000000E+00 0.  1.
        -11    1    4    4    0    0  0.13312196409E-01  0.17034071658E-02  0.73624363440E-01  0.74839322432E-01  0.51100000000E-03 0.  1.
         11    1    4    4    0    0  0.40188314183E-01 -0.17364270790E-01  0.47443569706E-01  0.64558283159E-01  0.51100000000E-03 0. -1.
</event>
<event>
 8    1  0.2922807E+004  0.1043930E+01  0.7957747E-01            NaN
         13   -1    0    0    0    0  0.00000000000E+00  0.00000000000E+00  0.74505805969E-08  0.10566000000E+00  0.10566000000E+00 0. -1.
     999900   -1    0    0    0    0 -0.00000000000E+00 -0.00000000000E+00 -0.74505805969E-08  0.93827000000E+00  0.93827000000E+00 0.  1.
     999902    2    1    2    0    0  0.71750562312E-02  0.81682924396E-02 -0.85935958800E-02  0.10300717056E+01  0.10299784786E+01 0.  0.
     999903    2    3    3    0    0 -0.77280279486E-01  0.31486094390E-01 -0.10376095840E+00  0.14061498912E+00  0.45195386257E-01 0.  0.
         14    1    1    2    0    0 -0.71750562312E-02 -0.81682924396E-02  0.85935958800E-02  0.13858294392E-01  0.00000000000E+00 0. -1.
     999901    1    3    3    0    0  0.84455335718E-01 -0.23317801950E-01  0.95167362522E-01  0.88945671649E+00  0.88000000000E+00 0. -1.
        -11    1    4    4    0    0 -0.32453083744E-01 -0.35893168643E-02 -0.16910903151E-01  0.36773980018E-01  0.51100000000E-03 0.  1.
         11    1    4    4    0    0 -0.44827195743E-01  0.35075411254E-01 -0.86850055251E-01  0.10384100910E+00  0.51100000000E-03 0. -1.
</event>
<event>
 8    1  0.2922807E+004  0.1043930E+01  0.7957747E-01            NaN
         13   -1    0    0    0    0  0.00000000000E+00  0.00000000000E+00  0.74505805969E-08  0.10566000000E+00  0.10566000000E+00 0.  1.
     999900   -1    0    0    0    0 -0.00000000000E+00 -0.00000000000E+00 -0.74505805969E-08  0.93827000000E+00  0.93827000000E+00 0.  1.
     999902    2    1    2    0    0 -0.12721251597E-01 -0.10074714287E-02 -0.39228535004E-02  0.10305795685E+01  0.10304930922E+01 0.  0.
     999903    2    3    3    0    0 -0.55737995033E-01 -0.41496626839E-01 -0.11502122999E+00  0.14162925429E+00  0.44724357945E-01 0.  0.
         14    1    1    2    0    0  0.12721251597E-01  0.10074714287E-02  0.39228535004E-02  0.13350431471E-01  0.00000000000E+00 0. -1.
     999901    1    3    3    0    0  0.43016743436E-01  0.40489155410E-01  0.11109837649E+00  0.88895031424E+00  0.88000000000E+00 0.  1.
        -11    1    4    4    0    0 -0.39882386588E-01 -0.16609183500E-01 -0.32722760566E-01  0.54198799955E-01  0.51100000000E-03 0.  1.
         11    1    4    4    0    0 -0.15855608445E-01 -0.24887443339E-01 -0.82298469424E-01  0.87430454338E-01  0.51100000000E-03 0. -1.
</event>
<event>
 8    1  0.2922807E+004  0.1043930E+01  0.7957747E-01            NaN
         13   -1    0    0    0    0  0.00000000000E+00  0.00000000000E+00  0.74505805969E-08  0.10566000000E+00  0.10566000000E+00 0.  1.
     999900   -1    0    0    0    0 -0.00000000000E+00 -0.00000000000E+00 -0.74505805969E-08  0.93827000000E+00  0.93827000000E+00 0. -1.
     999902    2    1    2    0    0  0.55159864070E-02  0.73461113930E-02 -0.10745929295E-01  0.10297925867E+01  0.10296955400E+01 0.  0.
     999903    2    3    3    0    0  0.12364107199E+00 -0.44474878938E-01  0.30976139476E-02  0.14028115081E+00  0.49031383016E-01 0.  0.
         14    1    1    2    0    0 -0.55159864070E-02 -0.73461113930E-02  0.10745929295E-01  0.14137413309E-01  0.00000000000E+00 0.  1.
     999901    1    3    3    0    0 -0.11812508558E+00  0.51820990331E-01 -0.13843543243E-01  0.88951143589E+00  0.88000000000E+00 0. -1.
        -11    1    4    4    0    0  0.53466103692E-01 -0.33173617347E-01 -0.19195378435E-01  0.65786296492E-01  0.51100000000E-03 0.  1.
         11    1    4    4    0    0  0.70174968295E-01 -0.11301261591E-01  0.22292992383E-01  0.74494854313E-01  0.51100000000E-03 0. -1.
</event>
<event>
 8    1  0.2922807E+004  0.1043930E+01  0.7957747E-01            NaN
         13   -1    0    0    0    0  0.00000000000E+00  0.00000000000E+00  0.74505805969E-08  0.10566000000E+00  0.10566000000E+00 0.  1.
     999900   -1    0    0    0    0 -0.00000000000E+00 -0.00000000000E+00 -0.74505805969E-08  0.93827000000E+00  0.93827000000E+00 0.  1.
     999902    2    1    2    0    0 -0.42391475162E-02  0.77385353040E-02 -0.10980067568E-01  0.10298439365E+01  0.10297475984E+01 0.  0.
     999903    2    3    3    0    0 -0.84436579180E-01 -0.76118647627E-01  0.66040076220E-01  0.13889177298E+00  0.44788932957E-01 0.  0.
         14    1    1    2    0    0  0.42391475162E-02 -0.77385353040E-02  0.10980067568E-01  0.14086063471E-01  0.00000000000E+00 0.  1.
     999901    1    3    3    0    0  0.80197431664E-01  0.83857182931E-01 -0.77020143788E-01  0.89095216354E+00  0.88000000000E+00 0.  1.
        -11    1    4    4    0    0 -0.52115199447E-01 -0.73021929089E-01  0.48618147534E-01  0.10204009767E+00  0.51100000000E-03 0.  1.
         11    1    4    4    0    0 -0.32321379733E-01 -0.30967185381E-02  0.17421928686E-01  0.36851675317E-01  0.51100000000E-03 0. -1.
</event>
<event>
 8    1  0.2922807E+004  0.1043930E+01  0.7957747E-01            NaN
         13   -1    0    0    0    0  0.00000000000E+00  0.00000000000E+00  0.74505805969E-08  0.10566000000E+00  0.10566000000E+00 0.  1.
     999900   -1    0    0    0    0 -0.00000000000E+00 -0.00000000000E+00 -0.74505805969E-08  0.93827000000E+00  0.93827000000E+00 0.  1.
     999902    2    1    2    0    0 -0.94884204230E-02  0.10553126339E-01 -0.58796577188E-02  0.10285687184E+01  0.10284540046E+01 0.  0.
     999903    2    3    3    0    0  0.90781399512E-01 -0.68112247278E-01 -0.63367877185E-01  0.13753158495E+00  0.44932263176E-01 0.  0.
         14    1    1    2    0    0  0.94884204230E-02 -0.10553126339E-01  0.58796577188E-02  0.15361281605E-01  0.00000000000E+00 0.  1.
     999901    1    3    3    0    0 -0.10026981993E+00  0.78665373617E-01  0.57488219467E-01  0.89103713344E+00  0.88000000000E+00 0.  1.
        -11    1    4    4    0    0  0.67436106442E-01 -0.71063832282E-01 -0.56118891933E-01  0.11290388772E+00  0.51100000000E-03 0. -1.
         11    1    4    4    0    0  0.23345293070E-01  0.29515850046E-02 -0.72489852530E-02  0.24627697228E-01  0.51100000000E-03 0.  1.
</event>
<event>
 8    1  0.2922807E+004  0.1043930E+01  0.7957747E-01            NaN
         13   -1    0    0    0    0  0.00000000000E+00  0.00000000000E+00  0.74505805969E-08  0.10566000000E+00  0.10566000000E+00 0. -1.
     999900   -1    0    0    0    0 -0.00000000000E+00 -0.00000000000E+00 -0.74505805969E-08  0.93827000000E+00  0.93827000000E+00 0.  1.
     999902    2    1    2    0    0 -0.75613002679E-02 -0.11194368324E-01  0.49384247735E-02  0.10295468438E+01  0.10294463698E+01 0.  0.
     999903    2    3    3    0    0  0.36874620959E-01 -0.10318537113E+00 -0.74476819160E-01  0.14008426633E+00  0.45495566767E-01 0.  0.
         14    1    1    2    0    0  0.75613002679E-02  0.11194368324E-01 -0.49384247735E-02  0.14383156231E-01  0.00000000000E+00 0.  1.
     999901    1    3    3    0    0 -0.44435921226E-01  0.91991002807E-01  0.79415243934E-01  0.88946257744E+00  0.88000000000E+00 0. -1.
        -11    1    4    4    0    0  0.55469595782E-02 -0.10403881739E-01 -0.30558506965E-01  0.32758098003E-01  0.51100000000E-03 0.  1.
         11    1    4    4    0    0  0.31327661380E-01 -0.92781489391E-01 -0.43918312195E-01  0.10732616833E+00  0.51100000000E-03 0. -1.
</event>
<event>
 8    1  0.2922807E+004  0.1043930E+01  0.7957747E-01            NaN
         13   -1    0    0    0    0  0.00000000000E+00  0.00000000000E+00  0.74505805969E-08  0.10566000000E+00  0.10566000000E+00 0.  1.
     999900   -1    0    0    0    0 -0.00000000000E+00 -0.00000000000E+00 -0.74505805969E-08  0.93827000000E+00  0.93827000000E+00 0.  1.
     999902    2    1    2    0    0 -0.72543340344E-02 -0.11408381715E-01 -0.91919149064E-03  0.10303793008E+01  0.10302901931E+01 0.  0.
     999903    2    3    3    0    0 -0.11243130272E+00 -0.55416696107E-01 -0.49076719906E-01  0.14171846898E+00  0.44314692549E-01 0.  0.
         14    1    1    2    0    0  0.72543340344E-02  0.11408381715E-01  0.91919149064E-03  0.13550699193E-01  0.00000000000E+00 0.  1.
     999901    1    3    3    0    0  0.10517696868E+00  0.44008314393E-01  0.48157528415E-01  0.88866083183E+00  0.88000000000E+00 0. -1.
        -11    1    4    4    0    0 -0.70071275980E-01 -0.50225039488E-01 -0.48739574654E-01  0.99037091878E-01  0.51100000000E-03 0.  1.
         11    1    4    4    0    0 -0.42360026736E-01 -0.51916566194E-02 -0.33714525136E-03  0.42681377104E-01  0.51100000000E-03 0. -1.
</event>
<event>
 8    1  0.2922807E+004  0.1043930E+01  0.7957747E-01            NaN
         13   -1    0    0    0    0  0.00000000000E+00  0.00000000000E+00  0.74505805969E-08  0.10566000000E+00  0.10566000000E+00 0. -1.
     999900   -1    0    0    0    0 -0.00000000000E+00 -0.00000000000E+00 -0.74505805969E-08  0.93827000000E+00  0.93827000000E+00 0. -1.
     999902    2    1    2    0    0  0.32525459251E-02 -0.11855627142E-01  0.99337092989E-02  0.10281245095E+01  0.10280030124E+01 0.  0.
     999903    2    3    3    0    0  0.30748050889E-03 -0.24389808528E-01  0.13012562140E+00  0.13986110551E+00  0.45094281081E-01 0.  0.
         14    1    1    2    0    0 -0.32525459251E-02  0.11855627142E-01 -0.99337092989E-02  0.15805490513E-01  0.00000000000E+00 0.  1.
     999901    1    3    3    0    0  0.29450654162E-02  0.12534181386E-01 -0.12019191210E+00  0.88826340398E+00  0.88000000000E+00 0. -1.
        -11    1    4    4    0    0  0.18380185899E-01 -0.14610559528E-02  0.27130442255E-01  0.32806827584E-01  0.51100000000E-03 0. -1.
         11    1    4    4    0    0 -0.18072705390E-01 -0.22928752575E-01  0.10299517914E+00  0.10705427792E+00  0.51100000000E-03 0.  1.
</event>
<event>
 8    1  0.2922807E+004  0.1043930E+01  0.7957747E-01            NaN
         13   -1    0    0    0    0  0.00000000000E+00  0.00000000000E+00  0.74505805969E-08  0.10566000000E+00  0.10566000000E+00 0. -1.
     999900   -1    0    0    0    0 -0.00000000000E+00 -0.00000000000E+00 -0.74505805969E-08  0.93827000000E+00  0.93827000000E+00 0.  1.
     999902    2    1    2    0    0 -0.67465623722E-02 -0.62206369249E-02  0.11144936487E-01  0.10294931708E+01  0.10293919403E+01 0.  0.
     999903    2    3    3    0    0  0.36973815746E-01  0.12498770745E+00  0.15152517391E-01  0.13868277471E+00  0.44881211588E-01 0.  0.
         14    1    1    2    0    0  0.67465623722E-02  0.62206369249E-02 -0.11144936487E-01  0.14436829184E-01  0.00000000000E+00 0.  1.
     999901    1    3    3    0    0 -0.43720378118E-01 -0.13120834438E+00 -0.40075809040E-02  0.89081039610E+00  0.88000000000E+00 0.  1.
        -11    1    4    4    0    0  0.27417897421E-01  0.32765974904E-01 -0.71498235285E-02  0.43321256998E-01  0.51100000000E-03 0. -1.
         11    1    4    4    0    0  0.95559183247E-02  0.92221732551E-01  0.22302340920E-01  0.95361517717E-01  0.51100000000E-03 0.  1.
</event>
<event>
 8    1  0.2922807E+004  0.1043930E+01  0.7957747E-01            NaN
         13   -1    0    0    0    0  0.00000000000E+00  0.00000000000E+00  0.74505805969E-08  0.10566000000E+00  0.10566000000E+00 0.  1.
     999900   -1    0    0    0    0 -0.00000000000E+00 -0.00000000000E+00 -0.74505805969E-08  0.93827000000E+00  0.93827000000E+00 0.  1.
     999902    2    1    2    0    0  0.10826602443E-01  0.57043022753E-02 -0.80047256950E-02  0.10293070722E+01  0.10292031961E+01 0.  0.
     999903    2    3    3    0    0 -0.99794852883E-01  0.78850721652E-01 -0.33389984123E-01  0.13900829289E+00  0.45077327833E-01 0.  0.
         14    1    1    2    0    0 -0.10826602443E-01 -0.57043022753E-02  0.80047256950E-02  0.14622927831E-01  0.00000000000E+00 0.  1.
     999901    1    3    3    0    0  0.11062145533E+00 -0.73146419377E-01  0.25385258428E-01  0.89029877928E+00  0.88000000000E+00 0.  1.
        -11    1    4    4    0    0 -0.63299394345E-01  0.65401168254E-01 -0.40230461627E-01  0.99513201622E-01  0.51100000000E-03 0. -1.
         11    1    4    4    0    0 -0.36495458537E-01  0.13449553399E-01  0.68404775041E-02  0.39495091264E-01  0.51100000000E-03 0.  1.
</event>
<event>
 8    1  0.2922807E+004  0.1043930E+01  0.7957747E-01            NaN
         13   -1    0    0    0    0  0.00000000000E+00  0.00000000000E+00  0.74505805969E-08  0.10566000000E+00  0.10566000000E+00 0.  1.
     999900   -1    0    0    0    0 -0.00000000000E+00 -0.00000000000E+00 -0.74505805969E-08  0.93827000000E+00  0.93827000000E+00 0.  1.
     999902    2    1    2    0    0 -0.42351336878E-04 -0.53125626978E-02  0.14425940674E-01  0.10285568780E+01  0.10284419859E+01 0.  0.
     999903    2    3    3    0    0 -0.19894884175E-01 -0.24484514571E-02 -0.12808086327E+00  0.13686718120E+00  0.43887542887E-01 0.  0.
         14    1    1    2    0    0  0.42351336878E-04  0.53125626978E-02 -0.14425940674E-01  0.15373122012E-01  0.00000000000E+00 0. -1.
     999901    1    3    3    0    0  0.19852532838E-01 -0.28641112407E-02  0.14250680395E+00  0.89168969679E+00  0.88000000000E+00 0. -1.
        -11    1    4    4    0    0  0.50185403198E-02 -0.11180084992E-01 -0.88128960830E-01  0.88978395723E-01  0.51100000000E-03 0. -1.
         11    1    4    4    0    0 -0.24913424495E-01  0.87316335345E-02 -0.39951902444E-01  0.47888785474E-01  0.51100000000E-03 0.  1.
</event>
<event>
 7    1  0.2922807E+004  0.1043930E+01  0.7957747E-01            NaN
         13   -1    0    0    0    0  0.00000000000E+00  0.00000000000E+00  0.74505805969E-08  0.10566000000E+00  0.10566000000E+00 0. -1.
     999900   -1    0    0    0    0 -0.00000000000E+00 -0.00000000000E+00 -0.74505805969E-08  0.93827000000E+00  0.93827000000E+00 0. -1.
     999903    2    1    2    0    0 -0.29422764932E-02 -0.11294453472E+00  0.92450633141E-03  0.12158682871E+00  0.44915223378E-01 0.  0.
         14    1    1    2    0    0  0.45073232524E-02  0.24111379020E-01  0.28218711546E-01  0.37389440253E-01  0.00000000000E+00 0. -1.
     999901    1    1    2    0    0 -0.15650467592E-02  0.88833155697E-01 -0.29143217877E-01  0.88495373103E+00  0.88000000000E+00 0. -1.
        -11    1    3    3    0    0 -0.74017182441E-02 -0.59063106398E-01  0.22131817508E-01  0.63508380844E-01  0.51100000000E-03 0.  1.
         11    1    3    3    0    0  0.44594417509E-02 -0.53881428319E-01 -0.21207311176E-01  0.58078447868E-01  0.51100000000E-03 0. -1.
</event>
<event>
 8    1  0.2922807E+004  0.1043930E+01  0.7957747E-01            NaN
         13   -1    0    0    0    0  0.00000000000E+00  0.00000000000E+00  0.74505805969E-08  0.10566000000E+00  0.10566000000E+00 0.  1.
     999900   -1    0    0    0    0 -0.00000000000E+00 -0.00000000000E+00 -0.74505805969E-08  0.93827000000E+00  0.93827000000E+00 0.  1.
     999902    2    1    2    0    0  0.12022776774E-01 -0.13187227481E-01 -0.63516862733E-02  0.10249881403E+01  0.10248131019E+01 0.  0.
     999903    2    3    3    0    0 -0.83024894344E-01  0.89416202273E-01 -0.42676715126E-01  0.13320283470E+00  0.32145028359E-01 0.  0.
         14    1    1    2    0    0 -0.12022776774E-01  0.13187227481E-01  0.63516862733E-02  0.18941859690E-01  0.00000000000E+00 0.  1.
     999901    1    3    3    0    0  0.95047671118E-01 -0.10260342975E+00  0.36325028853E-01  0.89178530561E+00  0.88000000000E+00 0. -1.
        -11    1    4    4    0    0 -0.21863103041E-02  0.11189106527E-01 -0.12091156561E-01  0.16626281773E-01  0.51100000000E-03 0.  1.
         11    1    4    4    0    0 -0.80838584040E-01  0.78227095746E-01 -0.30585558565E-01  0.11657655293E+00  0.51100000000E-03 0. -1.
</event>
<event>
 8    1  0.2922807E+004  0.1043930E+01  0.7957747E-01            NaN
         13   -1    0    0    0    0  0.00000000000E+00  0.00000000000E+00  0.74505805969E-08  0.10566000000E+00  0.10566000000E+00 0. -1.
     999900   -1    0    0    0    0 -0.00000000000E+00 -0.00000000000E+00 -0.74505805969E-08  0.93827000000E+00  0.93827000000E+00 0.  1.
     999902    2    1    2    0    0 -0.61256013607E-02 -0.54186210766E-02  0.10975704142E-01  0.10302423951E+01  0.10301514656E+01 0.  0.
     999903    2    3    3    0    0  0.75404216694E-01 -0.10871427408E+00 -0.90284488610E-02  0.14023269330E+00  0.45597215896E-01 0.  0.
         14    1    1    2    0    0  0.61256013607E-02  0.54186210766E-02 -0.10975704142E-01  0.13687604897E-01  0.00000000000E+00 0.  1.
     999901    1    3    3    0    0 -0.81529818054E-01  0.10329565301E+00  0.20004153003E-01  0.89000970180E+00  0.88000000000E+00 0. -1.
        -11    1    4    4    0    0  0.42200950181E-01 -0.87232979812E-01  0.78684173440E-02  0.97224925176E-01  0.51100000000E-03 0.  1.
         11    1    4    4    0    0  0.33203266512E-01 -0.21481294271E-01 -0.16896866205E-01  0.43007768126E-01  0.51100000000E-03 0. -1.
</event>
<event>
 8    1  0.2922807E+004  0.1043930E+01  0.7957747E-01            NaN
         13   -1    0    0    0    0  0.00000000000E+00  0.00000000000E+00  0.74505805969E-08  0.10566000000E+00  0.10566000000E+00 0.  1.
     999900   -1    0    0    0    0 -0.00000000000E+00 -0.00000000000E+00 -0.74505805969E-08  0.93827000000E+00  0.93827000000E+00 0. -1.
     999902    2    1    2    0    0  0.19364778010E-02 -0.71126998334E-02  0.12124797114E-01  0.10297401744E+01  0.10296424018E+01 0.  0.
     999903    2    3    3    0    0  0.29365669548E-01 -0.43716800487E-01  0.12337141597E+00  0.14155774329E+00  0.45217111971E-01 0.  0.
         14    1    1    2    0    0 -0.19364778010E-02  0.71126998334E-02 -0.12124797114E-01  0.14189825589E-01  0.00000000000E+00 0. -1.
     999901    1    3    3    0    0 -0.27429191747E-01  0.36604100653E-01 -0.11124661885E+00  0.88818243112E+00  0.88000000000E+00 0. -1.
        -11    1    4    4    0    0  0.21719540741E-01 -0.72303708501E-02  0.85107796385E-01  0.88134073088E-01  0.51100000000E-03 0.  1.
         11    1    4    4    0    0  0.76461288073E-02 -0.36486429636E-01  0.38263619582E-01  0.53423670202E-01  0.51100000000E-03 0. -1.
</event>
<event>
 8    1  0.2922807E+004  0.1043930E+01  0.7957747E-01            NaN
         13   -1    0    0    0    0  0.00000000000E+00  0.00000000000E+00  0.74505805969E-08  0.10566000000E+00  0.10566000000E+00 0.  1.
     999900   -1    0    0    0    0 -0.00000000000E+00 -0.00000000000E+00 -0.74505805969E-08  0.93827000000E+00  0.93827000000E+00 0. -1.
     999902    2    1    2    0    0  0.13094378417E-01  0.10319881819E-02  0.79796083137E-02  0.10285611388E+01  0.10284463109E+01 0.  0.
     999903    2    3    3    0    0 -0.11662546302E-01 -0.67337994696E-01 -0.11104449026E+00  0.13757623662E+00  0.43885322689E-01 0.  0.
         14    1    1    2    0    0 -0.13094378417E-01 -0.10319881819E-02 -0.79796083137E-02  0.15368861200E-01  0.00000000000E+00 0.  1.
     999901    1    3    3    0    0  0.24756924719E-01  0.68369982878E-01  0.11902409858E+00  0.89098490219E+00  0.88000000000E+00 0.  1.
        -11    1    4    4    0    0  0.61761133989E-02 -0.53015528975E-01 -0.53159507030E-01  0.75332496294E-01  0.51100000000E-03 0.  1.
         11    1    4    4    0    0 -0.17838659701E-01 -0.14322465720E-01 -0.57884983233E-01  0.62243740321E-01  0.51100000000E-03 0. -1.
</event>
<event>
 8    1  0.2922807E+004  0.1043930E+01  0.7957747E-01            NaN
         13   -1    0    0    0    0  0.00000000000E+00  0.00000000000E+00  0.74505805969E-08  0.10566000000E+00  0.10566000000E+00 0.  1.
     999900   -1    0    0    0    0 -0.00000000000E+00 -0.00000000000E+00 -0.74505805969E-08  0.93827000000E+00  0.93827000000E+00 0. -1.
     999902    2    1    2    0    0 -0.12680701762E-01 -0.44923885734E-02 -0.11297083919E-01  0.10263628187E+01  0.10262124682E+01 0.  0.
     999903    2    3    3    0    0  0.17266494407E-01 -0.96262566893E-01 -0.86361502935E-01  0.13790726713E+00  0.44670924823E-01 0.  0.
         14    1    1    2    0    0  0.12680701762E-01  0.44923885734E-02  0.11297083919E-01  0.17567181257E-01  0.00000000000E+00 0. -1.
     999901    1    3    3    0    0 -0.29947196168E-01  0.91770178319E-01  0.75064419016E-01  0.88845555161E+00  0.88000000000E+00 0.  1.
        -11    1    4    4    0    0 -0.59754408535E-02 -0.35543958880E-02 -0.20974258245E-01  0.22102494281E-01  0.51100000000E-03 0.  1.
         11    1    4    4    0    0  0.23241935260E-01 -0.92708171005E-01 -0.65387244690E-01  0.11580477285E+00  0.51100000000E-03 0. -1.
</event>
<event>
 8    1  0.2922807E+004  0.1043930E+01  0.7957747E-01            NaN
         13   -1    0    0    0    0  0.00000000000E+00  0.00000000000E+00  0.74505805969E-08  0.10566000000E+00  0.10566000000E+00 0.  1.
     999900   -1    0    0    0    0 -0.00000000000E+00 -0.00000000000E+00 -0.74505805969E-08  0.93827000000E+00  0.93827000000E+00 0. -1.
     999902    2    1    2    0    0 -0.92254597007E-02 -0.77227988851E-02 -0.70102160228E-02  0.10300054225E+01  0.10299112955E+01 0.  0.
     999903    2    3    3    0    0 -0.14441985647E-01  0.97215296935E-01  0.87416417880E-01  0.13873912938E+00  0.44130839541E-01 0.  0.
         14    1    1    2    0    0  0.92254597007E-02  0.77227988851E-02  0.70102160228E-02  0.13924577480E-01  0.00000000000E+00 0.  1.
     999901    1    3    3    0    0  0.52165259461E-02 -0.10493809582E+00 -0.94426633903E-01  0.89126629314E+00  0.88000000000E+00 0. -1.
        -11    1    4    4    0    0  0.12631395053E-01  0.32410691032E-01  0.15083902445E-01  0.37918204970E-01  0.51100000000E-03 0.  1.
         11    1    4    4    0    0 -0.27073380700E-01  0.64804605903E-01  0.72332515435E-01  0.10082092441E+00  0.51100000000E-03 0. -1.
</event>
<event>
 8    1  0.2922807E+004  0.1043930E+01  0.7957747E-01            NaN
         13   -1    0    0    0    0  0.00000000000E+00  0.00000000000E+00  0.74505805969E-08  0.10566000000E+00  0.10566000000E+00 0. -1.
     999900   -1    0    0    0    0 -0.00000000000E+00 -0.00000000000E+00 -0.74505805969E-08  0.93827000000E+00  0.93827000000E+00 0.  1.
     999902    2    1    2    0    0 -0.31719224729E-02 -0.27915792015E-02 -0.13369990463E-01  0.10299082080E+01  0.10298127530E+01 0.  0.
     999903    2    3    3    0    0  0.89292242581E-01  0.78905644900E-01 -0.59061633005E-01  0.14012633333E+00  0.44135104141E-01 0.  0.
         14    1    1    2    0    0  0.31719224729E-02  0.27915792015E-02  0.13369990463E-01  0.14021792025E-01  0.00000000000E+00 0. -1.
     999901    1    3    3    0    0 -0.92464165054E-01 -0.81697224102E-01  0.45691642542E-01  0.88978187464E+00  0.88000000000E+00 0. -1.
        -11    1    4    4    0    0  0.48007969296E-01  0.68442617110E-01 -0.31222611185E-01  0.89242756137E-01  0.51100000000E-03 0.  1.
         11    1    4    4    0    0  0.41284273285E-01  0.10463027790E-01 -0.27839021820E-01  0.50883577195E-01  0.51100000000E-03 0. -1.
</event>
<event>
 8    1  0.2922807E+004  0.1043930E+01  0.7957747E-01            NaN
         13   -1    0    0    0    0  0.00000000000E+00  0.00000000000E+00  0.74505805969E-08  0.10566000000E+00  0.10566000000E+00 0. -1.
     999900   -1    0    0    0    0 -0.00000000000E+00 -0.00000000000E+00 -0.74505805969E-08  0.93827000000E+00  0.93827000000E+00 0.  1.
     999902    2    1    2    0    0 -0.99477152625E-02  0.32088109531E-03  0.11039982460E-01  0.10290659085E+01  0.10289585525E+01 0.  0.
     999903    2    3    3    0    0 -0.39448609229E-02 -0.36072700947E-01 -0.12387564697E+00  0.13802003193E+00  0.48862578942E-01 0.  0.
         14    1    1    2    0    0  0.99477152625E-02 -0.32088109531E-03 -0.11039982460E-01  0.14864091508E-01  0.00000000000E+00 0.  1.
     999901    1    3    3    0    0 -0.60028543395E-02  0.36393582043E-01  0.13491562943E+00  0.89104587656E+00  0.88000000000E+00 0. -1.
        -11    1    4    4    0    0 -0.17135807366E-01 -0.33848626068E-01 -0.11694357533E+00  0.12294481003E+00  0.51100000000E-03 0. -1.
         11    1    4    4    0    0  0.13190946443E-01 -0.22240748792E-02 -0.69320716335E-02  0.15075221898E-01  0.51100000000E-03 0.  1.
</event>
<event>
 8    1  0.2922807E+004  0.1043930E+01  0.7957747E-01            NaN
         13   -1    0    0    0    0  0.00000000000E+00  0.00000000000E+00  0.74505805969E-08  0.10566000000E+00  0.10566000000E+00 0. -1.
     999900   -1    0    0    0    0 -0.00000000000E+00 -0.00000000000E+00 -0.74505805969E-08  0.93827000000E+00  0.93827000000E+00 0.  1.
     999902    2    1    2    0    0 -0.43205482452E-02  0.59014891503E-02 -0.11979190342E-01  0.10298944839E+01  0.10297988407E+01 0.  0.
     999903    2    3    3    0    0  0.77698684451E-01 -0.73704407916E-01 -0.77991828979E-01  0.14005072129E+00  0.45409842913E-01 0.  0.
         14    1    1    2    0    0  0.43205482452E-02 -0.59014891503E-02  0.11979190342E-01  0.14035516114E-01  0.00000000000E+00 0. -1.
     999901    1    3    3    0    0 -0.82019232696E-01  0.79605897066E-01  0.66012638637E-01  0.88984376260E+00  0.88000000000E+00 0.  1.
        -11    1    4    4    0    0  0.46989766148E-01 -0.63510169507E-01 -0.35436000888E-01  0.86588400108E-01  0.51100000000E-03 0. -1.
         11    1    4    4    0    0  0.30708918303E-01 -0.10194238409E-01 -0.42555828091E-01  0.53462321177E-01  0.51100000000E-03 0.  1.
</event>
<event>
 8    1  0.2922807E+004  0.1043930E+01  0.7957747E-01            NaN
         13   -1    0    0    0    0  0.00000000000E+00  0.00000000000E+00  0.74505805969E-08  0.10566000000E+00  0.10566000000E+00 0. -1.
     999900   -1    0    0    0    0 -0.00000000000E+00 -0.00000000000E+00 -0.74505805969E-08  0.93827000000E+00  0.93827000000E+00 0.  1.
     999902    2    1    2    0    0  0.64526260562E-02 -0.33674443641E-02  0.12027992201E-01  0.10298712426E+01  0.10297752801E+01 0.  0.
     999903    2    3    3    0    0 -0.97929394838E-02 -0.29287281300E-01  0.13073088809E+00  0.14137468441E+00  0.44074820253E-01 0.  0.
         14    1    1    2    0    0 -0.64526260562E-02  0.33674443641E-02 -0.12027992201E-01  0.14058757447E-01  0.00000000000E+00 0.  1.
     999901    1    3    3    0    0  0.16245565540E-01  0.25919836936E-01 -0.11870289589E+00  0.88849655815E+00  0.88000000000E+00 0.  1.
        -11    1    4    4    0    0 -0.24443044411E-01 -0.43553069158E-02  0.63767007291E-01  0.68431889191E-01  0.51100000000E-03 0. -1.
         11    1    4    4    0    0  0.14650104927E-01 -0.24931974384E-01  0.66963880800E-01  0.72942795215E-01  0.51100000000E-03 0.  1.
</event>
<event>
 8    1  0.2922807E+004  0.1043930E+01  0.7957747E-01            NaN
         13   -1    0    0    0    0  0.00000000000E+00  0.00000000000E+00  0.74505805969E-08  0.10566000000E+00  0.10566000000E+00 0. -1.
     999900   -1    0    0    0    0 -0.00000000000E+00 -0.00000000000E+00 -0.74505805969E-08  0.93827000000E+00  0.93827000000E+00 0.  1.
     999902    2    1    2    0    0 -0.12738774130E-01 -0.42765366251E-02  0.29509930806E-02  0.10301723297E+01  0.10300804606E+01 0.  0.
     999903    2    3    3    0    0 -0.54732235327E-01 -0.88064399577E-01 -0.84970187233E-01  0.14083887666E+00  0.43182176906E-01 0.  0.
         14    1    1    2    0    0  0.12738774130E-01  0.42765366251E-02 -0.29509930806E-02  0.13757670297E-01  0.00000000000E+00 0. -1.
     999901    1    3    3    0    0  0.41993461197E-01  0.83787862952E-01  0.87921180314E-01  0.88933345305E+00  0.88000000000E+00 0. -1.
        -11    1    4    4    0    0 -0.52689298897E-01 -0.48449997631E-01 -0.45150961568E-01  0.84631170027E-01  0.51100000000E-03 0.  1.
         11    1    4    4    0    0 -0.20429364303E-02 -0.39614401946E-01 -0.39819225666E-01  0.56207706629E-01  0.51100000000E-03 0. -1.
</event>
<event>
 8    1  0.2922807E+004  0.1043930E+01  0.7957747E-01            NaN
         13   -1    0    0    0    0  0.00000000000E+00  0.00000000000E+00  0.74505805969E-08  0.10566000000E+00  0.10566000000E+00 0.  1.
     999900   -1    0    0    0    0 -0.00000000000E+00 -0.00000000000E+00 -0.74505805969E-08  0.93827000000E+00  0.93827000000E+00 0.  1.
     999902    2    1    2    0    0 -0.11725197789E-01 -0.56241433340E-02  0.37892872861E-02  0.10303848920E+01  0.10302958584E+01 0.  0.
     999903    2    3    3    0    0 -0.12089536441E+00 -0.36341300971E-01 -0.45980492449E-01  0.14171245519E+00  0.45075880219E-01 0.  0.
         14    1    1    2    0    0  0.11725197789E-01  0.56241433340E-02 -0.37892872861E-02  0.13545107957E-01  0.00000000000E+00 0.  1.
     999901    1    3    3    0    0  0.10917016662E+00  0.30717157637E-01  0.49769779735E-01  0.88867243686E+00  0.88000000000E+00 0. -1.
        -11    1    4    4    0    0 -0.60728320355E-01 -0.30405517013E-01 -0.44568924117E-01  0.81234687639E-01  0.51100000000E-03 0. -1.
         11    1    4    4    0    0 -0.60167044054E-01 -0.59357839577E-02 -0.14115683320E-02  0.60477767548E-01  0.51100000000E-03 0.  1.
</event>
<event>
 8    1  0.2922807E+004  0.1043930E+01  0.7957747E-01            NaN
         13   -1    0    0    0    0  0.00000000000E+00  0.00000000000E+00  0.74505805969E-08  0.10566000000E+00  0.10566000000E+00 0. -1.
     999900   -1    0    0    0    0 -0.00000000000E+00 -0.00000000000E+00 -0.74505805969E-08  0.93827000000E+00  0.93827000000E+00 0.  1.
     999902    2    1    2    0    0  0.39756158441E-02  0.95075530800E-02 -0.10473320158E-02  0.10335716222E+01  0.10335197154E+01 0.  0.
     999903    2    3    3    0    0  0.29466543130E-01 -0.33412134348E-01 -0.12839184507E+00  0.14300522265E+00  0.44512694151E-01 0.  0.
         14    1    1    2    0    0 -0.39756158441E-02 -0.95075530800E-02  0.10473320158E-02  0.10358377830E-01  0.00000000000E+00 0. -1.
     999901    1    3    3    0    0 -0.25490927286E-01  0.42919687428E-01  0.12734451305E+00  0.89056639952E+00  0.88000000000E+00 0. -1.
        -11    1    4    4    0    0  0.37951322418E-02 -0.22361834648E-01 -0.17522527498E-01  0.28666265339E-01  0.51100000000E-03 0. -1.
         11    1    4    4    0    0  0.25671410888E-01 -0.11050299699E-01 -0.11086931757E+00  0.11433895731E+00  0.51100000000E-03 0.  1.
</event>
<event>
 8    1  0.2922807E+004  0.1043930E+01  0.7957747E-01            NaN
         13   -1    0    0    0    0  0.00000000000E+00  0.00000000000E+00  0.74505805969E-08  0.10566000000E+00  0.10566000000E+00 0. -1.
     999900   -1    0    0    0    0 -0.00000000000E+00 -0.00000000000E+00 -0.74505805969E-08  0.93827000000E+00  0.93827000000E+00 0. -1.
     999902    2    1    2    0    0 -0.13956694807E-01 -0.35747567978E-02  0.48395384607E-02  0.10287316663E+01  0.10286193911E+01 0.  0.
     999903    2    3    3    0    0 -0.34963461072E-01  0.79694169202E-01  0.98616245508E-01  0.13959215580E+00  0.46767530062E-01 0.  0.
         14    1    1    2    0    0  0.13956694807E-01  0.35747567978E-02 -0.48395384607E-02  0.15198333745E-01  0.00000000000E+00 0.  1.
     999901    1    3    3    0    0  0.21006766265E-01 -0.83268926000E-01 -0.93776707047E-01  0.88913951045E+00  0.88000000000E+00 0. -1.
        -11    1    4    4    0    0  0.14031654120E-02  0.52352763527E-01  0.43217832353E-01  0.67903040259E-01  0.51100000000E-03 0. -1.
         11    1    4    4    0    0 -0.36366626484E-01  0.27341405675E-01  0.55398413155E-01  0.71689115542E-01  0.51100000000E-03 0.  1.
</event>
<event>
 8    1  0.2922807E+004  0.1043930E+01  0.7957747E-01            NaN
         13   -1    0    0    0    0  0.00000000000E+00  0.00000000000E+00  0.74505805969E-08  0.10566000000E+00  0.10566000000E+00 0. -1.
     999900   -1    0    0    0    0 -0.00000000000E+00 -0.00000000000E+00 -0.74505805969E-08  0.93827000000E+00  0.93827000000E+00 0. -1.
     999902    2    1    2    0    0 -0.13083165669E-01  0.88056199572E-02  0.68822132679E-03  0.10281445062E+01  0.10280233187E+01 0.  0.
     999903    2    3    3    0    0 -0.11368357227E+00  0.68549370089E-01  0.25138548688E-02  0.14039843300E+00  0.45633647447E-01 0.  0.
         14    1    1    2    0    0  0.13083165669E-01 -0.88056199572E-02 -0.68822132679E-03  0.15785493826E-01  0.00000000000E+00 0.  1.
     999901    1    3    3    0    0  0.10060040660E+00 -0.59743750132E-01 -0.18256335420E-02  0.88774607317E+00  0.88000000000E+00 0.  1.
        -11    1    4    4    0    0 -0.53773533023E-01  0.35434303606E-01 -0.21436487563E-01  0.67874640668E-01  0.51100000000E-03 0.  1.
         11    1    4    4    0    0 -0.59910039251E-01  0.33115066483E-01  0.23950342432E-01  0.72523792336E-01  0.51100000000E-03 0. -1.
</event>
<event>
 8    1  0.2922807E+004  0.1043930E+01  0.7957747E-01            NaN
         13   -1    0    0    0    0  0.00000000000E+00  0.00000000000E+00  0.74505805969E-08  0.10566000000E+00  0.10566000000E+00 0. -1.
     999900   -1    0    0    0    0 -0.00000000000E+00 -0.00000000000E+00 -0.74505805969E-08  0.93827000000E+00  0.93827000000E+00 0. -1.
     999902    2    1    2    0    0 -0.13532860031E-03 -0.15459544067E-01  0.11216154903E-01  0.10248297920E+01  0.10246517870E+01 0.  0.
     999903    2    3    3    0    0 -0.34081347629E-01 -0.26133127430E-01 -0.11978260314E+00  0.13442149673E+00  0.43321913204E-01 0.  0.
         14    1    1    2    0    0  0.13532860031E-03  0.15459544067E-01 -0.11216154903E-01  0.19100208046E-01  0.00000000000E+00 0. -1.
     999901    1    3    3    0    0  0.33946019029E-01  0.10673583363E-01  0.13099875804E+00  0.89040829522E+00  0.88000000000E+00 0.  1.
        -11    1    4    4    0    0 -0.44280296505E-01 -0.17459095444E-01 -0.94024962597E-01  0.10538747262E+00  0.51100000000E-03 0.  1.
         11    1    4    4    0    0  0.10198948876E-01 -0.86740319863E-02 -0.25757640543E-01  0.29034024116E-01  0.51100000000E-03 0. -1.
</event>
<event>
 8    1  0.2922807E+004  0.1043930E+01  0.7957747E-01            NaN
         13   -1    0    0    0    0  0.00000000000E+00  0.00000000000E+00  0.74505805969E-08  0.10566000000E+00  0.10566000000E+00 0.  1.
     999900   -1    0    0    0    0 -0.00000000000E+00 -0.00000000000E+00 -0.74505805969E-08  0.93827000000E+00  0.93827000000E+00 0. -1.
     999902    2    1    2    0    0 -0.64933112962E-02  0.12671063771E-01  0.29014960552E-02  0.10293994244E+01  0.10292968655E+01 0.  0.
     999903    2    3    3    0    0 -0.21484096434E-01 -0.77904606995E-01 -0.10287506929E+00  0.13832290827E+00  0.44936097734E-01 0.  0.
         14    1    1    2    0    0  0.64933112962E-02 -0.12671063771E-01 -0.29014960552E-02  0.14530575626E-01  0.00000000000E+00 0. -1.
     999901    1    3    3    0    0  0.14990785138E-01  0.90575670766E-01  0.10577656535E+00  0.89107651610E+00  0.88000000000E+00 0.  1.
        -11    1    4    4    0    0  0.11968747747E-01 -0.35229446049E-01 -0.31964648133E-01  0.49054710710E-01  0.51100000000E-03 0.  1.
         11    1    4    4    0    0 -0.33452844181E-01 -0.42675160946E-01 -0.70910421160E-01  0.89268197561E-01  0.51100000000E-03 0. -1.
</event>
<event>
 8    1  0.2922807E+004  0.1043930E+01  0.7957747E-01            NaN
         13   -1    0    0    0    0  0.00000000000E+00  0.00000000000E+00  0.74505805969E-08  0.10566000000E+00  0.10566000000E+00 0.  1.
     999900   -1    0    0    0    0 -0.00000000000E+00 -0.00000000000E+00 -0.74505805969E-08  0.93827000000E+00  0.93827000000E+00 0.  1.
     999902    2    1    2    0    0  0.12876971769E-01  0.14892456793E-03  0.12030940065E-02  0.10309960905E+01  0.10309149589E+01 0.  0.
     999903    2    3    3    0    0  0.11733298652E+00  0.62435443922E-01 -0.24523306825E-01  0.14225961816E+00  0.44398108048E-01 0.  0.
         14    1    1    2    0    0 -0.12876971769E-01 -0.14892456793E-03 -0.12030940065E-02  0.12933909527E-01  0.00000000000E+00 0.  1.
     999901    1    3    3    0    0 -0.10445601476E+00 -0.62286519354E-01  0.25726400832E-01  0.88873647231E+00  0.88000000000E+00 0. -1.
        -11    1    4    4    0    0  0.16520703274E-01  0.10518269234E-01  0.12182447860E-01  0.23070344193E-01  0.51100000000E-03 0.  1.
         11    1    4    4    0    0  0.10081228325E+00  0.51917174688E-01 -0.36705754685E-01  0.11918927397E+00  0.51100000000E-03 0. -1.
</event>
<event>
 8    1  0.2922807E+004  0.1043930E+01  0.7957747E-01            NaN
         13   -1    0    0    0    0  0.00000000000E+00  0.00000000000E+00  0.74505805969E-08  0.10566000000E+00  0.10566000000E+00 0. -1.
     999900   -1    0    0    0    0 -0.00000000000E+00 -0.00000000000E+00 -0.74505805969E-08  0.93827000000E+00  0.93827000000E+00 0.  1.
     999902    2    1    2    0    0 -0.13886919146E-01  0.14096331982E-02  0.91010745009E-03  0.10299420808E+01  0.10298470895E+01 0.  0.
     999903    2    3    3    0    0 -0.62636477715E-01 -0.11607182134E+00 -0.15639425727E-01  0.14064331281E+00  0.46259634164E-01 0.  0.
         14    1    1    2    0    0  0.13886919146E-01 -0.14096331982E-02 -0.91010745009E-03  0.13987919241E-01  0.00000000000E+00 0. -1.
     999901    1    3    3    0    0  0.48749558570E-01  0.11748145454E+00  0.16549533177E-01  0.88929876795E+00  0.88000000000E+00 0. -1.
        -11    1    4    4    0    0 -0.28075073374E-01 -0.60089890669E-01  0.15099060326E-01  0.68023874112E-01  0.51100000000E-03 0. -1.
         11    1    4    4    0    0 -0.34561404341E-01 -0.55981930669E-01 -0.30738486053E-01  0.72619438701E-01  0.51100000000E-03 0.  1.
</event>
<event>
 8    1  0.2922807E+004  0.1043930E+01  0.7957747E-01            NaN
         13   -1    0    0    0    0  0.00000000000E+00  0.00000000000E+00  0.74505805969E-08  0.10566000000E+00  0.10566000000E+00 0. -1.
     999900   -1    0    0    0    0 -0.00000000000E+00 -0.00000000000E+00 -0.74505805969E-08  0.93827000000E+00  0.93827000000E+00 0.  1.
     999902    2    1    2    0    0  0.86320526308E-02 -0.53661276265E-02  0.89856670267E-02  0.10303635019E+01  0.10302741850E+01 0.  0.
     999903    2    3    3    0    0 -0.90856924232E-01  0.91462062039E-01  0.27678895514E-01  0.13928371221E+00  0.44872505579E-01 0.  0.
         14    1    1    2    0    0 -0.86320526308E-02  0.53661276265E-02 -0.89856670267E-02  0.13566498083E-01  0.00000000000E+00 0.  1.
     999901    1    3    3    0    0  0.99488976863E-01 -0.96828189665E-01 -0.18693228488E-01  0.89107978971E+00  0.88000000000E+00 0.  1.
        -11    1    4    4    0    0 -0.50778157305E-01  0.28683460942E-01 -0.37480882436E-02  0.58442035193E-01  0.51100000000E-03 0.  1.
         11    1    4    4    0    0 -0.40078766927E-01  0.62778601096E-01  0.31426983758E-01  0.80841677018E-01  0.51100000000E-03 0. -1.
</event>
<event>
 8    1  0.2922807E+004  0.1043930E+01  0.7957747E-01            NaN
         13   -1    0    0    0    0  0.00000000000E+00  0.00000000000E+00  0.74505805969E-08  0.10566000000E+00  0.10566000000E+00 0. -1.
     999900   -1    0    0    0    0 -0.00000000000E+00 -0.00000000000E+00 -0.74505805969E-08  0.93827000000E+00  0.93827000000E+00 0. -1.
     999902    2    1    2    0    0  0.10052131234E-01  0.78405404688E-02  0.55085968314E-02  0.10300424496E+01  0.10299488259E+01 0.  0.
     999903    2    3    3    0    0  0.38731938145E-01 -0.10111056362E+00 -0.78845655859E-01  0.13885867823E+00  0.36627666630E-01 0.  0.
         14    1    1    2    0    0 -0.10052131234E-01 -0.78405404688E-02 -0.55085968314E-02  0.13887550405E-01  0.00000000000E+00 0.  1.
     999901    1    3    3    0    0 -0.28679806911E-01  0.10895110409E+00  0.84354252690E-01  0.89118377137E+00  0.88000000000E+00 0.  1.
        -11    1    4    4    0    0  0.13000049306E-01 -0.14416106998E-01 -0.85123214716E-03  0.19437364537E-01  0.51100000000E-03 0.  1.
         11    1    4    4    0    0  0.25731888839E-01 -0.86694456621E-01 -0.77994423712E-01  0.11942131369E+00  0.51100000000E-03 0. -1.
</event>
<event>
 8    1  0.2922807E+004  0.1043930E+01  0.7957747E-01            NaN
         13   -1    0    0    0    0  0.00000000000E+00  0.00000000000E+00  0.74505805969E-08  0.10566000000E+00  0.10566000000E+00 0. -1.
     999900   -1    0    0    0    0 -0.00000000000E+00 -0.00000000000E+00 -0.74505805969E-08  0.93827000000E+00  0.93827000000E+00 0.  1.
     999902    2    1    2    0    0 -0.21637760192E-01 -0.66736728268E-02  0.75080737191E-02  0.10200741465E+01  0.10197951572E+01 0.  0.
     999903    2    3    3    0    0 -0.74171417399E-01 -0.39287917560E-02  0.10141509697E+00  0.13351571722E+00  0.44995447417E-01 0.  0.
         14    1    1    2    0    0  0.21637760192E-01  0.66736728268E-02 -0.75080737191E-02  0.23855853498E-01  0.00000000000E+00 0. -1.
     999901    1    3    3    0    0  0.52533657207E-01 -0.27448810707E-02 -0.93907023251E-01  0.88655842928E+00  0.88000000000E+00 0.  1.
        -11    1    4    4    0    0 -0.11767612483E-01 -0.49480634453E-02 -0.17949249517E-02  0.12901275596E-01  0.51100000000E-03 0.  1.
         11    1    4    4    0    0 -0.62403804916E-01  0.10192716893E-02  0.10321002192E+00  0.12061444163E+00  0.51100000000E-03 0. -1.
</event>
<event>
 8    1  0.2922807E+004  0.1043930E+01  0.7957747E-01            NaN
         13   -1    0    0    0    0  0.00000000000E+00  0.00000000000E+00  0.74505805969E-08  0.10566000000E+00  0.10566000000E+00 0.  1.
     999900   -1    0    0    0    0 -0.00000000000E+00 -0.00000000000E+00 -0.74505805969E-08  0.93827000000E+00  0.93827000000E+00 0. -1.
     999902    2    1    2    0    0 -0.32793132853E-02 -0.10668385816E-01 -0.69970195555E-02  0.10307570491E+01  0.10306728713E+01 0.  0.
     999903    2    3    3    0    0 -0.46177226048E-01  0.12370609123E+00  0.52003518890E-02  0.13944032268E+00  0.44508726302E-01 0.  0.
         14    1    1    2    0    0  0.32793132853E-02  0.10668385816E-01  0.69970195555E-02  0.13172950854E-01  0.00000000000E+00 0.  1.
     999901    1    3    3    0    0  0.42897912763E-01 -0.13437447705E+00 -0.12197371445E-01  0.89131672646E+00  0.88000000000E+00 0.  1.
        -11    1    4    4    0    0 -0.16718129289E-01  0.86077428729E-01  0.18947332661E-01  0.89711103658E-01  0.51100000000E-03 0.  1.
         11    1    4    4    0    0 -0.29459096759E-01  0.37628662502E-01 -0.13746980772E-01  0.49729219026E-01  0.51100000000E-03 0. -1.
</event>
<event>
 8    1  0.2922807E+004  0.1043930E+01  0.7957747E-01            NaN
         13   -1    0    0    0    0  0.00000000000E+00  0.00000000000E+00  0.74505805969E-08  0.10566000000E+00  0.10566000000E+00 0.  1.
     999900   -1    0    0    0    0 -0.00000000000E+00 -0.00000000000E+00 -0.74505805969E-08  0.93827000000E+00  0.93827000000E+00 0. -1.
     999902    2    1    2    0    0  0.88304997085E-02  0.92865737254E-02  0.59296638125E-02  0.10298098339E+01  0.10297130256E+01 0.  0.
     999903    2    3    3    0    0 -0.12065642934E+00  0.51243626367E-01  0.14881408957E-01  0.13930020861E+00  0.44712510563E-01 0.  0.
         14    1    1    2    0    0 -0.88304997085E-02 -0.92865737254E-02 -0.59296638125E-02  0.14120166061E-01  0.00000000000E+00 0. -1.
     999901    1    3    3    0    0  0.12948692905E+00 -0.41957052641E-01 -0.89517451440E-02  0.89050962533E+00  0.88000000000E+00 0. -1.
        -11    1    4    4    0    0 -0.10157433671E+00  0.59181378653E-01  0.95243577002E-02  0.11794386787E+00  0.51100000000E-03 0.  1.
         11    1    4    4    0    0 -0.19082092634E-01 -0.79377522863E-02  0.53570512563E-02  0.21356340740E-01  0.51100000000E-03 0. -1.
</event>
<event>
 8    1  0.2922807E+004  0.1043930E+01  0.7957747E-01            NaN
         13   -1    0    0    0    0  0.00000000000E+00  0.00000000000E+00  0.74505805969E-08  0.10566000000E+00  0.10566000000E+00 0. -1.
     999900   -1    0    0    0    0 -0.00000000000E+00 -0.00000000000E+00 -0.74505805969E-08  0.93827000000E+00  0.93827000000E+00 0.  1.
     999902    2    1    2    0    0  0.29221355751E-02 -0.36775793162E-02  0.14032742943E-01  0.10291319819E+01  0.10290255851E+01 0.  0.
     999903    2    3    3    0    0 -0.92312464699E-01 -0.93610998545E-01  0.92040807574E-02  0.13942362238E+00  0.45493089436E-01 0.  0.
         14    1    1    2    0    0 -0.29221355751E-02  0.36775793162E-02 -0.14032742943E-01  0.14798018126E-01  0.00000000000E+00 0.  1.
     999901    1    3    3    0    0  0.95234600274E-01  0.89933419229E-01  0.48286621854E-02  0.88970835950E+00  0.88000000000E+00 0. -1.
        -11    1    4    4    0    0 -0.37554615064E-01 -0.37360965537E-01 -0.18593578605E-01  0.56144217376E-01  0.51100000000E-03 0. -1.
         11    1    4    4    0    0 -0.54757849635E-01 -0.56250033008E-01  0.27797659362E-01  0.83279404999E-01  0.51100000000E-03 0.  1.
</event>
<event>
 8    1  0.2922807E+004  0.1043930E+01  0.7957747E-01            NaN
         13   -1    0    0    0    0  0.00000000000E+00  0.00000000000E+00  0.74505805969E-08  0.10566000000E+00  0.10566000000E+00 0. -1.
     999900   -1    0    0    0    0 -0.00000000000E+00 -0.00000000000E+00 -0.74505805969E-08  0.93827000000E+00  0.93827000000E+00 0.  1.
     999902    2    1    2    0    0 -0.11431325196E-01  0.52833871391E-02  0.21898344561E-02  0.10311477956E+01  0.10310685678E+01 0.  0.
     999903    2    3    3    0    0 -0.60367318016E-01  0.96331103517E-01 -0.71990944820E-01  0.14199808597E+00  0.45352681219E-01 0.  0.
         14    1    1    2    0    0  0.11431325196E-01 -0.52833871391E-02 -0.21898344561E-02  0.12782204440E-01  0.00000000000E+00 0.  1.
     999901    1    3    3    0    0  0.48935992820E-01 -0.91047716377E-01  0.74180779276E-01  0.88914970959E+00  0.88000000000E+00 0. -1.
        -11    1    4    4    0    0 -0.10960249986E-01  0.39198979679E-01 -0.49535021042E-02  0.41005918984E-01  0.51100000000E-03 0.  1.
         11    1    4    4    0    0 -0.49407068030E-01  0.57132123837E-01 -0.67037442716E-01  0.10099216699E+00  0.51100000000E-03 0. -1.
</event>
<event>
 8    1  0.2922807E+004  0.1043930E+01  0.7957747E-01            NaN
         13   -1    0    0    0    0  0.00000000000E+00  0.00000000000E+00  0.74505805969E-08  0.10566000000E+00  0.10566000000E+00 0.  1.
     999900   -1    0    0    0    0 -0.00000000000E+00 -0.00000000000E+00 -0.74505805969E-08  0.93827000000E+00  0.93827000000E+00 0. -1.
     999902    2    1    2    0    0  0.10379502464E-01 -0.78053833824E-02 -0.41902546518E-02  0.10302838901E+01  0.10301935148E+01 0.  0.
     999903    2    3    3    0    0 -0.13110015657E+00 -0.39649199510E-02 -0.93441548311E-02  0.13896026439E+00  0.44940741066E-01 0.  0.
         14    1    1    2    0    0 -0.10379502464E-01  0.78053833824E-02  0.41902546518E-02  0.13646109892E-01  0.00000000000E+00 0.  1.
     999901    1    3    3    0    0  0.14147965903E+00 -0.38404634314E-02  0.51539001793E-02  0.89132362572E+00  0.88000000000E+00 0. -1.
        -11    1    4    4    0    0  0.14898989793E-02 -0.43639318876E-03  0.52718591555E-02  0.55194073902E-02  0.51100000000E-03 0.  1.
         11    1    4    4    0    0 -0.13259005555E+00 -0.35285267623E-02 -0.14616013987E-01  0.13344085700E+00  0.51100000000E-03 0. -1.
</event>
<event>
 8    1  0.2922807E+004  0.1043930E+01  0.7957747E-01            NaN
         13   -1    0    0    0    0  0.00000000000E+00  0.00000000000E+00  0.74505805969E-08  0.10566000000E+00  0.10566000000E+00 0. -1.
     999900   -1    0    0    0    0 -0.00000000000E+00 -0.00000000000E+00 -0.74505805969E-08  0.93827000000E+00  0.93827000000E+00 0.  1.
     999902    2    1    2    0    0  0.10347629188E-01  0.68526173570E-02 -0.63147009768E-02  0.10300049419E+01  0.10299108083E+01 0.  0.
     999903    2    3    3    0    0 -0.93588838094E-01 -0.57510874440E-01  0.70655008990E-01  0.13822594207E+00  0.45253833759E-01 0.  0.
         14    1    1    2    0    0 -0.10347629188E-01 -0.68526173570E-02  0.63147009768E-02  0.13925058092E-01  0.00000000000E+00 0. -1.
     999901    1    3    3    0    0  0.10393646728E+00  0.64363491797E-01 -0.76969709966E-01  0.89177899984E+00  0.88000000000E+00 0. -1.
        -11    1    4    4    0    0 -0.58716785362E-01 -0.10521813258E-01  0.28545734365E-01  0.66132363552E-01  0.51100000000E-03 0. -1.
         11    1    4    4    0    0 -0.34872052732E-01 -0.46989061182E-01  0.42109274624E-01  0.72093578514E-01  0.51100000000E-03 0.  1.
</event>
<event>
 8    1  0.2922807E+004  0.1043930E+01  0.7957747E-01            NaN
         13   -1    0    0    0    0  0.00000000000E+00  0.00000000000E+00  0.74505805969E-08  0.10566000000E+00  0.10566000000E+00 0. -1.
     999900   -1    0    0    0    0 -0.00000000000E+00 -0.00000000000E+00 -0.74505805969E-08  0.93827000000E+00  0.93827000000E+00 0.  1.
     999902    2    1    2    0    0 -0.53822254322E-02  0.11487944531E-01 -0.44360779394E-02  0.10304905057E+01  0.10304028641E+01 0.  0.
     999903    2    3    3    0    0 -0.11148851705E+00 -0.57299780500E-01  0.43774379141E-01  0.14014532295E+00  0.44850429153E-01 0.  0.
         14    1    1    2    0    0  0.53822254322E-02 -0.11487944531E-01  0.44360779394E-02  0.13439494322E-01  0.00000000000E+00 0.  1.
     999901    1    3    3    0    0  0.10610629162E+00  0.68787725031E-01 -0.48210457080E-01  0.89034518273E+00  0.88000000000E+00 0. -1.
        -11    1    4    4    0    0 -0.40418942320E-01 -0.18608687702E-01 -0.63612662379E-02  0.44952207792E-01  0.51100000000E-03 0.  1.
         11    1    4    4    0    0 -0.71069574733E-01 -0.38691092798E-01  0.50135645379E-01  0.95193115157E-01  0.51100000000E-03 0. -1.
</event>
<event>
 8    1  0.2922807E+004  0.1043930E+01  0.7957747E-01            NaN
         13   -1    0    0    0    0  0.00000000000E+00  0.00000000000E+00  0.74505805969E-08  0.10566000000E+00  0.10566000000E+00 0.  1.
     999900   -1    0    0    0    0 -0.00000000000E+00 -0.00000000000E+00 -0.74505805969E-08  0.93827000000E+00  0.93827000000E+00 0. -1.
     999902    2    1    2    0    0  0.78507161917E-02  0.67068809327E-02 -0.95858208845E-02  0.10298408567E+01  0.10297444762E+01 0.  0.
     999903    2    3    3    0    0 -0.51900504454E-01  0.28382899387E-01  0.11751632482E+00  0.13844026574E+00  0.43085603598E-01 0.  0.
         14    1    1    2    0    0 -0.78507161917E-02 -0.67068809327E-02  0.95858208845E-02  0.14089143288E-01  0.00000000000E+00 0.  1.
     999901    1    3    3    0    0  0.59751220646E-01 -0.21676018454E-01 -0.12710214571E+00  0.89140059097E+00  0.88000000000E+00 0. -1.
        -11    1    4    4    0    0 -0.26807479876E-01  0.16016338269E-01  0.10150984435E+00  0.10620580817E+00  0.51100000000E-03 0.  1.
         11    1    4    4    0    0 -0.25093024579E-01  0.12366561118E-01  0.16006480476E-01  0.32234457566E-01  0.51100000000E-03 0. -1.
</event>
<event>
 7    1  0.2922807E+004  0.1043930E+01  0.7957747E-01            NaN
         13   -1    0    0    0    0  0.00000000000E+00  0.00000000000E+00  0.74505805969E-08  0.10566000000E+00  0.10566000000E+00 0. -1.
     999900   -1    0    0    0    0 -0.00000000000E+00 -0.00000000000E+00 -0.74505805969E-08  0.93827000000E+00  0.93827000000E+00 0. -1.
     999903    2    1    2    0    0  0.89228658322E-01 -0.42484314836E-01 -0.11440619271E-01  0.10915566139E+00  0.44915478072E-01 0.  0.
         14    1    1    2    0    0 -0.74107343376E-03 -0.45497690420E-01 -0.53170165120E-02  0.45813313436E-01  0.00000000000E+00 0.  1.
     999901    1    1    2    0    0 -0.88487584888E-01  0.87982005256E-01  0.16757635783E-01  0.88896102518E+00  0.88000000000E+00 0.  1.
        -11    1    3    3    0    0  0.32299865944E-02 -0.46212306070E-02 -0.14055823012E-01  0.15153081114E-01  0.51100000000E-03 0.  1.
         11    1    3    3    0    0  0.85998671727E-01 -0.37863084229E-01  0.26152037411E-02  0.94002580272E-01  0.51100000000E-03 0. -1.
</event>
<event>
 8    1  0.2922807E+004  0.1043930E+01  0.7957747E-01            NaN
         13   -1    0    0    0    0  0.00000000000E+00  0.00000000000E+00  0.74505805969E-08  0.10566000000E+00  0.10566000000E+00 0. -1.
     999900   -1    0    0    0    0 -0.00000000000E+00 -0.00000000000E+00 -0.74505805969E-08  0.93827000000E+00  0.93827000000E+00 0. -1.
     999902    2    1    2    0    0 -0.61551401618E-02 -0.67550946331E-02  0.11587181979E-01  0.10291726344E+01  0.10290668256E+01 0.  0.
     999903    2    3    3    0    0  0.96505981191E-01  0.38144990614E-02 -0.87499660480E-01  0.13761824765E+00  0.44211273368E-01 0.  0.
         14    1    1    2    0    0  0.61551401618E-02  0.67550946331E-02 -0.11587181979E-01  0.14757365623E-01  0.00000000000E+00 0.  1.
     999901    1    3    3    0    0 -0.10266112135E+00 -0.10569593694E-01  0.99086842459E-01  0.89155438673E+00  0.88000000000E+00 0.  1.
        -11    1    4    4    0    0  0.67081299406E-01 -0.53811795950E-02 -0.82361986326E-01  0.10636078101E+00  0.51100000000E-03 0. -1.
         11    1    4    4    0    0  0.29424681785E-01  0.91956786564E-02 -0.51376741544E-02  0.31257466641E-01  0.51100000000E-03 0.  1.
</event>
<event>
 8    1  0.2922807E+004  0.1043930E+01  0.7957747E-01            NaN
         13   -1    0    0    0    0  0.00000000000E+00  0.00000000000E+00  0.74505805969E-08  0.10566000000E+00  0.10566000000E+00 0. -1.
     999900   -1    0    0    0    0 -0.00000000000E+00 -0.00000000000E+00 -0.74505805969E-08  0.93827000000E+00  0.93827000000E+00 0. -1.
     999902    2    1    2    0    0 -0.62518867007E-02  0.69590090175E-02 -0.60704295327E-02  0.10327781388E+01  0.10327179285E+01 0.  0.
     999903    2    3    3    0    0 -0.54292140001E-01  0.93244093415E-01  0.82083749101E-01  0.14287694150E+00  0.45099679845E-01 0.  0.
         14    1    1    2    0    0  0.62518867007E-02 -0.69590090175E-02  0.60704295327E-02  0.11151861214E-01  0.00000000000E+00 0. -1.
     999901    1    3    3    0    0  0.48040253301E-01 -0.86285084398E-01 -0.88154178634E-01  0.88990119729E+00  0.88000000000E+00 0. -1.
        -11    1    4    4    0    0 -0.28622454133E-01  0.17648769695E-01  0.41194512855E-01  0.53178688990E-01  0.51100000000E-03 0.  1.
         11    1    4    4    0    0 -0.25669685868E-01  0.75595323720E-01  0.40889236246E-01  0.89698252506E-01  0.51100000000E-03 0. -1.
</event>
<event>
 8    1  0.2922807E+004  0.1043930E+01  0.7957747E-01            NaN
         13   -1    0    0    0    0  0.00000000000E+00  0.00000000000E+00  0.74505805969E-08  0.10566000000E+00  0.10566000000E+00 0. -1.
     999900   -1    0    0    0    0 -0.00000000000E+00 -0.00000000000E+00 -0.74505805969E-08  0.93827000000E+00  0.93827000000E+00 0. -1.
     999902    2    1    2    0    0 -0.26876023251E-02 -0.10280013693E-01  0.82830133541E-02  0.10304574279E+01  0.10303693515E+01 0.  0.
     999903    2    3    3    0    0 -0.20940931404E-01 -0.62753321325E-01  0.11727619904E+00  0.14199462817E+00  0.45080656862E-01 0.  0.
         14    1    1    2    0    0  0.26876023251E-02  0.10280013693E-01 -0.82830133541E-02  0.13472572064E-01  0.00000000000E+00 0.  1.
     999901    1    3    3    0    0  0.18253329079E-01  0.52473307632E-01 -0.10899318569E+00  0.88846279976E+00  0.88000000000E+00 0. -1.
        -11    1    4    4    0    0  0.18621240977E-02 -0.52843358254E-01  0.62709704770E-01  0.82028386617E-01  0.51100000000E-03 0.  1.
         11    1    4    4    0    0 -0.22803055502E-01 -0.99099630709E-02  0.54566494271E-01  0.59966241556E-01  0.51100000000E-03 0. -1.
</event>
<event>
 8    1  0.2922807E+004  0.1043930E+01  0.7957747E-01            NaN
         13   -1    0    0    0    0  0.00000000000E+00  0.00000000000E+00  0.74505805969E-08  0.10566000000E+00  0.10566000000E+00 0.  1.
     999900   -1    0    0    0    0 -0.00000000000E+00 -0.00000000000E+00 -0.74505805969E-08  0.93827000000E+00  0.93827000000E+00 0.  1.
     999902    2    1    2    0    0  0.11520826443E-01  0.73724378539E-02  0.35353300980E-02  0.10298026917E+01  0.10297057846E+01 0.  0.
     999903    2    3    3    0    0  0.12884550286E+00  0.13355829189E-01  0.35292120547E-01  0.14142812291E+00  0.44461650875E-01 0.  0.
         14    1    1    2    0    0 -0.11520826443E-01 -0.73724378539E-02 -0.35353300980E-02  0.14127308333E-01  0.00000000000E+00 0.  1.
     999901    1    3    3    0    0 -0.11732467641E+00 -0.59833913353E-02 -0.31756790449E-01  0.88837456875E+00  0.88000000000E+00 0.  1.
        -11    1    4    4    0    0  0.47246265273E-01 -0.32583986271E-02 -0.72546481199E-02  0.47913649247E-01  0.51100000000E-03 0. -1.
         11    1    4    4    0    0  0.81599237584E-01  0.16614227816E-01  0.42546768667E-01  0.93514473667E-01  0.51100000000E-03 0.  1.
</event>
<event>
 8    1  0.2922807E+004  0.1043930E+01  0.7957747E-01            NaN
         13   -1    0    0    0    0  0.00000000000E+00  0.00000000000E+00  0.74505805969E-08  0.10566000000E+00  0.10566000000E+00 0.  1.
     999900   -1    0    0    0    0 -0.00000000000E+00 -0.00000000000E+00 -0.74505805969E-08  0.93827000000E+00  0.93827000000E+00 0.  1.
     999902    2    1    2    0    0 -0.14072110095E-01  0.30961419156E-02 -0.11582460038E-02  0.10294748310E+01  0.10293733413E+01 0.  0.
     999903    2    3    3    0    0  0.33667590123E-01 -0.52134526265E-01 -0.11592221372E+00  0.13902535237E+00  0.45150564956E-01 0.  0.
         14    1    1    2    0    0  0.14072110095E-01 -0.30961419156E-02  0.11582460038E-02  0.14455169010E-01  0.00000000000E+00 0.  1.
     999901    1    3    3    0    0 -0.47739700218E-01  0.55230668181E-01  0.11476396771E+00  0.89044947862E+00  0.88000000000E+00 0. -1.
        -11    1    4    4    0    0  0.13377099413E-01 -0.49932385360E-01 -0.10188331142E+00  0.11424823921E+00  0.51100000000E-03 0.  1.
         11    1    4    4    0    0  0.20290490710E-01 -0.22021409050E-02 -0.14038902296E-01  0.24777113159E-01  0.51100000000E-03 0. -1.
</event>
<event>
 8    1  0.2922807E+004  0.1043930E+01  0.7957747E-01            NaN
         13   -1    0    0    0    0  0.00000000000E+00  0.00000000000E+00  0.74505805969E-08  0.10566000000E+00  0.10566000000E+00 0.  1.
     999900   -1    0    0    0    0 -0.00000000000E+00 -0.00000000000E+00 -0.74505805969E-08  0.93827000000E+00  0.93827000000E+00 0.  1.
     999902    2    1    2    0    0  0.78848644616E-02  0.11847755360E-01  0.44258351807E-03  0.10296914511E+01  0.10295930012E+01 0.  0.
     999903    2    3    3    0    0 -0.50160338508E-01 -0.51316486083E-02  0.12179134343E+00  0.13930778813E+00  0.45068116468E-01 0.  0.
         14    1    1    2    0    0 -0.78848644616E-02 -0.11847755360E-01 -0.44258351807E-03  0.14238548901E-01  0.00000000000E+00 0.  1.
     999901    1    3    3    0    0  0.58045202970E-01  0.16979403968E-01 -0.12134875992E+00  0.89038366297E+00  0.88000000000E+00 0.  1.
        -11    1    4    4    0    0 -0.64966911083E-02  0.17195607284E-01  0.38085605513E-01  0.42292675175E-01  0.51100000000E-03 0. -1.
         11    1    4    4    0    0 -0.43663647400E-01 -0.22327255892E-01  0.83705737921E-01  0.97015112956E-01  0.51100000000E-03 0.  1.
</event>
<event>
 8    1  0.2922807E+004  0.1043930E+01  0.7957747E-01            NaN
         13   -1    0    0    0    0  0.00000000000E+00  0.00000000000E+00  0.74505805969E-08  0.10566000000E+00  0.10566000000E+00 0.  1.
     999900   -1    0    0    0    0 -0.00000000000E+00 -0.00000000000E+00 -0.74505805969E-08  0.93827000000E+00  0.93827000000E+00 0.  1.
     999902    2    1    2    0    0  0.21340157963E-02 -0.11662619306E-01  0.23993867319E-01  0.10171666597E+01  0.10168145049E+01 0.  0.
     999903    2    3    3    0    0 -0.97892163997E-01  0.44653356075E-01  0.56931436643E-01  0.12910044082E+00  0.42999271635E-01 0.  0.
         14    1    1    2    0    0 -0.21340157963E-02  0.11662619306E-01 -0.23993867319E-01  0.26763340251E-01  0.00000000000E+00 0. -1.
     999901    1    3    3    0    0  0.10002617979E+00 -0.56315975381E-01 -0.32937569324E-01  0.88806621893E+00  0.88000000000E+00 0.  1.
        -11    1    4    4    0    0 -0.50225188835E-02  0.84176004497E-02  0.20915562747E-01  0.23104189648E-01  0.51100000000E-03 0.  1.
         11    1    4    4    0    0 -0.92869645114E-01  0.36235755625E-01  0.36015873896E-01  0.10599625117E+00  0.51100000000E-03 0. -1.
</event>
<event>
 8    1  0.2922807E+004  0.1043930E+01  0.7957747E-01            NaN
         13   -1    0    0    0    0  0.00000000000E+00  0.00000000000E+00  0.74505805969E-08  0.10566000000E+00  0.10566000000E+00 0. -1.
     999900   -1    0    0    0    0 -0.00000000000E+00 -0.00000000000E+00 -0.74505805969E-08  0.93827000000E+00  0.93827000000E+00 0.  1.
     999902    2    1    2    0    0  0.14849842658E-02 -0.55671611010E-03 -0.13058199447E-01  0.10307758492E+01  0.10306919130E+01 0.  0.
     999903    2    3    3    0    0 -0.67260318847E-01 -0.21283168988E-01 -0.11459171059E+00  0.14203260367E+00  0.45443113844E-01 0.  0.
         14    1    1    2    0    0 -0.14849842658E-02  0.55671611010E-03  0.13058199447E-01  0.13154150824E-01  0.00000000000E+00 0. -1.
     999901    1    3    3    0    0  0.68745303112E-01  0.20726452877E-01  0.10153351114E+00  0.88874324551E+00  0.88000000000E+00 0. -1.
        -11    1    4    4    0    0 -0.69627720798E-01 -0.93712958516E-02 -0.86598647184E-01  0.11151424799E+00  0.51100000000E-03 0. -1.
         11    1    4    4    0    0  0.23674019518E-02 -0.11911873136E-01 -0.27993063405E-01  0.30518355680E-01  0.51100000000E-03 0.  1.
</event>
<event>
 8    1  0.2922807E+004  0.1043930E+01  0.7957747E-01            NaN
         13   -1    0    0    0    0  0.00000000000E+00  0.00000000000E+00  0.74505805969E-08  0.10566000000E+00  0.10566000000E+00 0. -1.
     999900   -1    0    0    0    0 -0.00000000000E+00 -0.00000000000E+00 -0.74505805969E-08  0.93827000000E+00  0.93827000000E+00 0.  1.
     999902    2    1    2    0    0  0.15251284944E-01  0.16394351101E-01 -0.10999243520E-01  0.10189828599E+01  0.10186774313E+01 0.  0.
     999903    2    3    3    0    0  0.71597984900E-01  0.10225862451E+00  0.99207036391E-02  0.13276320981E+00  0.44097072333E-01 0.  0.
         14    1    1    2    0    0 -0.15251284944E-01 -0.16394351101E-01  0.10999243520E-01  0.24947140086E-01  0.00000000000E+00 0.  1.
     999901    1    3    3    0    0 -0.56346699957E-01 -0.85864273413E-01 -0.20919947159E-01  0.88621965011E+00  0.88000000000E+00 0. -1.
        -11    1    4    4    0    0  0.29848320804E-01  0.71088981882E-01  0.20087492805E-01  0.79676433706E-01  0.51100000000E-03 0. -1.
         11    1    4    4    0    0  0.41749664096E-01  0.31169642632E-01 -0.10166789166E-01  0.53086776102E-01  0.51100000000E-03 0.  1.
</event>
<event>
 8    1  0.2922807E+004  0.1043930E+01  0.7957747E-01            NaN
         13   -1    0    0    0    0  0.00000000000E+00  0.00000000000E+00  0.74505805969E-08  0.10566000000E+00  0.10566000000E+00 0. -1.
     999900   -1    0    0    0    0 -0.00000000000E+00 -0.00000000000E+00 -0.74505805969E-08  0.93827000000E+00  0.93827000000E+00 0.  1.
     999902    2    1    2    0    0 -0.87204114689E-02 -0.24462478703E-02  0.10151508444E-01  0.10303254850E+01  0.10302356634E+01 0.  0.
     999903    2    3    3    0    0  0.92095802201E-01  0.64911166722E-01 -0.67164885211E-01  0.13865359749E+00  0.44928854239E-01 0.  0.
         14    1    1    2    0    0  0.87204114689E-02  0.24462478703E-02 -0.10151508444E-01  0.13604515005E-01  0.00000000000E+00 0.  1.
     999901    1    3    3    0    0 -0.10081621367E+00 -0.67357414592E-01  0.77316393654E-01  0.89167188751E+00  0.88000000000E+00 0. -1.
        -11    1    4    4    0    0  0.58402553940E-01  0.43856834785E-01 -0.66708707381E-01  0.98917101785E-01  0.51100000000E-03 0.  1.
         11    1    4    4    0    0  0.33693248261E-01  0.21054331937E-01 -0.45617782960E-03  0.39736495705E-01  0.51100000000E-03 0. -1.
</event>
<event>
 8    1  0.2922807E+004  0.1043930E+01  0.7957747E-01            NaN
         13   -1    0    0    0    0  0.00000000000E+00  0.00000000000E+00  0.74505805969E-08  0.10566000000E+00  0.10566000000E+00 0.  1.
     999900   -1    0    0    0    0 -0.00000000000E+00 -0.00000000000E+00 -0.74505805969E-08  0.93827000000E+00  0.93827000000E+00 0. -1.
     999902    2    1    2    0    0  0.36127170140E-02 -0.22555713001E-02 -0.15934183104E-01  0.10274364401E+01  0.10273040451E+01 0.  0.
     999903    2    3    3    0    0 -0.42087692717E-01 -0.10996686520E+00  0.53617159942E-01  0.13697159545E+00  0.44970354666E-01 0.  0.
         14    1    1    2    0    0 -0.36127170140E-02  0.22555713001E-02  0.15934183104E-01  0.16493559874E-01  0.00000000000E+00 0.  1.
     999901    1    3    3    0    0  0.45700409731E-01  0.10771129390E+00 -0.69551343046E-01  0.89046484468E+00  0.88000000000E+00 0. -1.
        -11    1    4    4    0    0 -0.28478567796E-01 -0.56020165298E-01  0.51568240694E-01  0.81294725001E-01  0.51100000000E-03 0.  1.
         11    1    4    4    0    0 -0.13609124921E-01 -0.53946699907E-01  0.20489192483E-02  0.55676870450E-01  0.51100000000E-03 0. -1.
</event>
<event>
 8    1  0.2922807E+004  0.1043930E+01  0.7957747E-01            NaN
         13   -1    0    0    0    0  0.00000000000E+00  0.00000000000E+00  0.74505805969E-08  0.10566000000E+00  0.10566000000E+00 0. -1.
     999900   -1    0    0    0    0 -0.00000000000E+00 -0.00000000000E+00 -0.74505805969E-08  0.93827000000E+00  0.93827000000E+00 0. -1.
     999902    2    1    2    0    0 -0.70659272892E-02 -0.37450103639E-02  0.11278243831E-01  0.10301042554E+01  0.10300114687E+01 0.  0.
     999903    2    3    3    0    0  0.11820720117E+00  0.57518845718E-01  0.58361844787E-02  0.13910693056E+00  0.45114488375E-01 0.  0.
         14    1    1    2    0    0  0.70659272892E-02  0.37450103639E-02 -0.11278243831E-01  0.13825744645E-01  0.00000000000E+00 0.  1.
     999901    1    3    3    0    0 -0.12527312846E+00 -0.61263856082E-01  0.54420593518E-02  0.89099732479E+00  0.88000000000E+00 0.  1.
        -11    1    4    4    0    0  0.39970117800E-01  0.37738537822E-01 -0.12438981244E-01  0.56363081261E-01  0.51100000000E-03 0.  1.
         11    1    4    4    0    0  0.78237083367E-01  0.19780307896E-01  0.18275165723E-01  0.82743849303E-01  0.51100000000E-03 0. -1.
</event>
<event>
 8    1  0.2922807E+004  0.1043930E+01  0.7957747E-01            NaN
         13   -1    0    0    0    0  0.00000000000E+00  0.00000000000E+00  0.74505805969E-08  0.10566000000E+00  0.10566000000E+00 0. -1.
     999900   -1    0    0    0    0 -0.00000000000E+00 -0.00000000000E+00 -0.74505805969E-08  0.93827000000E+00  0.93827000000E+00 0. -1.
     999902    2    1    2    0    0  0.33288688124E-02 -0.14072311174E-01 -0.29272263855E-03  0.10294663561E+01  0.10293647465E+01 0.  0.
     999903    2    3    3    0    0 -0.46270841899E-01  0.12055232960E+00  0.13965715749E-01  0.13773364484E+00  0.45843873334E-01 0.  0.
         14    1    1    2    0    0 -0.33288688124E-02  0.14072311174E-01  0.29272263855E-03  0.14463643935E-01  0.00000000000E+00 0.  1.
     999901    1    3    3    0    0  0.49599710712E-01 -0.13462464077E+00 -0.14258438388E-01  0.89173271123E+00  0.88000000000E+00 0.  1.
        -11    1    4    4    0    0 -0.33108865209E-01  0.35228442633E-01  0.17259937819E-01  0.51336212368E-01  0.51100000000E-03 0.  1.
         11    1    4    4    0    0 -0.13161976690E-01  0.85323886967E-01 -0.32942220700E-02  0.86397432471E-01  0.51100000000E-03 0. -1.
</event>
<event>
 8    1  0.2922807E+004  0.1043930E+01  0.7957747E-01            NaN
         13   -1    0    0    0    0  0.00000000000E+00  0.00000000000E+00  0.74505805969E-08  0.10566000000E+00  0.10566000000E+00 0.  1.
     999900   -1    0    0    0    0 -0.00000000000E+00 -0.00000000000E+00 -0.74505805969E-08  0.93827000000E+00  0.93827000000E+00 0. -1.
     999902    2    1    2    0    0 -0.63867742533E-03 -0.13345603739E-01  0.37507229153E-02  0.10300526454E+01  0.10299591600E+01 0.  0.
     999903    2    3    3    0    0 -0.95476927832E-01  0.75472399857E-01  0.50671307560E-01  0.13927519129E+00  0.44922940812E-01 0.  0.
         14    1    1    2    0    0  0.63867742533E-03  0.13345603739E-01 -0.37507229153E-02  0.13877354590E-01  0.00000000000E+00 0.  1.
     999901    1    3    3    0    0  0.94838250406E-01 -0.88818003596E-01 -0.46920584644E-01  0.89077745412E+00  0.88000000000E+00 0. -1.
        -11    1    4    4    0    0 -0.85397883443E-01  0.47224003394E-01  0.49085695949E-01  0.10923631109E+00  0.51100000000E-03 0. -1.
         11    1    4    4    0    0 -0.10079044389E-01  0.28248396462E-01  0.15856116106E-02  0.30038880200E-01  0.51100000000E-03 0.  1.
</event>
<event>
 8    1  0.2922807E+004  0.1043930E+01  0.7957747E-01            NaN
         13   -1    0    0    0    0  0.00000000000E+00  0.00000000000E+00  0.74505805969E-08  0.10566000000E+00  0.10566000000E+00 0. -1.
     999900   -1    0    0    0    0 -0.00000000000E+00 -0.00000000000E+00 -0.74505805969E-08  0.93827000000E+00  0.93827000000E+00 0. -1.
     999902    2    1    2    0    0  0.40801455803E-02 -0.13083764332E-01 -0.21499160732E-02  0.10300571987E+01  0.10299637751E+01 0.  0.
     999903    2    3    3    0    0 -0.15236377430E-02  0.89289266081E-01 -0.96293681559E-01  0.13911685932E+00  0.45892623904E-01 0.  0.
         14    1    1    2    0    0 -0.40801455803E-02  0.13083764332E-01  0.21499160732E-02  0.13872801309E-01  0.00000000000E+00 0. -1.
     999901    1    3    3    0    0  0.56037833233E-02 -0.10237303041E+00  0.94143765486E-01  0.89094033937E+00  0.88000000000E+00 0.  1.
        -11    1    4    4    0    0  0.12211401443E-01  0.20627684503E-01 -0.49196069800E-01  0.54727818318E-01  0.51100000000E-03 0.  1.
         11    1    4    4    0    0 -0.13735039186E-01  0.68661581578E-01 -0.47097611759E-01  0.84389040998E-01  0.51100000000E-03 0. -1.
</event>
<event>
 8    1  0.2922807E+004  0.1043930E+01  0.7957747E-01            NaN
         13   -1    0    0    0    0  0.00000000000E+00  0.00000000000E+00  0.74505805969E-08  0.10566000000E+00  0.10566000000E+00 0. -1.
     999900   -1    0    0    0    0 -0.00000000000E+00 -0.00000000000E+00 -0.74505805969E-08  0.93827000000E+00  0.93827000000E+00 0. -1.
     999902    2    1    2    0    0 -0.20051456601E-02  0.11720194363E-01 -0.89290681765E-02  0.10290601707E+01  0.10289527312E+01 0.  0.
     999903    2    3    3    0    0  0.77608006860E-01  0.96821961357E-01  0.45819644915E-01  0.13969073880E+00  0.44906210234E-01 0.  0.
         14    1    1    2    0    0  0.20051456601E-02 -0.11720194363E-01  0.89290681765E-02  0.14869829304E-01  0.00000000000E+00 0. -1.
     999901    1    3    3    0    0 -0.79613152520E-01 -0.85101766994E-01 -0.54748713091E-01  0.88936943189E+00  0.88000000000E+00 0.  1.
        -11    1    4    4    0    0  0.22708444576E-01  0.50213078585E-01  0.15078823988E-02  0.55132218769E-01  0.51100000000E-03 0.  1.
         11    1    4    4    0    0  0.54899562283E-01  0.46608882772E-01  0.44311762516E-01  0.84558520035E-01  0.51100000000E-03 0. -1.
</event>
<event>
 8    1  0.2922807E+004  0.1043930E+01  0.7957747E-01            NaN
         13   -1    0    0    0    0  0.00000000000E+00  0.00000000000E+00  0.74505805969E-08  0.10566000000E+00  0.10566000000E+00 0. -1.
     999900   -1    0    0    0    0 -0.00000000000E+00 -0.00000000000E+00 -0.74505805969E-08  0.93827000000E+00  0.93827000000E+00 0.  1.
     999902    2    1    2    0    0  0.11601506894E-01 -0.86902788313E-02  0.61705575373E-02  0.10281758993E+01  0.10280551971E+01 0.  0.
     999903    2    3    3    0    0 -0.40184181692E-01 -0.57864041490E-01  0.11153893424E+00  0.13901769556E+00  0.43840279109E-01 0.  0.
         14    1    1    2    0    0 -0.11601506894E-01  0.86902788313E-02 -0.61705575373E-02  0.15754100695E-01  0.00000000000E+00 0.  1.
     999901    1    3    3    0    0  0.51785688586E-01  0.49173762659E-01 -0.10536837670E+00  0.88915820374E+00  0.88000000000E+00 0.  1.
        -11    1    4    4    0    0 -0.28973191219E-01 -0.26446298162E-01  0.25638774697E-01  0.46866409985E-01  0.51100000000E-03 0. -1.
         11    1    4    4    0    0 -0.11210990473E-01 -0.31417743327E-01  0.85900159542E-01  0.92151285577E-01  0.51100000000E-03 0.  1.
</event>
<event>
 8    1  0.2922807E+004  0.1043930E+01  0.7957747E-01            NaN
         13   -1    0    0    0    0  0.00000000000E+00  0.00000000000E+00  0.74505805969E-08  0.10566000000E+00  0.10566000000E+00 0.  1.
     999900   -1    0    0    0    0 -0.00000000000E+00 -0.00000000000E+00 -0.74505805969E-08  0.93827000000E+00  0.93827000000E+00 0.  1.
     999902    2    1    2    0    0  0.93301945230E-02  0.99578781572E-02  0.61132018693E-03  0.10302703668E+01  0.10301798110E+01 0.  0.
     999903    2    3    3    0    0 -0.89972727010E-01  0.60701734228E-01 -0.75294793855E-01  0.13999077738E+00  0.46349969005E-01 0.  0.
         14    1    1    2    0    0 -0.93301945230E-02 -0.99578781572E-02 -0.61132018693E-03  0.13659633216E-01  0.00000000000E+00 0.  1.
     999901    1    3    3    0    0  0.99302921533E-01 -0.50743856071E-01  0.75906114042E-01  0.89027958940E+00  0.88000000000E+00 0. -1.
        -11    1    4    4    0    0 -0.74249771297E-01  0.67729988906E-01 -0.67595335953E-01  0.12111882801E+00  0.51100000000E-03 0. -1.
         11    1    4    4    0    0 -0.15722955713E-01 -0.70282546779E-02 -0.76994579019E-02  0.18871949373E-01  0.51100000000E-03 0.  1.
</event>
<event>
 8    1  0.2922807E+004  0.1043930E+01  0.7957747E-01            NaN
         13   -1    0    0    0    0  0.00000000000E+00  0.00000000000E+00  0.74505805969E-08  0.10566000000E+00  0.10566000000E+00 0. -1.
     999900   -1    0    0    0    0 -0.00000000000E+00 -0.00000000000E+00 -0.74505805969E-08  0.93827000000E+00  0.93827000000E+00 0. -1.
     999902    2    1    2    0    0  0.46021453283E-02 -0.10994778870E-01  0.99222527441E-02  0.10284214216E+01  0.10283044804E+01 0.  0.
     999903    2    3    3    0    0 -0.10222488078E-01  0.33850397468E-01 -0.12440218818E+00  0.13697657474E+00  0.45125701460E-01 0.  0.
         14    1    1    2    0    0 -0.46021453283E-02  0.10994778870E-01 -0.99222527441E-02  0.15508578385E-01  0.00000000000E+00 0.  1.
     999901    1    3    3    0    0  0.14824633406E-01 -0.44845176337E-01  0.13432444092E+00  0.89144484688E+00  0.88000000000E+00 0.  1.
        -11    1    4    4    0    0  0.27829860056E-02  0.23488308709E-01 -0.19204821488E-01  0.30471822173E-01  0.51100000000E-03 0. -1.
         11    1    4    4    0    0 -0.13005474084E-01  0.10362088758E-01 -0.10519736669E+00  0.10650475256E+00  0.51100000000E-03 0.  1.
</event>
<event>
 8    1  0.2922807E+004  0.1043930E+01  0.7957747E-01            NaN
         13   -1    0    0    0    0  0.00000000000E+00  0.00000000000E+00  0.74505805969E-08  0.10566000000E+00  0.10566000000E+00 0.  1.
     999900   -1    0    0    0    0 -0.00000000000E+00 -0.00000000000E+00 -0.74505805969E-08  0.93827000000E+00  0.93827000000E+00 0. -1.
     999902    2    1    2    0    0 -0.31192182600E-02 -0.54497687564E-02  0.11977916091E-01  0.10304059482E+01  0.10303171930E+01 0.  0.
     999903    2    3    3    0    0 -0.52334065441E-01  0.84260746395E-01 -0.85915841852E-01  0.13908486942E+00  0.46090576386E-01 0.  0.
         14    1    1    2    0    0  0.31192182600E-02  0.54497687564E-02 -0.11977916091E-01  0.13524051757E-01  0.00000000000E+00 0. -1.
     999901    1    3    3    0    0  0.49214847181E-01 -0.89710515151E-01  0.97893757943E-01  0.89132107882E+00  0.88000000000E+00 0.  1.
        -11    1    4    4    0    0 -0.53224287403E-01  0.45819343899E-01 -0.47902658211E-01  0.85012721574E-01  0.51100000000E-03 0.  1.
         11    1    4    4    0    0  0.89022196154E-03  0.38441402496E-01 -0.38013183642E-01  0.54072147845E-01  0.51100000000E-03 0. -1.
</event>
<event>
 8    1  0.2922807E+004  0.1043930E+01  0.7957747E-01            NaN
         13   -1    0    0    0    0  0.00000000000E+00  0.00000000000E+00  0.74505805969E-08  0.10566000000E+00  0.10566000000E+00 0.  1.
     999900   -1    0    0    0    0 -0.00000000000E+00 -0.00000000000E+00 -0.74505805969E-08  0.93827000000E+00  0.93827000000E+00 0. -1.
     999902    2    1    2    0    0 -0.14591706209E-01 -0.12098266841E-02  0.64603009653E-03  0.10292739799E+01  0.10291696297E+01 0.  0.
     999903    2    3    3    0    0  0.43214969680E-01 -0.15359884063E-01 -0.12186769169E+00  0.13879576683E+00  0.48052793563E-01 0.  0.
         14    1    1    2    0    0  0.14591706209E-01  0.12098266841E-02 -0.64603009653E-03  0.14656020114E-01  0.00000000000E+00 0.  1.
     999901    1    3    3    0    0 -0.57806675889E-01  0.14150057379E-01  0.12251372179E+00  0.89047821306E+00  0.88000000000E+00 0.  1.
        -11    1    4    4    0    0  0.45646399325E-01 -0.58602436543E-04 -0.11054412173E+00  0.11959875073E+00  0.51100000000E-03 0.  1.
         11    1    4    4    0    0 -0.24314296444E-02 -0.15301281627E-01 -0.11323569955E-01  0.19197016098E-01  0.51100000000E-03 0. -1.
</event>
<event>
 8    1  0.2922807E+004  0.1043930E+01  0.7957747E-01            NaN
         13   -1    0    0    0    0  0.00000000000E+00  0.00000000000E+00  0.74505805969E-08  0.10566000000E+00  0.10566000000E+00 0.  1.
     999900   -1    0    0    0    0 -0.00000000000E+00 -0.00000000000E+00 -0.74505805969E-08  0.93827000000E+00  0.93827000000E+00 0. -1.
     999902    2    1    2    0    0  0.26013179100E-02 -0.63434976058E-02 -0.10100492738E-01  0.10317223479E+01  0.10316501230E+01 0.  0.
     999903    2    3    3    0    0 -0.74240933107E-01 -0.81181996876E-01  0.75974489433E-01  0.14104034230E+00  0.44922403597E-01 0.  0.
         14    1    1    2    0    0 -0.26013179100E-02  0.63434976058E-02  0.10100492738E-01  0.12207652121E-01  0.00000000000E+00 0.  1.
     999901    1    3    3    0    0  0.76842251017E-01  0.74838499270E-01 -0.86074982172E-01  0.89068200558E+00  0.88000000000E+00 0. -1.
        -11    1    4    4    0    0 -0.44430518323E-01 -0.17769219683E-01  0.22420006672E-01  0.52846323872E-01  0.51100000000E-03 0.  1.
         11    1    4    4    0    0 -0.29810414783E-01 -0.63412777193E-01  0.53554482761E-01  0.88194018424E-01  0.51100000000E-03 0. -1.
</event>
<event>
 8    1  0.2922807E+004  0.1043930E+01  0.7957747E-01            NaN
         13   -1    0    0    0    0  0.00000000000E+00  0.00000000000E+00  0.74505805969E-08  0.10566000000E+00  0.10566000000E+00 0.  1.
     999900   -1    0    0    0    0 -0.00000000000E+00 -0.00000000000E+00 -0.74505805969E-08  0.93827000000E+00  0.93827000000E+00 0.  1.
     999902    2    1    2    0    0  0.94900831920E-02  0.88731922665E-02 -0.70406018804E-02  0.10291528117E+01  0.10290467164E+01 0.  0.
     999903    2    3    3    0    0 -0.10010992758E+00  0.76308542089E-01 -0.40784530760E-01  0.13915374341E+00  0.43074298139E-01 0.  0.
         14    1    1    2    0    0 -0.94900831920E-02 -0.88731922665E-02  0.70406018804E-02  0.14777188326E-01  0.00000000000E+00 0.  1.
     999901    1    3    3    0    0  0.10960001078E+00 -0.67435349823E-01  0.33743928880E-01  0.88999906826E+00  0.88000000000E+00 0. -1.
        -11    1    4    4    0    0 -0.30614879662E-01  0.11095085601E-02 -0.87264464570E-02  0.31857712641E-01  0.51100000000E-03 0. -1.
         11    1    4    4    0    0 -0.69495047921E-01  0.75199033529E-01 -0.32058084303E-01  0.10729603077E+00  0.51100000000E-03 0.  1.
</event>
<event>
 8    1  0.2922807E+004  0.1043930E+01  0.7957747E-01            NaN
         13   -1    0    0    0    0  0.00000000000E+00  0.00000000000E+00  0.74505805969E-08  0.10566000000E+00  0.10566000000E+00 0. -1.
     999900   -1    0    0    0    0 -0.00000000000E+00 -0.00000000000E+00 -0.74505805969E-08  0.93827000000E+00  0.93827000000E+00 0.  1.
     999902    2    1    2    0    0  0.13647800253E-01 -0.25558300900E-02 -0.14608509310E-02  0.10299683094E+01  0.10298736765E+01 0.  0.
     999903    2    3    3    0    0 -0.55383489585E-01 -0.92135981880E-01 -0.75996835802E-01  0.13960572279E+00  0.46452865461E-01 0.  0.
         14    1    1    2    0    0 -0.13647800253E-01  0.25558300900E-02  0.14608509310E-02  0.13961690608E-01  0.00000000000E+00 0.  1.
     999901    1    3    3    0    0  0.69031289838E-01  0.89580151790E-01  0.74535984870E-01  0.89036258660E+00  0.88000000000E+00 0. -1.
        -11    1    4    4    0    0 -0.70349495629E-02 -0.54957369438E-01 -0.43847754114E-01  0.70658967108E-01  0.51100000000E-03 0. -1.
         11    1    4    4    0    0 -0.48348540022E-01 -0.37178612442E-01 -0.32149081688E-01  0.68946755687E-01  0.51100000000E-03 0.  1.
</event>
<event>
 8    1  0.2922807E+004  0.1043930E+01  0.7957747E-01            NaN
         13   -1    0    0    0    0  0.00000000000E+00  0.00000000000E+00  0.74505805969E-08  0.10566000000E+00  0.10566000000E+00 0. -1.
     999900   -1    0    0    0    0 -0.00000000000E+00 -0.00000000000E+00 -0.74505805969E-08  0.93827000000E+00  0.93827000000E+00 0. -1.
     999902    2    1    2    0    0  0.82010480023E-02  0.90080578989E-02  0.68380188289E-02  0.10299600037E+01  0.10298652574E+01 0.  0.
     999903    2    3    3    0    0  0.68158096787E-01 -0.10459820147E+00 -0.41883153645E-01  0.13930014577E+00  0.45431510449E-01 0.  0.
         14    1    1    2    0    0 -0.82010480023E-02 -0.90080578989E-02 -0.68380188289E-02  0.13969996312E-01  0.00000000000E+00 0. -1.
     999901    1    3    3    0    0 -0.59957048785E-01  0.11360625937E+00  0.48721172474E-01  0.89065985792E+00  0.88000000000E+00 0.  1.
        -11    1    4    4    0    0  0.52536850566E-01 -0.10090480234E+00 -0.25967439900E-01  0.11668962619E+00  0.51100000000E-03 0.  1.
         11    1    4    4    0    0  0.15621246221E-01 -0.36933991305E-02 -0.15915713745E-01  0.22610519579E-01  0.51100000000E-03 0. -1.
</event>
<event>
 8    1  0.2922807E+004  0.1043930E+01  0.7957747E-01            NaN
         13   -1    0    0    0    0  0.00000000000E+00  0.00000000000E+00  0.74505805969E-08  0.10566000000E+00  0.10566000000E+00 0.  1.
     999900   -1    0    0    0    0 -0.00000000000E+00 -0.00000000000E+00 -0.74505805969E-08  0.93827000000E+00  0.93827000000E+00 0.  1.
     999902    2    1    2    0    0  0.60592341421E-02 -0.11557701465E-01 -0.24283756063E-03  0.10308780365E+01  0.10307954076E+01 0.  0.
     999903    2    3    3    0    0  0.51433112499E-01  0.91686529673E-01  0.80398592996E-01  0.14002383942E+00  0.45726984002E-01 0.  0.
         14    1    1    2    0    0 -0.60592341421E-02  0.11557701465E-01  0.24283756063E-03  0.13051963516E-01  0.00000000000E+00 0.  1.
     999901    1    3    3    0    0 -0.45373878357E-01 -0.10324423114E+00 -0.80641430557E-01  0.89085419706E+00  0.88000000000E+00 0.  1.
        -11    1    4    4    0    0 -0.15036996293E-02  0.34551274681E-01  0.12768202006E-01  0.36869225624E-01  0.51100000000E-03 0.  1.
         11    1    4    4    0    0  0.52936812129E-01  0.57135254992E-01  0.67630390990E-01  0.10315461380E+00  0.51100000000E-03 0. -1.
</event>
<event>
 8    1  0.2922807E+004  0.1043930E+01  0.7957747E-01            NaN
         13   -1    0    0    0    0  0.00000000000E+00  0.00000000000E+00  0.74505805969E-08  0.10566000000E+00  0.10566000000E+00 0. -1.
     999900   -1    0    0    0    0 -0.00000000000E+00 -0.00000000000E+00 -0.74505805969E-08  0.93827000000E+00  0.93827000000E+00 0. -1.
     999902    2    1    2    0    0 -0.17695234140E-02  0.12917167696E-01  0.23594208015E-02  0.10306804226E+01  0.10305952563E+01 0.  0.
     999903    2    3    3    0    0  0.94474013336E-01 -0.10102337655E-01 -0.92483672996E-01  0.14006943659E+00  0.45153304114E-01 0.  0.
         14    1    1    2    0    0  0.17695234140E-02 -0.12917167696E-01 -0.23594208015E-02  0.13249577387E-01  0.00000000000E+00 0.  1.
     999901    1    3    3    0    0 -0.96243536750E-01  0.23019505351E-01  0.94843093798E-01  0.89061098603E+00  0.88000000000E+00 0.  1.
        -11    1    4    4    0    0  0.84577413669E-01 -0.24098812798E-01 -0.79606222208E-01  0.11862336792E+00  0.51100000000E-03 0.  1.
         11    1    4    4    0    0  0.98965996671E-02  0.13996475144E-01 -0.12877450788E-01  0.21446068666E-01  0.51100000000E-03 0. -1.
</event>
<event>
 8    1  0.2922807E+004  0.1043930E+01  0.7957747E-01            NaN
         13   -1    0    0    0    0  0.00000000000E+00  0.00000000000E+00  0.74505805969E-08  0.10566000000E+00  0.10566000000E+00 0.  1.
     999900   -1    0    0    0    0 -0.00000000000E+00 -0.00000000000E+00 -0.74505805969E-08  0.93827000000E+00  0.93827000000E+00 0.  1.
     999902    2    1    2    0    0 -0.71436180649E-02  0.40153230562E-02 -0.11538422646E-01  0.10297776399E+01  0.10296803865E+01 0.  0.
     999903    2    3    3    0    0 -0.83377770700E-02 -0.78928380980E-01 -0.10695677854E+00  0.14074122521E+00  0.45487714270E-01 0.  0.
         14    1    1    2    0    0  0.71436180649E-02 -0.40153230562E-02  0.11538422646E-01  0.14152360067E-01  0.00000000000E+00 0.  1.
     999901    1    3    3    0    0  0.11941590051E-02  0.82943704036E-01  0.95418355890E-01  0.88903641472E+00  0.88000000000E+00 0. -1.
        -11    1    4    4    0    0 -0.34315882265E-02 -0.55965781201E-01 -0.37592295452E-01  0.67508416227E-01  0.51100000000E-03 0.  1.
         11    1    4    4    0    0 -0.49061888435E-02 -0.22962599779E-01 -0.69364483084E-01  0.73232808987E-01  0.51100000000E-03 0. -1.
</event>
<event>
 8    1  0.2922807E+004  0.1043930E+01  0.7957747E-01            NaN
         13   -1    0    0    0    0  0.00000000000E+00  0.00000000000E+00  0.74505805969E-08  0.10566000000E+00  0.10566000000E+00 0.  1.
     999900   -1    0    0    0    0 -0.00000000000E+00 -0.00000000000E+00 -0.74505805969E-08  0.93827000000E+00  0.93827000000E+00 0.  1.
     999902    2    1    2    0    0  0.12824814787E-01 -0.21230263577E-02 -0.34925467419E-02  0.10304696509E+01  0.10303817353E+01 0.  0.
     999903    2    3    3    0    0 -0.12543287022E+00 -0.32150876932E-01 -0.18391561118E-01  0.13904447742E+00  0.47202048286E-01 0.  0.
         14    1    1    2    0    0 -0.12824814787E-01  0.21230263577E-02  0.34925467419E-02  0.13460349103E-01  0.00000000000E+00 0. -1.
     999901    1    3    3    0    0  0.13825768501E+00  0.30027850574E-01  0.14899014376E-01  0.89142517347E+00  0.88000000000E+00 0. -1.
        -11    1    4    4    0    0 -0.94993982480E-01 -0.42035335855E-01 -0.40186288316E-02  0.10395786005E+00  0.51100000000E-03 0.  1.
         11    1    4    4    0    0 -0.30438887740E-01  0.98844589236E-02 -0.14372932286E-01  0.35086617371E-01  0.51100000000E-03 0. -1.
</event>
<event>
 8    1  0.2922807E+004  0.1043930E+01  0.7957747E-01            NaN
         13   -1    0    0    0    0  0.00000000000E+00  0.00000000000E+00  0.74505805969E-08  0.10566000000E+00  0.10566000000E+00 0. -1.
     999900   -1    0    0    0    0 -0.00000000000E+00 -0.00000000000E+00 -0.74505805969E-08  0.93827000000E+00  0.93827000000E+00 0. -1.
     999902    2    1    2    0    0 -0.61540175639E-02  0.50750344035E-02  0.60098698045E-02  0.10339426860E+01  0.10338944489E+01 0.  0.
     999903    2    3    3    0    0  0.42972371023E-01  0.12267076010E+00  0.42248109125E-01  0.14402394432E+00  0.45423053159E-01 0.  0.
         14    1    1    2    0    0  0.61540175639E-02 -0.50750344035E-02 -0.60098698045E-02  0.99873140253E-02  0.00000000000E+00 0.  1.
     999901    1    3    3    0    0 -0.49126388587E-01 -0.11759572570E+00 -0.36238239321E-01  0.88991874165E+00  0.88000000000E+00 0.  1.
        -11    1    4    4    0    0  0.29563135381E-03  0.63988100842E-01  0.10609066516E-01  0.64864303439E-01  0.51100000000E-03 0. -1.
         11    1    4    4    0    0  0.42676739669E-01  0.58682659257E-01  0.31639042609E-01  0.79159640882E-01  0.51100000000E-03 0.  1.
</event>
<event>
 8    1  0.2922807E+004  0.1043930E+01  0.7957747E-01            NaN
         13   -1    0    0    0    0  0.00000000000E+00  0.00000000000E+00  0.74505805969E-08  0.10566000000E+00  0.10566000000E+00 0. -1.
     999900   -1    0    0    0    0 -0.00000000000E+00 -0.00000000000E+00 -0.74505805969E-08  0.93827000000E+00  0.93827000000E+00 0.  1.
     999902    2    1    2    0    0 -0.14416329406E-01 -0.47114855270E-03 -0.24668310492E-02  0.10292965524E+01  0.10291925257E+01 0.  0.
     999903    2    3    3    0    0  0.48649825289E-01 -0.10892541541E+00  0.53658527978E-01  0.13862841899E+00  0.45902606717E-01 0.  0.
         14    1    1    2    0    0  0.14416329406E-01  0.47114855270E-03  0.24668310492E-02  0.14633447643E-01  0.00000000000E+00 0. -1.
     999901    1    3    3    0    0 -0.63066154695E-01  0.10845426686E+00 -0.56125359027E-01  0.89066813337E+00  0.88000000000E+00 0.  1.
        -11    1    4    4    0    0 -0.90011140923E-02 -0.15373349604E-01  0.95182966922E-02  0.20204430848E-01  0.51100000000E-03 0. -1.
         11    1    4    4    0    0  0.57650939381E-01 -0.93552065809E-01  0.44140231286E-01  0.11842398814E+00  0.51100000000E-03 0.  1.
</event>
<event>
 8    1  0.2922807E+004  0.1043930E+01  0.7957747E-01            NaN
         13   -1    0    0    0    0  0.00000000000E+00  0.00000000000E+00  0.74505805969E-08  0.10566000000E+00  0.10566000000E+00 0.  1.
     999900   -1    0    0    0    0 -0.00000000000E+00 -0.00000000000E+00 -0.74505805969E-08  0.93827000000E+00  0.93827000000E+00 0. -1.
     999902    2    1    2    0    0 -0.97544063430E-02 -0.89746776908E-02  0.38732717382E-02  0.10301207453E+01  0.10300281813E+01 0.  0.
     999903    2    3    3    0    0 -0.85374042666E-01 -0.79986325464E-01 -0.65458821836E-01  0.14131934858E+00  0.44718693026E-01 0.  0.
         14    1    1    2    0    0  0.97544063430E-02  0.89746776908E-02 -0.38732717382E-02  0.13809254749E-01  0.00000000000E+00 0.  1.
     999901    1    3    3    0    0  0.75619636323E-01  0.71011647773E-01  0.69332093574E-01  0.88880139667E+00  0.88000000000E+00 0.  1.
        -11    1    4    4    0    0 -0.62898269841E-01 -0.57986012121E-01 -0.68668846339E-01  0.10970069065E+00  0.51100000000E-03 0. -1.
         11    1    4    4    0    0 -0.22475772824E-01 -0.22000313343E-01  0.32100245028E-02  0.31618657934E-01  0.51100000000E-03 0.  1.
</event>
<event>
 8    1  0.2922807E+004  0.1043930E+01  0.7957747E-01            NaN
         13   -1    0    0    0    0  0.00000000000E+00  0.00000000000E+00  0.74505805969E-08  0.10566000000E+00  0.10566000000E+00 0. -1.
     999900   -1    0    0    0    0 -0.00000000000E+00 -0.00000000000E+00 -0.74505805969E-08  0.93827000000E+00  0.93827000000E+00 0.  1.
     999902    2    1    2    0    0 -0.55654601077E-02  0.11821762219E-01 -0.35609752077E-02  0.10303871439E+01  0.10302981400E+01 0.  0.
     999903    2    3    3    0    0 -0.46125175894E-01 -0.12279376585E+00  0.86406877707E-02  0.13914345579E+00  0.45611391343E-01 0.  0.
         14    1    1    2    0    0  0.55654601077E-02 -0.11821762219E-01  0.35609752077E-02  0.13542856146E-01  0.00000000000E+00 0. -1.
     999901    1    3    3    0    0  0.40559715787E-01  0.13461552807E+00 -0.12201662978E-01  0.89124368807E+00  0.88000000000E+00 0. -1.
        -11    1    4    4    0    0 -0.35620611024E-01 -0.93675633713E-01 -0.13438286092E-01  0.10111775776E+00  0.51100000000E-03 0.  1.
         11    1    4    4    0    0 -0.10504564870E-01 -0.29118132136E-01  0.22078973862E-01  0.38025698022E-01  0.51100000000E-03 0. -1.
</event>
<event>
 8    1  0.2922807E+004  0.1043930E+01  0.7957747E-01            NaN
         13   -1    0    0    0    0  0.00000000000E+00  0.00000000000E+00  0.74505805969E-08  0.10566000000E+00  0.10566000000E+00 0.  1.
     999900   -1    0    0    0    0 -0.00000000000E+00 -0.00000000000E+00 -0.74505805969E-08  0.93827000000E+00  0.93827000000E+00 0. -1.
     999902    2    1    2    0    0 -0.98408358660E-02  0.16021142656E-02  0.95300755106E-02  0.10301375687E+01  0.10300452317E+01 0.  0.
     999903    2    3    3    0    0 -0.26876418833E-01  0.58222878515E-01 -0.11556330989E+00  0.13932643439E+00  0.44099107189E-01 0.  0.
         14    1    1    2    0    0  0.98408358660E-02 -0.16021142656E-02 -0.95300755106E-02  0.13792431254E-01  0.00000000000E+00 0. -1.
     999901    1    3    3    0    0  0.17035582967E-01 -0.56620764249E-01  0.12509338540E+00  0.89081113436E+00  0.88000000000E+00 0.  1.
        -11    1    4    4    0    0 -0.35371317363E-01  0.24571413503E-01 -0.66321738776E-01  0.79080456554E-01  0.51100000000E-03 0.  1.
         11    1    4    4    0    0  0.84948985297E-02  0.33651465012E-01 -0.49241571110E-01  0.60245977831E-01  0.51100000000E-03 0. -1.
</event>
<event>
 8    1  0.2922807E+004  0.1043930E+01  0.7957747E-01            NaN
         13   -1    0    0    0    0  0.00000000000E+00  0.00000000000E+00  0.74505805969E-08  0.10566000000E+00  0.10566000000E+00 0.  1.
     999900   -1    0    0    0    0 -0.00000000000E+00 -0.00000000000E+00 -0.74505805969E-08  0.93827000000E+00  0.93827000000E+00 0.  1.
     999902    2    1    2    0    0 -0.22770161861E-03 -0.16384618716E-01 -0.89196276505E-02  0.10252734372E+01  0.10251036795E+01 0.  0.
     999903    2    3    3    0    0  0.47694908131E-01 -0.23404693939E-01 -0.11899413803E+00  0.13709425717E+00  0.42575186474E-01 0.  0.
         14    1    1    2    0    0  0.22770161861E-03  0.16384618716E-01  0.89196276505E-02  0.18656562811E-01  0.00000000000E+00 0.  1.
     999901    1    3    3    0    0 -0.47922609749E-01  0.70200752231E-02  0.11007451038E+00  0.88817918002E+00  0.88000000000E+00 0. -1.
        -11    1    4    4    0    0  0.32847853031E-02  0.38932924284E-02  0.18829274991E-02  0.54547298180E-02  0.51100000000E-03 0.  1.
         11    1    4    4    0    0  0.44410122828E-01 -0.27297986367E-01 -0.12087706553E+00  0.13163952735E+00  0.51100000000E-03 0. -1.
</event>
<event>
 8    1  0.2922807E+004  0.1043930E+01  0.7957747E-01            NaN
         13   -1    0    0    0    0  0.00000000000E+00  0.00000000000E+00  0.74505805969E-08  0.10566000000E+00  0.10566000000E+00 0.  1.
     999900   -1    0    0    0    0 -0.00000000000E+00 -0.00000000000E+00 -0.74505805969E-08  0.93827000000E+00  0.93827000000E+00 0. -1.
     999902    2    1    2    0    0  0.85512076512E-02  0.13055385066E-01 -0.22965229588E-02  0.10281553289E+01  0.10280343088E+01 0.  0.
     999903    2    3    3    0    0  0.11789014293E+00 -0.29204080580E-03 -0.59327452856E-01  0.13945645776E+00  0.45057583830E-01 0.  0.
         14    1    1    2    0    0 -0.85512076512E-02 -0.13055385066E-01  0.22965229588E-02  0.15774671129E-01  0.00000000000E+00 0. -1.
     999901    1    3    3    0    0 -0.10933893528E+00  0.13347425872E-01  0.57030929897E-01  0.88869887111E+00  0.88000000000E+00 0.  1.
        -11    1    4    4    0    0  0.62360871724E-01 -0.22277038343E-01 -0.26720284713E-01  0.71409939754E-01  0.51100000000E-03 0.  1.
         11    1    4    4    0    0  0.55529271209E-01  0.21984997538E-01 -0.32607168143E-01  0.68046518008E-01  0.51100000000E-03 0. -1.
</event>
<event>
 8    1  0.2922807E+004  0.1043930E+01  0.7957747E-01            NaN
         13   -1    0    0    0    0  0.00000000000E+00  0.00000000000E+00  0.74505805969E-08  0.10566000000E+00  0.10566000000E+00 0. -1.
     999900   -1    0    0    0    0 -0.00000000000E+00 -0.00000000000E+00 -0.74505805969E-08  0.93827000000E+00  0.93827000000E+00 0.  1.
     999902    2    1    2    0    0  0.69437916786E-02 -0.12041935723E-01 -0.60861346098E-02  0.10287554986E+01  0.10286435779E+01 0.  0.
     999903    2    3    3    0    0  0.28995223407E-01  0.12496500692E+00  0.20184364058E-01  0.13749386075E+00  0.45168321381E-01 0.  0.
         14    1    1    2    0    0 -0.69437916786E-02  0.12041935723E-01  0.60861346098E-02  0.15174501419E-01  0.00000000000E+00 0. -1.
     999901    1    3    3    0    0 -0.22051431728E-01 -0.13700694264E+00 -0.26270498668E-01  0.89126163783E+00  0.88000000000E+00 0. -1.
        -11    1    4    4    0    0 -0.11113022296E-01  0.22089821062E-01 -0.21954512638E-02  0.24830235326E-01  0.51100000000E-03 0.  1.
         11    1    4    4    0    0  0.40108245702E-01  0.10287518586E+00  0.22379815322E-01  0.11266362542E+00  0.51100000000E-03 0. -1.
</event>
<event>
 8    1  0.2922807E+004  0.1043930E+01  0.7957747E-01            NaN
         13   -1    0    0    0    0  0.00000000000E+00  0.00000000000E+00  0.74505805969E-08  0.10566000000E+00  0.10566000000E+00 0.  1.
     999900   -1    0    0    0    0 -0.00000000000E+00 -0.00000000000E+00 -0.74505805969E-08  0.93827000000E+00  0.93827000000E+00 0.  1.
     999902    2    1    2    0    0  0.84966330247E-02  0.38056081100E-02  0.11054470109E-01  0.10294774315E+01  0.10293759786E+01 0.  0.
     999903    2    3    3    0    0  0.12932075970E+00  0.64998325710E-02 -0.29730304853E-01  0.14028165652E+00  0.45043816633E-01 0.  0.
         14    1    1    2    0    0 -0.84966330247E-02 -0.38056081100E-02 -0.11054470109E-01  0.14452568465E-01  0.00000000000E+00 0. -1.
     999901    1    3    3    0    0 -0.12082412668E+00 -0.26942244610E-02  0.40784774962E-01  0.88919577501E+00  0.88000000000E+00 0. -1.
        -11    1    4    4    0    0  0.10239339007E+00 -0.41564381812E-02 -0.39332196257E-01  0.10976777803E+00  0.51100000000E-03 0.  1.
         11    1    4    4    0    0  0.26927369627E-01  0.10656270752E-01  0.96018914044E-02  0.30513878497E-01  0.51100000000E-03 0. -1.
</event>
<event>
 8    1  0.2922807E+004  0.1043930E+01  0.7957747E-01            NaN
         13   -1    0    0    0    0  0.00000000000E+00  0.00000000000E+00  0.74505805969E-08  0.10566000000E+00  0.10566000000E+00 0.  1.
     999900   -1    0    0    0    0 -0.00000000000E+00 -0.00000000000E+00 -0.74505805969E-08  0.93827000000E+00  0.93827000000E+00 0. -1.
     999902    2    1    2    0    0 -0.65273544444E-02 -0.79887499072E-02 -0.74506933942E-02  0.10312044622E+01  0.10311259397E+01 0.  0.
     999903    2    3    3    0    0 -0.45016526310E-01 -0.12808980479E+00 -0.23402553996E-02  0.14219839002E+00  0.42206866711E-01 0.  0.
         14    1    1    2    0    0  0.65273544444E-02  0.79887499072E-02  0.74506933942E-02  0.12725537834E-01  0.00000000000E+00 0. -1.
     999901    1    3    3    0    0  0.38489171866E-01  0.12010105488E+00 -0.51104379945E-02  0.88900607215E+00  0.88000000000E+00 0. -1.
        -11    1    4    4    0    0 -0.36345010877E-01 -0.45576096660E-01  0.69568223760E-02  0.58709444734E-01  0.51100000000E-03 0. -1.
         11    1    4    4    0    0 -0.86715154332E-02 -0.82513708128E-01 -0.92970777756E-02  0.83488945287E-01  0.51100000000E-03 0.  1.
</event>
<event>
 8    1  0.2922807E+004  0.1043930E+01  0.7957747E-01            NaN
         13   -1    0    0    0    0  0.00000000000E+00  0.00000000000E+00  0.74505805969E-08  0.10566000000E+00  0.10566000000E+00 0. -1.
     999900   -1    0    0    0    0 -0.00000000000E+00 -0.00000000000E+00 -0.74505805969E-08  0.93827000000E+00  0.93827000000E+00 0. -1.
     999902    2    1    2    0    0 -0.61868378780E-03 -0.13419716924E-01  0.36058445835E-02  0.10300205181E+01  0.10299265964E+01 0.  0.
     999903    2    3    3    0    0  0.10801806089E+00  0.31049120692E-01  0.68791292306E-01  0.13983595160E+00  0.46796389685E-01 0.  0.
         14    1    1    2    0    0  0.61868378780E-03  0.13419716924E-01 -0.36058445835E-02  0.13909481914E-01  0.00000000000E+00 0.  1.
     999901    1    3    3    0    0 -0.10863674468E+00 -0.44468837617E-01 -0.65185447722E-01  0.89018456649E+00  0.88000000000E+00 0. -1.
        -11    1    4    4    0    0  0.60837868239E-01  0.16736026218E-01  0.64676406401E-01  0.90358394471E-01  0.51100000000E-03 0. -1.
         11    1    4    4    0    0  0.47180192656E-01  0.14313094474E-01  0.41148859052E-02  0.49477557129E-01  0.51100000000E-03 0.  1.
</event>
<event>
 8    1  0.2922807E+004  0.1043930E+01  0.7957747E-01            NaN
         13   -1    0    0    0    0  0.00000000000E+00  0.00000000000E+00  0.74505805969E-08  0.10566000000E+00  0.10566000000E+00 0. -1.
     999900   -1    0    0    0    0 -0.00000000000E+00 -0.00000000000E+00 -0.74505805969E-08  0.93827000000E+00  0.93827000000E+00 0. -1.
     999902    2    1    2    0    0  0.32901364128E-02 -0.39309479344E-02  0.12849078055E-01  0.10300961229E+01  0.10300032263E+01 0.  0.
     999903    2    3    3    0    0 -0.30736105363E-01 -0.28013186261E-01  0.12778569888E+00  0.14164344201E+00  0.44768661466E-01 0.  0.
         14    1    1    2    0    0 -0.32901364128E-02  0.39309479344E-02 -0.12849078055E-01  0.13833877119E-01  0.00000000000E+00 0.  1.
     999901    1    3    3    0    0  0.34026241776E-01  0.24082238326E-01 -0.11493662083E+00  0.88845268087E+00  0.88000000000E+00 0. -1.
        -11    1    4    4    0    0 -0.40181603888E-01 -0.23506430674E-01  0.78589358700E-01  0.91343647813E-01  0.51100000000E-03 0. -1.
         11    1    4    4    0    0  0.94454985248E-02 -0.45067555870E-02  0.49196340183E-01  0.50299794201E-01  0.51100000000E-03 0.  1.
</event>
<event>
 8    1  0.2922807E+004  0.1043930E+01  0.7957747E-01            NaN
         13   -1    0    0    0    0  0.00000000000E+00  0.00000000000E+00  0.74505805969E-08  0.10566000000E+00  0.10566000000E+00 0. -1.
     999900   -1    0    0    0    0 -0.00000000000E+00 -0.00000000000E+00 -0.74505805969E-08  0.93827000000E+00  0.93827000000E+00 0.  1.
     999902    2    1    2    0    0  0.12850663439E-01  0.12554422335E-01  0.94036171416E-02  0.10236523994E+01  0.10234515395E+01 0.  0.
     999903    2    3    3    0    0 -0.68245329522E-01 -0.36116924637E-01  0.99527203235E-01  0.13400768331E+00  0.45722398832E-01 0.  0.
         14    1    1    2    0    0 -0.12850663439E-01 -0.12554422335E-01 -0.94036171416E-02  0.20277600606E-01  0.00000000000E+00 0.  1.
     999901    1    3    3    0    0  0.81095992961E-01  0.48671346972E-01 -0.90123586093E-01  0.88964471609E+00  0.88000000000E+00 0.  1.
        -11    1    4    4    0    0 -0.33693375022E-01  0.48516865922E-02  0.53220551906E-01  0.63178086781E-01  0.51100000000E-03 0.  1.
         11    1    4    4    0    0 -0.34551954500E-01 -0.40968611229E-01  0.46306651329E-01  0.70829596527E-01  0.51100000000E-03 0. -1.
</event>
<event>
 8    1  0.2922807E+004  0.1043930E+01  0.7957747E-01            NaN
         13   -1    0    0    0    0  0.00000000000E+00  0.00000000000E+00  0.74505805969E-08  0.10566000000E+00  0.10566000000E+00 0.  1.
     999900   -1    0    0    0    0 -0.00000000000E+00 -0.00000000000E+00 -0.74505805969E-08  0.93827000000E+00  0.93827000000E+00 0.  1.
     999902    2    1    2    0    0  0.18776985919E-02  0.36788913306E-02 -0.13286317236E-01  0.10300164735E+01  0.10299224968E+01 0.  0.
     999903    2    3    3    0    0  0.49037209807E-01  0.78371113644E-02 -0.12483600756E+00  0.14171210918E+00  0.45080204573E-01 0.  0.
         14    1    1    2    0    0 -0.18776985919E-02 -0.36788913306E-02  0.13286317236E-01  0.13913526481E-01  0.00000000000E+00 0.  1.
     999901    1    3    3    0    0 -0.47159511215E-01 -0.41582200338E-02  0.11154969033E+00  0.88830436434E+00  0.88000000000E+00 0. -1.
        -11    1    4    4    0    0  0.11203814720E-01 -0.18001435031E-01 -0.37190926496E-01  0.42813587353E-01  0.51100000000E-03 0.  1.
         11    1    4    4    0    0  0.37833395087E-01  0.25838546395E-01 -0.87645081066E-01  0.98898521827E-01  0.51100000000E-03 0. -1.
</event>
<event>
 8    1  0.2922807E+004  0.1043930E+01  0.7957747E-01            NaN
         13   -1    0    0    0    0  0.00000000000E+00  0.00000000000E+00  0.74505805969E-08  0.10566000000E+00  0.10566000000E+00 0.  1.
     999900   -1    0    0    0    0 -0.00000000000E+00 -0.00000000000E+00 -0.74505805969E-08  0.93827000000E+00  0.93827000000E+00 0.  1.
     999902    2    1    2    0    0 -0.80911349939E-02 -0.48594508788E-02  0.98312024713E-02  0.10303016006E+01  0.10302114613E+01 0.  0.
     999903    2    3    3    0    0 -0.50015182691E-01 -0.72103372594E-01 -0.99427812393E-01  0.14001125295E+00  0.44909311236E-01 0.  0.
         14    1    1    2    0    0  0.80911349939E-02  0.48594508788E-02 -0.98312024713E-02  0.13628399406E-01  0.00000000000E+00 0. -1.
     999901    1    3    3    0    0  0.41924047697E-01  0.67243921716E-01  0.10925901486E+00  0.89029034765E+00  0.88000000000E+00 0. -1.
        -11    1    4    4    0    0 -0.35212207561E-01 -0.67099812011E-01 -0.98598508286E-01  0.12435518200E+00  0.51100000000E-03 0.  1.
         11    1    4    4    0    0 -0.14802975130E-01 -0.50035605832E-02 -0.82930410701E-03  0.15656070947E-01  0.51100000000E-03 0. -1.
</event>
<event>
 8    1  0.2922807E+004  0.1043930E+01  0.7957747E-01            NaN
         13   -1    0    0    0    0  0.00000000000E+00  0.00000000000E+00  0.74505805969E-08  0.10566000000E+00  0.10566000000E+00 0.  1.
     999900   -1    0    0    0    0 -0.00000000000E+00 -0.00000000000E+00 -0.74505805969E-08  0.93827000000E+00  0.93827000000E+00 0. -1.
     999902    2    1    2    0    0  0.11579829629E-01  0.86046214971E-02  0.31074096209E-02  0.10291723593E+01  0.10290665465E+01 0.  0.
     999903    2    3    3    0    0  0.45259321028E-01  0.11486898490E+00  0.51883432763E-01  0.14079995791E+00  0.43467777949E-01 0.  0.
         14    1    1    2    0    0 -0.11579829629E-01 -0.86046214971E-02 -0.31074096209E-02  0.14757640730E-01  0.00000000000E+00 0. -1.
     999901    1    3    3    0    0 -0.33679491399E-01 -0.10626436340E+00 -0.48776023142E-01  0.88837240136E+00  0.88000000000E+00 0. -1.
        -11    1    4    4    0    0  0.18877169108E-01  0.60999311834E-01  0.49452495455E-01  0.80765549497E-01  0.51100000000E-03 0. -1.
         11    1    4    4    0    0  0.26382151920E-01  0.53869673064E-01  0.24309373082E-02  0.60034408411E-01  0.51100000000E-03 0.  1.
</event>
<event>
 8    1  0.2922807E+004  0.1043930E+01  0.7957747E-01            NaN
         13   -1    0    0    0    0  0.00000000000E+00  0.00000000000E+00  0.74505805969E-08  0.10566000000E+00  0.10566000000E+00 0. -1.
     999900   -1    0    0    0    0 -0.00000000000E+00 -0.00000000000E+00 -0.74505805969E-08  0.93827000000E+00  0.93827000000E+00 0.  1.
     999902    2    1    2    0    0 -0.17939961127E-02 -0.16851914087E-01  0.49030305734E-02  0.10262878590E+01  0.10261362114E+01 0.  0.
     999903    2    3    3    0    0 -0.19820438107E-01  0.12343106954E+00 -0.21634495251E-01  0.13459928758E+00  0.44953733308E-01 0.  0.
         14    1    1    2    0    0  0.17939961127E-02  0.16851914087E-01 -0.49030305734E-02  0.17642141005E-01  0.00000000000E+00 0. -1.
     999901    1    3    3    0    0  0.18026441995E-01 -0.14028298363E+00  0.26537525825E-01  0.89168857141E+00  0.88000000000E+00 0. -1.
        -11    1    4    4    0    0 -0.12464606429E-01  0.99014996050E-01 -0.35059102250E-01  0.10577682935E+00  0.51100000000E-03 0.  1.
         11    1    4    4    0    0 -0.73558316788E-02  0.24416073492E-01  0.13424606999E-01  0.28822458232E-01  0.51100000000E-03 0. -1.
</event>
<event>
 8    1  0.2922807E+004  0.1043930E+01  0.7957747E-01            NaN
         13   -1    0    0    0    0  0.00000000000E+00  0.00000000000E+00  0.74505805969E-08  0.10566000000E+00  0.10566000000E+00 0.  1.
     999900   -1    0    0    0    0 -0.00000000000E+00 -0.00000000000E+00 -0.74505805969E-08  0.93827000000E+00  0.93827000000E+00 0. -1.
     999902    2    1    2    0    0 -0.74643521937E-02 -0.11660613496E-01 -0.33156889566E-03  0.10300809423E+01  0.10299878404E+01 0.  0.
     999903    2    3    3    0    0 -0.66698029589E-01 -0.80240430685E-01  0.84197146363E-01  0.14139825228E+00  0.44912720084E-01 0.  0.
         14    1    1    2    0    0  0.74643521937E-02  0.11660613496E-01  0.33156889566E-03  0.13849057683E-01  0.00000000000E+00 0. -1.
     999901    1    3    3    0    0  0.59233677395E-01  0.68579817189E-01 -0.84528715259E-01  0.88868269003E+00  0.88000000000E+00 0. -1.
        -11    1    4    4    0    0 -0.44087535863E-01 -0.49023143351E-01  0.24503738458E-01  0.70339702316E-01  0.51100000000E-03 0.  1.
         11    1    4    4    0    0 -0.22610493726E-01 -0.31217287334E-01  0.59693407905E-01  0.71058549967E-01  0.51100000000E-03 0. -1.
</event>
<event>
 8    1  0.2922807E+004  0.1043930E+01  0.7957747E-01            NaN
         13   -1    0    0    0    0  0.00000000000E+00  0.00000000000E+00  0.74505805969E-08  0.10566000000E+00  0.10566000000E+00 0. -1.
     999900   -1    0    0    0    0 -0.00000000000E+00 -0.00000000000E+00 -0.74505805969E-08  0.93827000000E+00  0.93827000000E+00 0.  1.
     999902    2    1    2    0    0 -0.11609166466E-02 -0.12984493975E-01 -0.33764449460E-02  0.10304635531E+01  0.10303755573E+01 0.  0.
     999903    2    3    3    0    0  0.30351236439E-01  0.12558737704E-01 -0.12854049240E+00  0.14068183199E+00  0.46795301239E-01 0.  0.
         14    1    1    2    0    0  0.11609166466E-02  0.12984493975E-01  0.33764449460E-02  0.13466446885E-01  0.00000000000E+00 0.  1.
     999901    1    3    3    0    0 -0.31512153086E-01 -0.25543231679E-01  0.12516404746E+00  0.88978172113E+00  0.88000000000E+00 0. -1.
        -11    1    4    4    0    0 -0.20721692323E-02 -0.13284236479E-01 -0.51065123052E-01  0.52807885182E-01  0.51100000000E-03 0. -1.
         11    1    4    4    0    0  0.32423405671E-01  0.25842974183E-01 -0.77475369351E-01  0.87873946805E-01  0.51100000000E-03 0.  1.
</event>
<event>
 8    1  0.2922807E+004  0.1043930E+01  0.7957747E-01            NaN
         13   -1    0    0    0    0  0.00000000000E+00  0.00000000000E+00  0.74505805969E-08  0.10566000000E+00  0.10566000000E+00 0.  1.
     999900   -1    0    0    0    0 -0.00000000000E+00 -0.00000000000E+00 -0.74505805969E-08  0.93827000000E+00  0.93827000000E+00 0. -1.
     999902    2    1    2    0    0  0.83749009957E-02  0.35898373500E-02 -0.10915463471E-01  0.10297112363E+01  0.10296130617E+01 0.  0.
     999903    2    3    3    0    0 -0.67006349228E-01  0.84875712119E-01  0.74483495568E-01  0.13865416262E+00  0.44535922068E-01 0.  0.
         14    1    1    2    0    0 -0.83749009957E-02 -0.35898373500E-02  0.10915463471E-01  0.14218763718E-01  0.00000000000E+00 0.  1.
     999901    1    3    3    0    0  0.75381250224E-01 -0.81285874769E-01 -0.85398959039E-01  0.89105707366E+00  0.88000000000E+00 0. -1.
        -11    1    4    4    0    0 -0.36451946164E-01  0.67836469093E-01  0.31434652291E-01  0.83180102211E-01  0.51100000000E-03 0. -1.
         11    1    4    4    0    0 -0.30554403064E-01  0.17039243027E-01  0.43048843277E-01  0.55474060407E-01  0.51100000000E-03 0.  1.
</event>
<event>
 8    1  0.2922807E+004  0.1043930E+01  0.7957747E-01            NaN
         13   -1    0    0    0    0  0.00000000000E+00  0.00000000000E+00  0.74505805969E-08  0.10566000000E+00  0.10566000000E+00 0.  1.
     999900   -1    0    0    0    0 -0.00000000000E+00 -0.00000000000E+00 -0.74505805969E-08  0.93827000000E+00  0.93827000000E+00 0. -1.
     999902    2    1    2    0    0 -0.72692385879E-02  0.16944206928E-02  0.10708840084E-01  0.10308765657E+01  0.10307939181E+01 0.  0.
     999903    2    3    3    0    0 -0.10974637971E-02 -0.58314616139E-01  0.12125941065E+00  0.14191053487E+00  0.45088317277E-01 0.  0.
         14    1    1    2    0    0  0.72692385879E-02 -0.16944206928E-02 -0.10708840084E-01  0.13053434302E-01  0.00000000000E+00 0. -1.
     999901    1    3    3    0    0 -0.61717747908E-02  0.60009036832E-01 -0.11055057057E+00  0.88896603082E+00  0.88000000000E+00 0. -1.
        -11    1    4    4    0    0  0.21224439407E-01 -0.35718806682E-01  0.75972201018E-01  0.86592992946E-01  0.51100000000E-03 0. -1.
         11    1    4    4    0    0 -0.22321903204E-01 -0.22595809457E-01  0.45287209633E-01  0.55317541928E-01  0.51100000000E-03 0.  1.
</event>
<event>
 8    1  0.2922807E+004  0.1043930E+01  0.7957747E-01            NaN
         13   -1    0    0    0    0  0.00000000000E+00  0.00000000000E+00  0.74505805969E-08  0.10566000000E+00  0.10566000000E+00 0. -1.
     999900   -1    0    0    0    0 -0.00000000000E+00 -0.00000000000E+00 -0.74505805969E-08  0.93827000000E+00  0.93827000000E+00 0. -1.
     999902    2    1    2    0    0  0.92686722408E-02  0.99991386418E-02  0.18676228127E-02  0.10301684930E+01  0.10300765724E+01 0.  0.
     999903    2    3    3    0    0 -0.27321367226E-01  0.12796537536E+00 -0.27339142523E-01  0.14106338164E+00  0.45053906891E-01 0.  0.
         14    1    1    2    0    0 -0.92686722408E-02 -0.99991386418E-02 -0.18676228127E-02  0.13761506954E-01  0.00000000000E+00 0. -1.
     999901    1    3    3    0    0  0.36590039467E-01 -0.11796623672E+00  0.29206765335E-01  0.88910511141E+00  0.88000000000E+00 0.  1.
        -11    1    4    4    0    0  0.13372838506E-02  0.93574815907E-01 -0.19946655850E-01  0.95687850330E-01  0.51100000000E-03 0. -1.
         11    1    4    4    0    0 -0.28658651076E-01  0.34390559454E-01 -0.73924866726E-02  0.45375531306E-01  0.51100000000E-03 0.  1.
</event>
<event>
 8    1  0.2922807E+004  0.1043930E+01  0.7957747E-01            NaN
         13   -1    0    0    0    0  0.00000000000E+00  0.00000000000E+00  0.74505805969E-08  0.10566000000E+00  0.10566000000E+00 0.  1.
     999900   -1    0    0    0    0 -0.00000000000E+00 -0.00000000000E+00 -0.74505805969E-08  0.93827000000E+00  0.93827000000E+00 0.  1.
     999902    2    1    2    0    0  0.44557840801E-02 -0.12622502250E-01  0.27314170951E-02  0.10302682939E+01  0.10301777105E+01 0.  0.
     999903    2    3    3    0    0 -0.23383926591E-01 -0.39012580690E-01  0.12563782120E+00  0.14089915235E+00  0.44709278033E-01 0.  0.
         14    1    1    2    0    0 -0.44557840801E-02  0.12622502250E-01 -0.27314170951E-02  0.13661706122E-01  0.00000000000E+00 0.  1.
     999901    1    3    3    0    0  0.27839710672E-01  0.26390078440E-01 -0.12290640411E+00  0.88936914153E+00  0.88000000000E+00 0.  1.
        -11    1    4    4    0    0  0.12763689651E-01 -0.15171814320E-01  0.30671168626E-01  0.36525024697E-01  0.51100000000E-03 0.  1.
         11    1    4    4    0    0 -0.36147616243E-01 -0.23840766370E-01  0.94966652575E-01  0.10437412765E+00  0.51100000000E-03 0. -1.
</event>
<event>
 8    1  0.2922807E+004  0.1043930E+01  0.7957747E-01            NaN
         13   -1    0    0    0    0  0.00000000000E+00  0.00000000000E+00  0.74505805969E-08  0.10566000000E+00  0.10566000000E+00 0.  1.
     999900   -1    0    0    0    0 -0.00000000000E+00 -0.00000000000E+00 -0.74505805969E-08  0.93827000000E+00  0.93827000000E+00 0.  1.
     999902    2    1    2    0    0 -0.90210544962E-02  0.45308757933E-02  0.94225212216E-02  0.10301208666E+01  0.10300283043E+01 0.  0.
     999903    2    3    3    0    0  0.22397053336E-01 -0.88290607137E-01 -0.94842427777E-01  0.13856374290E+00  0.43680263657E-01 0.  0.
         14    1    1    2    0    0  0.90210544962E-02 -0.45308757933E-02 -0.94225212216E-02  0.13809133421E-01  0.00000000000E+00 0. -1.
     999901    1    3    3    0    0 -0.31418107832E-01  0.92821482930E-01  0.10426494900E+00  0.89155712368E+00  0.88000000000E+00 0. -1.
        -11    1    4    4    0    0  0.13320389812E-01 -0.24350546027E-01 -0.54629887010E-02  0.28292883259E-01  0.51100000000E-03 0.  1.
         11    1    4    4    0    0  0.90766635239E-02 -0.63940061110E-01 -0.89379439076E-01  0.11027085964E+00  0.51100000000E-03 0. -1.
</event>
<event>
 7    1  0.2922807E+004  0.1043930E+01  0.7957747E-01            NaN
         13   -1    0    0    0    0  0.00000000000E+00  0.00000000000E+00  0.74505805969E-08  0.10566000000E+00  0.10566000000E+00 0.  1.
     999900   -1    0    0    0    0 -0.00000000000E+00 -0.00000000000E+00 -0.74505805969E-08  0.93827000000E+00  0.93827000000E+00 0.  1.
     999902    2    1    2    0    0  0.13688872712E-02 -0.12375083574E-01  0.18850955805E-02  0.10313375367E+01  0.10312606579E+01 0.  0.
         14    1    1    2    0    0 -0.13688872712E-02  0.12375083574E-01 -0.18850955805E-02  0.12592463268E-01  0.00000000000E+00 0.  1.
     999901    1    3    3    0    0 -0.80419459802E-01 -0.37063076464E-01 -0.80064796432E-01  0.88806043307E+00  0.88000000000E+00 0.  1.
        -11    1    3    3    0    0  0.57397886486E-02  0.14593248480E-02  0.60669760900E-01  0.60960280604E-01  0.51100000000E-03 0. -1.
         11    1    3    3    0    0  0.76048558425E-01  0.23228668043E-01  0.21280131113E-01  0.82316823060E-01  0.51100000000E-03 0.  1.
</event>
<event>
 8    1  0.2922807E+004  0.1043930E+01  0.7957747E-01            NaN
         13   -1    0    0    0    0  0.00000000000E+00  0.00000000000E+00  0.74505805969E-08  0.10566000000E+00  0.10566000000E+00 0. -1.
     999900   -1    0    0    0    0 -0.00000000000E+00 -0.00000000000E+00 -0.74505805969E-08  0.93827000000E+00  0.93827000000E+00 0.  1.
     999902    2    1    2    0    0  0.41219381865E-02 -0.65394496686E-03 -0.11699564903E-01  0.10315083319E+01  0.10314335369E+01 0.  0.
     999903    2    3    3    0    0  0.10947037493E+00 -0.77847340987E-01  0.74871120620E-02  0.14166270371E+00  0.44365451524E-01 0.  0.
         14    1    1    2    0    0 -0.41219381865E-02  0.65394496686E-03  0.11699564903E-01  0.12421668059E-01  0.00000000000E+00 0. -1.
     999901    1    3    3    0    0 -0.10534843674E+00  0.77193396020E-01 -0.19186676965E-01  0.88984562823E+00  0.88000000000E+00 0. -1.
        -11    1    4    4    0    0  0.96361746743E-01 -0.50256591217E-01 -0.46715324721E-02  0.10878141171E+00  0.51100000000E-03 0.  1.
         11    1    4    4    0    0  0.13108628186E-01 -0.27590749770E-01  0.12158644534E-01  0.32881292001E-01  0.51100000000E-03 0. -1.
</event>
<event>
 8    1  0.2922807E+004  0.1043930E+01  0.7957747E-01            NaN
         13   -1    0    0    0    0  0.00000000000E+00  0.00000000000E+00  0.74505805969E-08  0.10566000000E+00  0.10566000000E+00 0. -1.
     999900   -1    0    0    0    0 -0.00000000000E+00 -0.00000000000E+00 -0.74505805969E-08  0.93827000000E+00  0.93827000000E+00 0. -1.
     999902    2    1    2    0    0 -0.10915826352E-01  0.79530596944E-02  0.37834969748E-02  0.10299042639E+01  0.10298087548E+01 0.  0.
     999903    2    3    3    0    0  0.11768634266E+00 -0.41958453679E-01 -0.38572900849E-01  0.13815107974E+00  0.44578751335E-01 0.  0.
         14    1    1    2    0    0  0.10915826352E-01 -0.79530596944E-02 -0.37834969748E-02  0.14025736088E-01  0.00000000000E+00 0.  1.
     999901    1    3    3    0    0 -0.12860216901E+00  0.49911513373E-01  0.42356397824E-01  0.89175318417E+00  0.88000000000E+00 0. -1.
        -11    1    4    4    0    0  0.75784936906E-01 -0.15460091471E-01 -0.35123937970E-02  0.77427185932E-01  0.51100000000E-03 0.  1.
         11    1    4    4    0    0  0.41901405752E-01 -0.26498362208E-01 -0.35060507052E-01  0.60723893810E-01  0.51100000000E-03 0. -1.
</event>
<event>
 8    1  0.2922807E+004  0.1043930E+01  0.7957747E-01            NaN
         13   -1    0    0    0    0  0.00000000000E+00  0.00000000000E+00  0.74505805969E-08  0.10566000000E+00  0.10566000000E+00 0.  1.
     999900   -1    0    0    0    0 -0.00000000000E+00 -0.00000000000E+00 -0.74505805969E-08  0.93827000000E+00  0.93827000000E+00 0.  1.
     999902    2    1    2    0    0 -0.61076901797E-02  0.12044596103E-01 -0.38692445645E-02  0.10298819671E+01  0.10297861520E+01 0.  0.
     999903    2    3    3    0    0  0.92492653267E-01 -0.95162656205E-01  0.10523185262E-01  0.13779308997E+00  0.35572126325E-01 0.  0.
         14    1    1    2    0    0  0.61076901797E-02 -0.12044596103E-01  0.38692445645E-02  0.14048032891E-01  0.00000000000E+00 0. -1.
     999901    1    3    3    0    0 -0.98600343447E-01  0.10720725231E+00 -0.14392429827E-01  0.89208887714E+00  0.88000000000E+00 0. -1.
        -11    1    4    4    0    0  0.12056586527E-01 -0.25362544527E-01 -0.90504537624E-02  0.29509181247E-01  0.51100000000E-03 0. -1.
         11    1    4    4    0    0  0.80436066740E-01 -0.69800111678E-01  0.19573639025E-01  0.10828390872E+00  0.51100000000E-03 0.  1.
</event>
<event>
 8    1  0.2922807E+004  0.1043930E+01  0.7957747E-01            NaN
         13   -1    0    0    0    0  0.00000000000E+00  0.00000000000E+00  0.74505805969E-08  0.10566000000E+00  0.10566000000E+00 0.  1.
     999900   -1    0    0    0    0 -0.00000000000E+00 -0.00000000000E+00 -0.74505805969E-08  0.93827000000E+00  0.93827000000E+00 0.  1.
     999902    2    1    2    0    0 -0.62388021194E-02  0.18595597343E-03 -0.11760727353E-01  0.10306156491E+01  0.10305296426E+01 0.  0.
     999903    2    3    3    0    0  0.54616020520E-02 -0.11895183964E+00 -0.61236774599E-01  0.14113344410E+00  0.44601986812E-01 0.  0.
         14    1    1    2    0    0  0.62388021194E-02 -0.18595597343E-03  0.11760727353E-01  0.13314350881E-01  0.00000000000E+00 0.  1.
     999901    1    3    3    0    0 -0.11700404171E-01  0.11913779562E+00  0.49476047246E-01  0.88948220502E+00  0.88000000000E+00 0.  1.
        -11    1    4    4    0    0  0.23922765275E-01 -0.85424084134E-01 -0.46059637065E-01  0.99956611268E-01  0.51100000000E-03 0. -1.
         11    1    4    4    0    0 -0.18461163223E-01 -0.33527755508E-01 -0.15177137534E-01  0.41176832828E-01  0.51100000000E-03 0.  1.
</event>
<event>
 8    1  0.2922807E+004  0.1043930E+01  0.7957747E-01            NaN
         13   -1    0    0    0    0  0.00000000000E+00  0.00000000000E+00  0.74505805969E-08  0.10566000000E+00  0.10566000000E+00 0.  1.
     999900   -1    0    0    0    0 -0.00000000000E+00 -0.00000000000E+00 -0.74505805969E-08  0.93827000000E+00  0.93827000000E+00 0. -1.
     999902    2    1    2    0    0  0.22733049864E-02 -0.11736061137E-01  0.67038093193E-02  0.10302243768E+01  0.10301332062E+01 0.  0.
     999903    2    3    3    0    0  0.76699949186E-01 -0.69137223153E-01  0.85814335663E-01  0.14169036279E+00  0.45268320832E-01 0.  0.
         14    1    1    2    0    0 -0.22733049864E-02  0.11736061137E-01 -0.67038093193E-02  0.13705623151E-01  0.00000000000E+00 0. -1.
     999901    1    3    3    0    0 -0.74426644200E-01  0.57401162016E-01 -0.79110526343E-01  0.88853401406E+00  0.88000000000E+00 0. -1.
        -11    1    4    4    0    0  0.63905598932E-01 -0.50965641066E-01  0.87067328175E-01  0.11942530260E+00  0.51100000000E-03 0.  1.
         11    1    4    4    0    0  0.12794350254E-01 -0.18171582086E-01 -0.12529925123E-02  0.22265060188E-01  0.51100000000E-03 0. -1.
</event>
<event>
 8    1  0.2922807E+004  0.1043930E+01  0.7957747E-01            NaN
         13   -1    0    0    0    0  0.00000000000E+00  0.00000000000E+00  0.74505805969E-08  0.10566000000E+00  0.10566000000E+00 0. -1.
     999900   -1    0    0    0    0 -0.00000000000E+00 -0.00000000000E+00 -0.74505805969E-08  0.93827000000E+00  0.93827000000E+00 0. -1.
     999902    2    1    2    0    0 -0.10057218420E-03  0.12852458642E-01  0.48022020655E-02  0.10302093239E+01  0.10301179515E+01 0.  0.
     999903    2    3    3    0    0  0.32743344955E-02  0.96604627748E-01  0.93299545062E-01  0.14180761547E+00  0.45402855947E-01 0.  0.
         14    1    1    2    0    0  0.10057218420E-03 -0.12852458642E-01 -0.48022020655E-02  0.13720676098E-01  0.00000000000E+00 0.  1.
     999901    1    3    3    0    0 -0.33749066797E-02 -0.83752169106E-01 -0.88497342997E-01  0.88840170843E+00  0.88000000000E+00 0.  1.
        -11    1    4    4    0    0 -0.12507107462E-01  0.36500634004E-01  0.59911845185E-01  0.71262994143E-01  0.51100000000E-03 0. -1.
         11    1    4    4    0    0  0.15781441958E-01  0.60103993744E-01  0.33387699877E-01  0.70544621328E-01  0.51100000000E-03 0.  1.
</event>
<event>
 8    1  0.2922807E+004  0.1043930E+01  0.7957747E-01            NaN
         13   -1    0    0    0    0  0.00000000000E+00  0.00000000000E+00  0.74505805969E-08  0.10566000000E+00  0.10566000000E+00 0. -1.
     999900   -1    0    0    0    0 -0.00000000000E+00 -0.00000000000E+00 -0.74505805969E-08  0.93827000000E+00  0.93827000000E+00 0. -1.
     999902    2    1    2    0    0 -0.68791690615E-02  0.10578880597E-01  0.52866076392E-02  0.10302484832E+01  0.10301576351E+01 0.  0.
     999903    2    3    3    0    0 -0.30175939636E-01 -0.27844085713E-01  0.12673500526E+00  0.14077179596E+00  0.45486883133E-01 0.  0.
         14    1    1    2    0    0  0.68791690615E-02 -0.10578880597E-01 -0.52866076392E-02  0.13681516802E-01  0.00000000000E+00 0. -1.
     999901    1    3    3    0    0  0.23296770575E-01  0.38422966310E-01 -0.12144839762E+00  0.88947668724E+00  0.88000000000E+00 0. -1.
        -11    1    4    4    0    0 -0.11927197400E-01  0.10968786572E-01  0.53482708311E-01  0.55885897380E-01  0.51100000000E-03 0.  1.
         11    1    4    4    0    0 -0.18248742237E-01 -0.38812872286E-01  0.73252296948E-01  0.84885898578E-01  0.51100000000E-03 0. -1.
</event>
<event>
 8    1  0.2922807E+004  0.1043930E+01  0.7957747E-01            NaN
         13   -1    0    0    0    0  0.00000000000E+00  0.00000000000E+00  0.74505805969E-08  0.10566000000E+00  0.10566000000E+00 0. -1.
     999900   -1    0    0    0    0 -0.00000000000E+00 -0.00000000000E+00 -0.74505805969E-08  0.93827000000E+00  0.93827000000E+00 0.  1.
     999902    2    1    2    0    0 -0.19628151375E-03 -0.11391418323E-01  0.11475014581E-01  0.10277596909E+01  0.10276324748E+01 0.  0.
     999903    2    3    3    0    0 -0.89858100240E-01  0.56645063159E-01  0.76042350460E-01  0.13824457272E+00  0.45232526615E-01 0.  0.
         14    1    1    2    0    0  0.19628151375E-03  0.11391418323E-01 -0.11475014581E-01  0.16170309134E-01  0.00000000000E+00 0.  1.
     999901    1    3    3    0    0  0.89661818726E-01 -0.68036481482E-01 -0.64567335879E-01  0.88951511815E+00  0.88000000000E+00 0. -1.
        -11    1    4    4    0    0 -0.12962320423E-01  0.31907616671E-01  0.18802484790E-01  0.39241716421E-01  0.51100000000E-03 0.  1.
         11    1    4    4    0    0 -0.76895779817E-01  0.24737446488E-01  0.57239865669E-01  0.99002856299E-01  0.51100000000E-03 0. -1.
</event>
<event>
 8    1  0.2922807E+004  0.1043930E+01  0.7957747E-01            NaN
         13   -1    0    0    0    0  0.00000000000E+00  0.00000000000E+00  0.74505805969E-08  0.10566000000E+00  0.10566000000E+00 0.  1.
     999900   -1    0    0    0    0 -0.00000000000E+00 -0.00000000000E+00 -0.74505805969E-08  0.93827000000E+00  0.93827000000E+00 0.  1.
     999902    2    1    2    0    0 -0.83021411324E-02 -0.13248208517E-02  0.11950907373E-01  0.10293181937E+01  0.10292144766E+01 0.  0.
     999903    2    3    3    0    0 -0.10413984050E+00  0.15960037867E-01  0.81992273695E-01  0.14118001524E+00  0.45926403836E-01 0.  0.
         14    1    1    2    0    0  0.83021411324E-02  0.13248208517E-02 -0.11950907373E-01  0.14611806347E-01  0.00000000000E+00 0. -1.
     999901    1    3    3    0    0  0.95837699367E-01 -0.17284858718E-01 -0.70041366322E-01  0.88813817841E+00  0.88000000000E+00 0.  1.
        -11    1    4    4    0    0 -0.21436753489E-01 -0.86878927817E-03 -0.26811432753E-02  0.21627270869E-01  0.51100000000E-03 0. -1.
         11    1    4    4    0    0 -0.82703087010E-01  0.16828827145E-01  0.84673416970E-01  0.11955274437E+00  0.51100000000E-03 0.  1.
</event>
<event>
 8    1  0.2922807E+004  0.1043930E+01  0.7957747E-01            NaN
         13   -1    0    0    0    0  0.00000000000E+00  0.00000000000E+00  0.74505805969E-08  0.10566000000E+00  0.10566000000E+00 0.  1.
     999900   -1    0    0    0    0 -0.00000000000E+00 -0.00000000000E+00 -0.74505805969E-08  0.93827000000E+00  0.93827000000E+00 0.  1.
     999902    2    1    2    0    0 -0.89310176805E-03 -0.13016676606E-01 -0.32087327508E-02  0.10304939490E+01  0.10304063526E+01 0.  0.
     999903    2    3    3    0    0 -0.12305363699E+00  0.28884095130E-01 -0.41030577961E-01  0.14026399948E+00  0.44877529974E-01 0.  0.
         14    1    1    2    0    0  0.89310176805E-03  0.13016676606E-01  0.32087327508E-02  0.13436051001E-01  0.00000000000E+00 0.  1.
     999901    1    3    3    0    0  0.12216053522E+00 -0.41900771736E-01  0.37821845210E-01  0.89022994951E+00  0.88000000000E+00 0.  1.
        -11    1    4    4    0    0 -0.40127565558E-01  0.15140491999E-01  0.69867782774E-02  0.43457245739E-01  0.51100000000E-03 0. -1.
         11    1    4    4    0    0 -0.82926071429E-01  0.13743603131E-01 -0.48017356238E-01  0.96806753745E-01  0.51100000000E-03 0.  1.
</event>
<event>
 8    1  0.2922807E+004  0.1043930E+01  0.7957747E-01            NaN
         13   -1    0    0    0    0  0.00000000000E+00  0.00000000000E+00  0.74505805969E-08  0.10566000000E+00  0.10566000000E+00 0.  1.
     999900   -1    0    0    0    0 -0.00000000000E+00 -0.00000000000E+00 -0.74505805969E-08  0.93827000000E+00  0.93827000000E+00 0. -1.
     999902    2    1    2    0    0  0.42922778877E-02 -0.76860866323E-02 -0.16749547560E-01  0.10250078722E+01  0.10248332016E+01 0.  0.
     999903    2    3    3    0    0  0.20406338450E-01  0.10340401047E+00 -0.73044331897E-01  0.13609292949E+00  0.45574148418E-01 0.  0.
         14    1    1    2    0    0 -0.42922778877E-02  0.76860866323E-02  0.16749547560E-01  0.18922127804E-01  0.00000000000E+00 0.  1.
     999901    1    3    3    0    0 -0.16114060562E-01 -0.11109009710E+00  0.56294784337E-01  0.88891494271E+00  0.88000000000E+00 0. -1.
        -11    1    4    4    0    0  0.31593862596E-01  0.79030087595E-01 -0.41517103573E-01  0.94698774591E-01  0.51100000000E-03 0. -1.
         11    1    4    4    0    0 -0.11187524146E-01  0.24373922878E-01 -0.31527228324E-01  0.41394154899E-01  0.51100000000E-03 0.  1.
</event>
<event>
 8    1  0.2922807E+004  0.1043930E+01  0.7957747E-01            NaN
         13   -1    0    0    0    0  0.00000000000E+00  0.00000000000E+00  0.74505805969E-08  0.10566000000E+00  0.10566000000E+00 0. -1.
     999900   -1    0    0    0    0 -0.00000000000E+00 -0.00000000000E+00 -0.74505805969E-08  0.93827000000E+00  0.93827000000E+00 0. -1.
     999902    2    1    2    0    0  0.10457163521E-01 -0.33875795405E-02  0.89391748206E-02  0.10297618381E+01  0.10296643659E+01 0.  0.
     999903    2    3    3    0    0  0.49145966621E-02 -0.13194335588E+00  0.93957977056E-02  0.14040391459E+00  0.46816405215E-01 0.  0.
         14    1    1    2    0    0 -0.10457163521E-01  0.33875795405E-02 -0.89391748206E-02  0.14168161861E-01  0.00000000000E+00 0.  1.
     999901    1    3    3    0    0  0.55425668585E-02  0.12855577634E+00 -0.45662288495E-03  0.88935792355E+00  0.88000000000E+00 0.  1.
        -11    1    4    4    0    0 -0.19775247969E-01 -0.37097910589E-01  0.43387310478E-02  0.42265838575E-01  0.51100000000E-03 0.  1.
         11    1    4    4    0    0  0.24689844631E-01 -0.94845445287E-01  0.50570666578E-02  0.98138076014E-01  0.51100000000E-03 0. -1.
</event>
<event>
 8    1  0.2922807E+004  0.1043930E+01  0.7957747E-01            NaN
         13   -1    0    0    0    0  0.00000000000E+00  0.00000000000E+00  0.74505805969E-08  0.10566000000E+00  0.10566000000E+00 0.  1.
     999900   -1    0    0    0    0 -0.00000000000E+00 -0.00000000000E+00 -0.74505805969E-08  0.93827000000E+00  0.93827000000E+00 0.  1.
     999902    2    1    2    0    0  0.43667047662E-02 -0.12457901869E-01 -0.42212868244E-02  0.10300704657E+01  0.10299772219E+01 0.  0.
     999903    2    3    3    0    0  0.49837191552E-01 -0.13814228639E-01  0.12257798074E+00  0.13981911967E+00  0.43005189091E-01 0.  0.
         14    1    1    2    0    0 -0.43667047662E-02  0.12457901869E-01  0.42212868244E-02  0.13859534333E-01  0.00000000000E+00 0.  1.
     999901    1    3    3    0    0 -0.45470486786E-01  0.13563267705E-02 -0.12679926756E+00  0.89025134599E+00  0.88000000000E+00 0.  1.
        -11    1    4    4    0    0  0.33844574057E-01 -0.18252075298E-01  0.39614155326E-01  0.55209925458E-01  0.51100000000E-03 0. -1.
         11    1    4    4    0    0  0.15992617495E-01  0.44378466587E-02  0.82963825414E-01  0.84609194214E-01  0.51100000000E-03 0.  1.
</event>
<event>
 8    1  0.2922807E+004  0.1043930E+01  0.7957747E-01            NaN
         13   -1    0    0    0    0  0.00000000000E+00  0.00000000000E+00  0.74505805969E-08  0.10566000000E+00  0.10566000000E+00 0. -1.
     999900   -1    0    0    0    0 -0.00000000000E+00 -0.00000000000E+00 -0.74505805969E-08  0.93827000000E+00  0.93827000000E+00 0.  1.
     999902    2    1    2    0    0  0.13971790154E-01 -0.30657706530E-02  0.21679794859E-02  0.10294624499E+01  0.10293607851E+01 0.  0.
     999903    2    3    3    0    0 -0.20742592612E-01 -0.86056397275E-01  0.98289472509E-01  0.13966928639E+00  0.44841169626E-01 0.  0.
         14    1    1    2    0    0 -0.13971790154E-01  0.30657706530E-02 -0.21679794859E-02  0.14467550064E-01  0.00000000000E+00 0. -1.
     999901    1    3    3    0    0  0.34714382766E-01  0.82990626622E-01 -0.96121493023E-01  0.88979316355E+00  0.88000000000E+00 0. -1.
        -11    1    4    4    0    0 -0.22695234884E-01 -0.21580546934E-01  0.16189227169E-01  0.35258274061E-01  0.51100000000E-03 0.  1.
         11    1    4    4    0    0  0.19526422722E-02 -0.64475850340E-01  0.82100245339E-01  0.10441101233E+00  0.51100000000E-03 0. -1.
</event>
<event>
 8    1  0.2922807E+004  0.1043930E+01  0.7957747E-01            NaN
         13   -1    0    0    0    0  0.00000000000E+00  0.00000000000E+00  0.74505805969E-08  0.10566000000E+00  0.10566000000E+00 0. -1.
     999900   -1    0    0    0    0 -0.00000000000E+00 -0.00000000000E+00 -0.74505805969E-08  0.93827000000E+00  0.93827000000E+00 0.  1.
     999902    2    1    2    0    0 -0.53574076816E-02 -0.11075343304E-01 -0.71710422327E-02  0.10296896035E+01  0.10295911279E+01 0.  0.
     999903    2    3    3    0    0  0.12117125383E+00 -0.13484947518E-01  0.49032332174E-01  0.13886182682E+00  0.44878957048E-01 0.  0.
         14    1    1    2    0    0  0.53574076816E-02  0.11075343304E-01  0.71710422327E-02  0.14240396521E-01  0.00000000000E+00 0. -1.
     999901    1    3    3    0    0 -0.12652866151E+00  0.24096042140E-02 -0.56203374406E-01  0.89082777666E+00  0.88000000000E+00 0.  1.
        -11    1    4    4    0    0  0.64232726397E-01 -0.21987609547E-01  0.44358746974E-01  0.81100293884E-01  0.51100000000E-03 0.  1.
         11    1    4    4    0    0  0.56938527428E-01  0.85026620287E-02  0.46735851995E-02  0.57761532934E-01  0.51100000000E-03 0. -1.
</event>
<event>
 8    1  0.2922807E+004  0.1043930E+01  0.7957747E-01            NaN
         13   -1    0    0    0    0  0.00000000000E+00  0.00000000000E+00  0.74505805969E-08  0.10566000000E+00  0.10566000000E+00 0. -1.
     999900   -1    0    0    0    0 -0.00000000000E+00 -0.00000000000E+00 -0.74505805969E-08  0.93827000000E+00  0.93827000000E+00 0. -1.
     999902    2    1    2    0    0  0.32295221744E-02 -0.32981787319E-02  0.12817450388E-01  0.10303066806E+01  0.10302166089E+01 0.  0.
     999903    2    3    3    0    0 -0.12122365658E+00  0.20512231860E-01 -0.47329097583E-01  0.13919886639E+00  0.44948352089E-01 0.  0.
         14    1    1    2    0    0 -0.32295221744E-02  0.32981787319E-02 -0.12817450388E-01  0.13623319378E-01  0.00000000000E+00 0.  1.
     999901    1    3    3    0    0  0.12445317875E+00 -0.23810410592E-01  0.60146547971E-01  0.89110781423E+00  0.88000000000E+00 0.  1.
        -11    1    4    4    0    0 -0.20130501977E-01  0.11021364649E-01 -0.27360409334E-01  0.35714992769E-01  0.51100000000E-03 0.  1.
         11    1    4    4    0    0 -0.10109315460E+00  0.94908672114E-02 -0.19968688249E-01  0.10348387362E+00  0.51100000000E-03 0. -1.
</event>
<event>
 8    1  0.2922807E+004  0.1043930E+01  0.7957747E-01            NaN
         13   -1    0    0    0    0  0.00000000000E+00  0.00000000000E+00  0.74505805969E-08  0.10566000000E+00  0.10566000000E+00 0.  1.
     999900   -1    0    0    0    0 -0.00000000000E+00 -0.00000000000E+00 -0.74505805969E-08  0.93827000000E+00  0.93827000000E+00 0. -1.
     999902    2    1    2    0    0  0.62774452700E-02  0.75566629968E-02  0.98722879660E-02  0.10300026333E+01  0.10299084682E+01 0.  0.
     999903    2    3    3    0    0  0.40545425349E-01  0.91785840732E-01  0.89333545735E-01  0.14175551655E+00  0.45228000224E-01 0.  0.
         14    1    1    2    0    0 -0.62774452700E-02 -0.75566629968E-02 -0.98722879660E-02  0.13927366745E-01  0.00000000000E+00 0. -1.
     999901    1    3    3    0    0 -0.34267980079E-01 -0.84229177736E-01 -0.79461257769E-01  0.88824711670E+00  0.88000000000E+00 0.  1.
        -11    1    4    4    0    0  0.34000392368E-01  0.68821403870E-01  0.89447557938E-01  0.11787085753E+00  0.51100000000E-03 0.  1.
         11    1    4    4    0    0  0.65450329809E-02  0.22964436863E-01 -0.11401220253E-03  0.23884659029E-01  0.51100000000E-03 0. -1.
</event>
<event>
 8    1  0.2922807E+004  0.1043930E+01  0.7957747E-01            NaN
         13   -1    0    0    0    0  0.00000000000E+00  0.00000000000E+00  0.74505805969E-08  0.10566000000E+00  0.10566000000E+00 0. -1.
     999900   -1    0    0    0    0 -0.00000000000E+00 -0.00000000000E+00 -0.74505805969E-08  0.93827000000E+00  0.93827000000E+00 0.  1.
     999902    2    1    2    0    0  0.12085357962E-01 -0.92339190097E-04 -0.69371677386E-02  0.10299948394E+01  0.10299005683E+01 0.  0.
     999903    2    3    3    0    0  0.91194375021E-01 -0.87685858754E-01  0.42515672265E-01  0.14073872075E+00  0.44660735198E-01 0.  0.
         14    1    1    2    0    0 -0.12085357962E-01  0.92339190097E-04  0.69371677386E-02  0.13935160560E-01  0.00000000000E+00 0. -1.
     999901    1    3    3    0    0 -0.79109017058E-01  0.87593519564E-01 -0.49452840003E-01  0.88925611869E+00  0.88000000000E+00 0.  1.
        -11    1    4    4    0    0  0.76027728547E-01 -0.65698573804E-01  0.13647114664E-01  0.10140524132E+00  0.51100000000E-03 0. -1.
         11    1    4    4    0    0  0.15166646474E-01 -0.21987284950E-01  0.28868557601E-01  0.39333479425E-01  0.51100000000E-03 0.  1.
</event>
<event>
 8    1  0.2922807E+004  0.1043930E+01  0.7957747E-01            NaN
         13   -1    0    0    0    0  0.00000000000E+00  0.00000000000E+00  0.74505805969E-08  0.10566000000E+00  0.10566000000E+00 0.  1.
     999900   -1    0    0    0    0 -0.00000000000E+00 -0.00000000000E+00 -0.74505805969E-08  0.93827000000E+00  0.93827000000E+00 0. -1.
     999902    2    1    2    0    0 -0.12588988262E-01  0.10299926321E-02 -0.57165912732E-02  0.10300655517E+01  0.10299722413E+01 0.  0.
     999903    2    3    3    0    0 -0.24555286442E-01 -0.95612063392E-01 -0.89811883491E-01  0.14070910043E+00  0.44589772018E-01 0.  0.
         14    1    1    2    0    0  0.12588988262E-01 -0.10299926321E-02  0.57165912732E-02  0.13864448278E-01  0.00000000000E+00 0.  1.
     999901    1    3    3    0    0  0.11966298180E-01  0.96642056024E-01  0.84095292218E-01  0.88935645129E+00  0.88000000000E+00 0.  1.
        -11    1    4    4    0    0 -0.35949886246E-02 -0.62582112310E-01 -0.30643609998E-01  0.69776333230E-01  0.51100000000E-03 0.  1.
         11    1    4    4    0    0 -0.20960297817E-01 -0.33029951082E-01 -0.59168273494E-01  0.70932767197E-01  0.51100000000E-03 0. -1.
</event>
<event>
 8    1  0.2922807E+004  0.1043930E+01  0.7957747E-01            NaN
         13   -1    0    0    0    0  0.00000000000E+00  0.00000000000E+00  0.74505805969E-08  0.10566000000E+00  0.10566000000E+00 0. -1.
     999900   -1    0    0    0    0 -0.00000000000E+00 -0.00000000000E+00 -0.74505805969E-08  0.93827000000E+00  0.93827000000E+00 0.  1.
     999902    2    1    2    0    0 -0.65165658461E-02  0.13800961042E-01 -0.73530800608E-02  0.10269889274E+01  0.10268491890E+01 0.  0.
     999903    2    3    3    0    0 -0.57376513099E-01 -0.64863201425E-01  0.95124248847E-01  0.13610375651E+00  0.44455715741E-01 0.  0.
         14    1    1    2    0    0  0.65165658461E-02 -0.13800961042E-01  0.73530800608E-02  0.16941072649E-01  0.00000000000E+00 0. -1.
     999901    1    3    3    0    0  0.50859947252E-01  0.78664162467E-01 -0.10247732891E+00  0.89088517084E+00  0.88000000000E+00 0.  1.
        -11    1    4    4    0    0  0.55453678604E-02 -0.15125946002E-01  0.91907667693E-02  0.18554693799E-01  0.51100000000E-03 0. -1.
         11    1    4    4    0    0 -0.62921880959E-01 -0.49737255423E-01  0.85933482078E-01  0.11754906271E+00  0.51100000000E-03 0.  1.
</event>
<event>
 8    1  0.2922807E+004  0.1043930E+01  0.7957747E-01            NaN
         13   -1    0    0    0    0  0.00000000000E+00  0.00000000000E+00  0.74505805969E-08  0.10566000000E+00  0.10566000000E+00 0.  1.
     999900   -1    0    0    0    0 -0.00000000000E+00 -0.00000000000E+00 -0.74505805969E-08  0.93827000000E+00  0.93827000000E+00 0. -1.
     999902    2    1    2    0    0  0.41440849426E-02 -0.40397059414E-02  0.12964301711E-01  0.10297326135E+01  0.10296347360E+01 0.  0.
     999903    2    3    3    0    0  0.12619898050E+00  0.40184785389E-01 -0.36008117599E-02  0.14005424121E+00  0.45400715642E-01 0.  0.
         14    1    1    2    0    0 -0.41440849426E-02  0.40397059414E-02 -0.12964301711E-01  0.14197386483E-01  0.00000000000E+00 0. -1.
     999901    1    3    3    0    0 -0.12205489556E+00 -0.44224491330E-01  0.16565113470E-01  0.88967837230E+00  0.88000000000E+00 0.  1.
        -11    1    4    4    0    0  0.28026878583E-01 -0.34353744052E-02 -0.15079311725E-01  0.32014910332E-01  0.51100000000E-03 0.  1.
         11    1    4    4    0    0  0.98172101914E-01  0.43620159794E-01  0.11478499965E-01  0.10803933088E+00  0.51100000000E-03 0. -1.
</event>
<event>
 8    1  0.2922807E+004  0.1043930E+01  0.7957747E-01            NaN
         13   -1    0    0    0    0  0.00000000000E+00  0.00000000000E+00  0.74505805969E-08  0.10566000000E+00  0.10566000000E+00 0.  1.
     999900   -1    0    0    0    0 -0.00000000000E+00 -0.00000000000E+00 -0.74505805969E-08  0.93827000000E+00  0.93827000000E+00 0. -1.
     999902    2    1    2    0    0 -0.81209575776E-02  0.59396282177E-03 -0.12042233245E-01  0.10293932148E+01  0.10292905676E+01 0.  0.
     999903    2    3    3    0    0  0.10164974271E+00 -0.20543002640E-01 -0.81654740819E-01  0.13959420421E+00  0.45435228617E-01 0.  0.
         14    1    1    2    0    0  0.81209575776E-02 -0.59396282177E-03  0.12042233245E-01  0.14536785247E-01  0.00000000000E+00 0.  1.
     999901    1    3    3    0    0 -0.10977070029E+00  0.21136965462E-01  0.69612507574E-01  0.88979901054E+00  0.88000000000E+00 0.  1.
        -11    1    4    4    0    0  0.86479373514E-01 -0.84330863535E-02 -0.44388584915E-01  0.97572570841E-01  0.51100000000E-03 0. -1.
         11    1    4    4    0    0  0.15170369201E-01 -0.12109916287E-01 -0.37266155904E-01  0.42021633369E-01  0.51100000000E-03 0.  1.
</event>
<event>
 8    1  0.2922807E+004  0.1043930E+01  0.7957747E-01            NaN
         13   -1    0    0    0    0  0.00000000000E+00  0.00000000000E+00  0.74505805969E-08  0.10566000000E+00  0.10566000000E+00 0. -1.
     999900   -1    0    0    0    0 -0.00000000000E+00 -0.00000000000E+00 -0.74505805969E-08  0.93827000000E+00  0.93827000000E+00 0.  1.
     999902    2    1    2    0    0 -0.54912607617E-02 -0.93593854190E-02  0.84409094158E-02  0.10301822368E+01  0.10300905009E+01 0.  0.
     999903    2    3    3    0    0  0.84578194587E-01  0.19760122754E-01  0.10064930008E+00  0.14031548285E+00  0.44880058722E-01 0.  0.
         14    1    1    2    0    0  0.54912607617E-02  0.93593854190E-02 -0.84409094158E-02  0.13747763161E-01  0.00000000000E+00 0.  1.
     999901    1    3    3    0    0 -0.90069455349E-01 -0.29119508174E-01 -0.92208390662E-01  0.88986675399E+00  0.88000000000E+00 0.  1.
        -11    1    4    4    0    0  0.82480266777E-01  0.28870653111E-01  0.83998051325E-01  0.12121238702E+00  0.51100000000E-03 0.  1.
         11    1    4    4    0    0  0.20979278097E-02 -0.91105303568E-02  0.16651248752E-01  0.19103095835E-01  0.51100000000E-03 0. -1.
</event>
<event>
 8    1  0.2922807E+004  0.1043930E+01  0.7957747E-01            NaN
         13   -1    0    0    0    0  0.00000000000E+00  0.00000000000E+00  0.74505805969E-08  0.10566000000E+00  0.10566000000E+00 0. -1.
     999900   -1    0    0    0    0 -0.00000000000E+00 -0.00000000000E+00 -0.74505805969E-08  0.93827000000E+00  0.93827000000E+00 0.  1.
     999902    2    1    2    0    0 -0.87943105627E-02  0.14111061735E-01 -0.20166678263E-02  0.10271810027E+01  0.10270444408E+01 0.  0.
     999903    2    3    3    0    0  0.53056765734E-01  0.56171180115E-01  0.10485601984E+00  0.13756514146E+00  0.44262414994E-01 0.  0.
         14    1    1    2    0    0  0.87943105627E-02 -0.14111061735E-01  0.20166678263E-02  0.16748997303E-01  0.00000000000E+00 0. -1.
     999901    1    3    3    0    0 -0.61851076297E-01 -0.42060118380E-01 -0.10687268767E+00  0.88961586124E+00  0.88000000000E+00 0.  1.
        -11    1    4    4    0    0  0.16600436043E-01  0.33845189839E-01  0.79174191840E-01  0.87691990094E-01  0.51100000000E-03 0.  1.
         11    1    4    4    0    0  0.36456329691E-01  0.22325990276E-01  0.25681828004E-01  0.49873151364E-01  0.51100000000E-03 0. -1.
</event>
<event>
 8    1  0.2922807E+004  0.1043930E+01  0.7957747E-01            NaN
         13   -1    0    0    0    0  0.00000000000E+00  0.00000000000E+00  0.74505805969E-08  0.10566000000E+00  0.10566000000E+00 0. -1.
     999900   -1    0    0    0    0 -0.00000000000E+00 -0.00000000000E+00 -0.74505805969E-08  0.93827000000E+00  0.93827000000E+00 0. -1.
     999902    2    1    2    0    0  0.10476289188E-01 -0.43039402157E-02 -0.74785850994E-02  0.10303577573E+01  0.10302683642E+01 0.  0.
     999903    2    3    3    0    0  0.59907031202E-01  0.38539195565E-01 -0.11210460098E+00  0.14174899315E+00  0.49509731528E-01 0.  0.
         14    1    1    2    0    0 -0.10476289188E-01  0.43039402157E-02  0.74785850994E-02  0.13572242689E-01  0.00000000000E+00 0. -1.
     999901    1    3    3    0    0 -0.49430742014E-01 -0.42843135781E-01  0.10462601588E+00  0.88860876416E+00  0.88000000000E+00 0.  1.
        -11    1    4    4    0    0  0.23924895378E-01 -0.42629453854E-02 -0.62269319394E-01  0.66845363198E-01  0.51100000000E-03 0.  1.
         11    1    4    4    0    0  0.35982135823E-01  0.42802140951E-01 -0.49835281588E-01  0.74903629954E-01  0.51100000000E-03 0. -1.
</event>
<event>
 8    1  0.2922807E+004  0.1043930E+01  0.7957747E-01            NaN
         13   -1    0    0    0    0  0.00000000000E+00  0.00000000000E+00  0.74505805969E-08  0.10566000000E+00  0.10566000000E+00 0. -1.
     999900   -1    0    0    0    0 -0.00000000000E+00 -0.00000000000E+00 -0.74505805969E-08  0.93827000000E+00  0.93827000000E+00 0. -1.
     999902    2    1    2    0    0  0.52916600048E-02 -0.96174245773E-02  0.77698497787E-02  0.10304813165E+01  0.10303935543E+01 0.  0.
     999903    2    3    3    0    0 -0.10873129553E+00 -0.56258673948E-01  0.52859566504E-01  0.14075679565E+00  0.45064495202E-01 0.  0.
         14    1    1    2    0    0 -0.52916600048E-02  0.96174245773E-02 -0.77698497787E-02  0.13448683456E-01  0.00000000000E+00 0.  1.
     999901    1    3    3    0    0  0.11402295553E+00  0.46641249371E-01 -0.45089716725E-01  0.88972452090E+00  0.88000000000E+00 0. -1.
        -11    1    4    4    0    0 -0.83215568742E-01 -0.19216529901E-01  0.32508374453E-01  0.91384689271E-01  0.51100000000E-03 0.  1.
         11    1    4    4    0    0 -0.25515726788E-01 -0.37042144047E-01  0.20351192051E-01  0.49372106376E-01  0.51100000000E-03 0. -1.
</event>
<event>
 8    1  0.2922807E+004  0.1043930E+01  0.7957747E-01            NaN
         13   -1    0    0    0    0  0.00000000000E+00  0.00000000000E+00  0.74505805969E-08  0.10566000000E+00  0.10566000000E+00 0.  1.
     999900   -1    0    0    0    0 -0.00000000000E+00 -0.00000000000E+00 -0.74505805969E-08  0.93827000000E+00  0.93827000000E+00 0.  1.
     999902    2    1    2    0    0 -0.89038137756E-02 -0.78880112699E-02 -0.62330913088E-02  0.10305005529E+01  0.10304130432E+01 0.  0.
     999903    2    3    3    0    0 -0.13792097015E-01 -0.12252251495E-01 -0.13271388951E+00  0.14143343835E+00  0.45278045544E-01 0.  0.
         14    1    1    2    0    0  0.89038137756E-02  0.78880112699E-02  0.62330913088E-02  0.13429447078E-01  0.00000000000E+00 0.  1.
     999901    1    3    3    0    0  0.48882832390E-02  0.43642402252E-02  0.12648079820E+00  0.88906711457E+00  0.88000000000E+00 0. -1.
        -11    1    4    4    0    0  0.10369926420E-01 -0.19906827172E-01 -0.77331396142E-01  0.80524673810E-01  0.51100000000E-03 0. -1.
         11    1    4    4    0    0 -0.24162023435E-01  0.76545756767E-02 -0.55382493364E-01  0.60908764538E-01  0.51100000000E-03 0.  1.
</event>
<event>
 8    1  0.2922807E+004  0.1043930E+01  0.7957747E-01            NaN
         13   -1    0    0    0    0  0.00000000000E+00  0.00000000000E+00  0.74505805969E-08  0.10566000000E+00  0.10566000000E+00 0. -1.
     999900   -1    0    0    0    0 -0.00000000000E+00 -0.00000000000E+00 -0.74505805969E-08  0.93827000000E+00  0.93827000000E+00 0. -1.
     999902    2    1    2    0    0 -0.78653799768E-03  0.70745054346E-02 -0.11779637243E-01  0.10301667474E+01  0.10300748032E+01 0.  0.
     999903    2    3    3    0    0 -0.71850004834E-01 -0.20145289856E-01  0.10798330985E+00  0.13880032605E+00  0.45131800398E-01 0.  0.
         14    1    1    2    0    0  0.78653799768E-03 -0.70745054346E-02  0.11779637243E-01  0.13763252622E-01  0.00000000000E+00 0. -1.
     999901    1    3    3    0    0  0.71063466836E-01  0.27219795290E-01 -0.11976294709E+00  0.89136642133E+00  0.88000000000E+00 0. -1.
        -11    1    4    4    0    0 -0.21403569378E-01 -0.28209589388E-01  0.53021452145E-01  0.63760718504E-01  0.51100000000E-03 0. -1.
         11    1    4    4    0    0 -0.50446435456E-01  0.80642995325E-02  0.54961857706E-01  0.75039607546E-01  0.51100000000E-03 0.  1.
</event>
