<event>
 8    1  0.2190295E+004  0.1043930E+01  0.7957747E-01            NaN
         13   -1    0    0    0    0  0.00000000000E+00  0.00000000000E+00  0.74505805969E-08  0.10566000000E+00  0.10566000000E+00 0.  1.
     999900   -1    0    0    0    0 -0.00000000000E+00 -0.00000000000E+00 -0.74505805969E-08  0.93827000000E+00  0.93827000000E+00 0. -1.
     999902    2    1    2    0    0 -0.62263727470E-02 -0.11757458250E-01  0.23248052741E-02  0.10304240657E+01  0.10303355497E+01 0.  0.
     999903    2    3    3    0    0 -0.71866807697E-01  0.20612042192E-01  0.11061069862E+00  0.14077116373E+00  0.44632942507E-01 0.  0.
         14    1    1    2    0    0  0.62263727470E-02  0.11757458250E-01 -0.23248052741E-02  0.13505934312E-01  0.00000000000E+00 0.  1.
     999901    1    3    3    0    0  0.65640434950E-01 -0.32369500441E-01 -0.10828589335E+00  0.88965290196E+00  0.88000000000E+00 0. -1.
        -11    1    4    4    0    0 -0.71267479060E-01  0.26059034248E-01  0.82358911005E-01  0.11198829484E+00  0.51100000000E-03 0.  1.
         11    1    4    4    0    0 -0.59932863765E-03 -0.54469920569E-02  0.28251787617E-01  0.28782868896E-01  0.51100000000E-03 0. -1.
</event>
<event>
 8    1  0.2190295E+004  0.1043930E+01  0.7957747E-01            NaN
         13   -1    0    0    0    0  0.00000000000E+00  0.00000000000E+00  0.74505805969E-08  0.10566000000E+00  0.10566000000E+00 0.  1.
     999900   -1    0    0    0    0 -0.00000000000E+00 -0.00000000000E+00 -0.74505805969E-08  0.93827000000E+00  0.93827000000E+00 0.  1.
     999902    2    1    2    0    0  0.12059206568E-01  0.57822453882E-02 -0.35049414661E-02  0.10301045366E+01  0.10300117537E+01 0.  0.
     999903    2    3    3    0    0 -0.59172774692E-01  0.11861917144E+00 -0.20361545304E-02  0.14004368225E+00  0.45123850842E-01 0.  0.
         14    1    1    2    0    0 -0.12059206568E-01 -0.57822453882E-02  0.35049414661E-02  0.13825463444E-01  0.00000000000E+00 0.  1.
     999901    1    3    3    0    0  0.71231981260E-01 -0.11283692605E+00 -0.14687869357E-02  0.89006085431E+00  0.88000000000E+00 0. -1.
        -11    1    4    4    0    0 -0.44883541823E-01  0.42592603952E-01  0.64811135179E-02  0.62216783840E-01  0.51100000000E-03 0.  1.
         11    1    4    4    0    0 -0.14289232869E-01  0.76026567487E-01 -0.85172680484E-02  0.77826898408E-01  0.51100000000E-03 0. -1.
</event>
<event>
 8    1  0.2190295E+004  0.1043930E+01  0.7957747E-01            NaN
         13   -1    0    0    0    0  0.00000000000E+00  0.00000000000E+00  0.74505805969E-08  0.10566000000E+00  0.10566000000E+00 0. -1.
     999900   -1    0    0    0    0 -0.00000000000E+00 -0.00000000000E+00 -0.74505805969E-08  0.93827000000E+00  0.93827000000E+00 0. -1.
     999902    2    1    2    0    0 -0.16450697428E-03 -0.14526469079E-01 -0.11676329042E-02  0.10293557510E+01  0.10292525703E+01 0.  0.
     999903    2    3    3    0    0  0.91641090058E-01  0.79595326205E-01 -0.49008658578E-01  0.13830247331E+00  0.44634293631E-01 0.  0.
         14    1    1    2    0    0  0.16450697428E-03  0.14526469079E-01  0.11676329042E-02  0.14574248970E-01  0.00000000000E+00 0.  1.
     999901    1    3    3    0    0 -0.91805597033E-01 -0.94121795284E-01  0.47841025673E-01  0.89105327772E+00  0.88000000000E+00 0.  1.
        -11    1    4    4    0    0  0.27251886521E-01  0.45151114909E-01 -0.36686602304E-01  0.64245283143E-01  0.51100000000E-03 0. -1.
         11    1    4    4    0    0  0.64389203537E-01  0.34444211296E-01 -0.12322056274E-01  0.74057190169E-01  0.51100000000E-03 0.  1.
</event>
<event>
 8    1  0.2190295E+004  0.1043930E+01  0.7957747E-01            NaN
         13   -1    0    0    0    0  0.00000000000E+00  0.00000000000E+00  0.74505805969E-08  0.10566000000E+00  0.10566000000E+00 0.  1.
     999900   -1    0    0    0    0 -0.00000000000E+00 -0.00000000000E+00 -0.74505805969E-08  0.93827000000E+00  0.93827000000E+00 0. -1.
     999902    2    1    2    0    0  0.35687931929E-02  0.13111369309E-01  0.34455498015E-02  0.10299115799E+01  0.10298161711E+01 0.  0.
     999903    2    3    3    0    0  0.11924913225E+00 -0.57098016881E-01  0.23761653088E-02  0.13956757761E+00  0.44642171578E-01 0.  0.
         14    1    1    2    0    0 -0.35687931929E-02 -0.13111369309E-01 -0.34455498015E-02  0.14018420148E-01  0.00000000000E+00 0. -1.
     999901    1    3    3    0    0 -0.11568033906E+00  0.70209386190E-01  0.10693844926E-02  0.89034400225E+00  0.88000000000E+00 0. -1.
        -11    1    4    4    0    0  0.28738590925E-01 -0.36284612313E-01 -0.40802554806E-02  0.46469229656E-01  0.51100000000E-03 0.  1.
         11    1    4    4    0    0  0.90510541324E-01 -0.20813404568E-01  0.64564207895E-02  0.93098347949E-01  0.51100000000E-03 0. -1.
</event>
<event>
 8    1  0.2190295E+004  0.1043930E+01  0.7957747E-01            NaN
         13   -1    0    0    0    0  0.00000000000E+00  0.00000000000E+00  0.74505805969E-08  0.10566000000E+00  0.10566000000E+00 0. -1.
     999900   -1    0    0    0    0 -0.00000000000E+00 -0.00000000000E+00 -0.74505805969E-08  0.93827000000E+00  0.93827000000E+00 0.  1.
     999902    2    1    2    0    0 -0.11660404982E-01 -0.30211197169E-02 -0.71513345222E-02  0.10299216527E+01  0.10298263819E+01 0.  0.
     999903    2    3    3    0    0  0.65743716969E-01  0.99121451269E-01  0.54618162771E-01  0.13849584328E+00  0.45284174703E-01 0.  0.
         14    1    1    2    0    0  0.11660404982E-01  0.30211197169E-02  0.71513345222E-02  0.14008347302E-01  0.00000000000E+00 0. -1.
     999901    1    3    3    0    0 -0.77404121950E-01 -0.10214257099E+00 -0.61769497293E-01  0.89142580942E+00  0.88000000000E+00 0. -1.
        -11    1    4    4    0    0  0.24355924988E-01  0.38058485993E-01  0.45566447348E-01  0.64173372071E-01  0.51100000000E-03 0.  1.
         11    1    4    4    0    0  0.41387791981E-01  0.61062965276E-01  0.90517154233E-02  0.74322471208E-01  0.51100000000E-03 0. -1.
</event>
<event>
 8    1  0.2190295E+004  0.1043930E+01  0.7957747E-01            NaN
         13   -1    0    0    0    0  0.00000000000E+00  0.00000000000E+00  0.74505805969E-08  0.10566000000E+00  0.10566000000E+00 0.  1.
     999900   -1    0    0    0    0 -0.00000000000E+00 -0.00000000000E+00 -0.74505805969E-08  0.93827000000E+00  0.93827000000E+00 0. -1.
     999902    2    1    2    0    0 -0.76958641032E-02 -0.11756560486E-01  0.39138435649E-02  0.10293436636E+01  0.10292403104E+01 0.  0.
     999903    2    3    3    0    0 -0.11254277191E-01  0.81724927603E-01 -0.10123107522E+00  0.13816079521E+00  0.45111552814E-01 0.  0.
         14    1    1    2    0    0  0.76958641032E-02  0.11756560486E-01 -0.39138435649E-02  0.14586336422E-01  0.00000000000E+00 0. -1.
     999901    1    3    3    0    0  0.35584130882E-02 -0.93481488089E-01  0.10514491879E+00  0.89118286836E+00  0.88000000000E+00 0.  1.
        -11    1    4    4    0    0  0.16786033431E-01  0.42256309942E-01 -0.52741143821E-01  0.69636599721E-01  0.51100000000E-03 0. -1.
         11    1    4    4    0    0 -0.28040310622E-01  0.39468617661E-01 -0.48489931400E-01  0.68524195493E-01  0.51100000000E-03 0.  1.
</event>
<event>
 8    1  0.2190295E+004  0.1043930E+01  0.7957747E-01            NaN
         13   -1    0    0    0    0  0.00000000000E+00  0.00000000000E+00  0.74505805969E-08  0.10566000000E+00  0.10566000000E+00 0.  1.
     999900   -1    0    0    0    0 -0.00000000000E+00 -0.00000000000E+00 -0.74505805969E-08  0.93827000000E+00  0.93827000000E+00 0.  1.
     999902    2    1    2    0    0 -0.35115590779E-02  0.65611291306E-02  0.70219039904E-02  0.10336983531E+01  0.10336477149E+01 0.  0.
     999903    2    3    3    0    0 -0.12729363373E+00 -0.26325992267E-01 -0.37974518388E-01  0.14328932193E+00  0.46829890829E-01 0.  0.
         14    1    1    2    0    0  0.35115590779E-02 -0.65611291306E-02 -0.70219039904E-02  0.10231646899E-01  0.00000000000E+00 0. -1.
     999901    1    3    3    0    0  0.12378207466E+00  0.32887121397E-01  0.44996422379E-01  0.89040903117E+00  0.88000000000E+00 0. -1.
        -11    1    4    4    0    0 -0.54604326240E-01  0.12067232045E-01 -0.16942998207E-01  0.58434380656E-01  0.51100000000E-03 0. -1.
         11    1    4    4    0    0 -0.72689307493E-01 -0.38393224312E-01 -0.21031520181E-01  0.84854941276E-01  0.51100000000E-03 0.  1.
</event>
<event>
 8    1  0.2190295E+004  0.1043930E+01  0.7957747E-01            NaN
         13   -1    0    0    0    0  0.00000000000E+00  0.00000000000E+00  0.74505805969E-08  0.10566000000E+00  0.10566000000E+00 0.  1.
     999900   -1    0    0    0    0 -0.00000000000E+00 -0.00000000000E+00 -0.74505805969E-08  0.93827000000E+00  0.93827000000E+00 0. -1.
     999902    2    1    2    0    0  0.53963154734E-02 -0.11603356042E-01  0.72849800424E-02  0.10292048845E+01  0.10290995410E+01 0.  0.
     999903    2    3    3    0    0  0.13120851656E-01 -0.81836520858E-02  0.13206520649E+00  0.14036211565E+00  0.44957489201E-01 0.  0.
         14    1    1    2    0    0 -0.53963154734E-02  0.11603356042E-01 -0.72849800424E-02  0.14725115495E-01  0.00000000000E+00 0. -1.
     999901    1    3    3    0    0 -0.77245361827E-02 -0.34197039564E-02 -0.12478022645E+00  0.88884276886E+00  0.88000000000E+00 0. -1.
        -11    1    4    4    0    0  0.28985014829E-01  0.95163851486E-03  0.74182386220E-01  0.79651266448E-01  0.51100000000E-03 0.  1.
         11    1    4    4    0    0 -0.15864163173E-01 -0.91352906007E-02  0.57882820269E-01  0.60710849202E-01  0.51100000000E-03 0. -1.
</event>
<event>
 8    1  0.2190295E+004  0.1043930E+01  0.7957747E-01            NaN
         13   -1    0    0    0    0  0.00000000000E+00  0.00000000000E+00  0.74505805969E-08  0.10566000000E+00  0.10566000000E+00 0.  1.
     999900   -1    0    0    0    0 -0.00000000000E+00 -0.00000000000E+00 -0.74505805969E-08  0.93827000000E+00  0.93827000000E+00 0. -1.
     999902    2    1    2    0    0  0.34982757414E-02 -0.11011699043E-01 -0.67963251736E-02  0.10305253185E+01  0.10304381334E+01 0.  0.
     999903    2    3    3    0    0 -0.97898634621E-01 -0.66900298138E-01 -0.62046932137E-01  0.14122362704E+00  0.45105415377E-01 0.  0.
         14    1    1    2    0    0 -0.34982757414E-02  0.11011699043E-01  0.67963251736E-02  0.13404681453E-01  0.00000000000E+00 0.  1.
     999901    1    3    3    0    0  0.10139691036E+00  0.55888599095E-01  0.55250606963E-01  0.88930169150E+00  0.88000000000E+00 0. -1.
        -11    1    4    4    0    0 -0.66384773045E-01 -0.29975210250E-01 -0.16566288682E-01  0.74700430812E-01  0.51100000000E-03 0. -1.
         11    1    4    4    0    0 -0.31513861576E-01 -0.36925087888E-01 -0.45480643454E-01  0.66523196233E-01  0.51100000000E-03 0.  1.
</event>
<event>
 8    1  0.2190295E+004  0.1043930E+01  0.7957747E-01            NaN
         13   -1    0    0    0    0  0.00000000000E+00  0.00000000000E+00  0.74505805969E-08  0.10566000000E+00  0.10566000000E+00 0.  1.
     999900   -1    0    0    0    0 -0.00000000000E+00 -0.00000000000E+00 -0.74505805969E-08  0.93827000000E+00  0.93827000000E+00 0. -1.
     999902    2    1    2    0    0  0.59886412393E-02 -0.48228894238E-02  0.10909741782E-01  0.10305828448E+01  0.10304964112E+01 0.  0.
     999903    2    3    3    0    0  0.11939204641E+00  0.28744617990E-02  0.62156334238E-01  0.14179389642E+00  0.44490177556E-01 0.  0.
         14    1    1    2    0    0 -0.59886412393E-02  0.48228894238E-02 -0.10909741782E-01  0.13347155204E-01  0.00000000000E+00 0. -1.
     999901    1    3    3    0    0 -0.11340340517E+00 -0.76973512227E-02 -0.51246592456E-01  0.88878894838E+00  0.88000000000E+00 0.  1.
        -11    1    4    4    0    0  0.29423666336E-01  0.20147583310E-01  0.14189700763E-01  0.38383407648E-01  0.51100000000E-03 0.  1.
         11    1    4    4    0    0  0.89968380074E-01 -0.17273121511E-01  0.47966633475E-01  0.10341048877E+00  0.51100000000E-03 0. -1.
</event>
<event>
 8    1  0.2190295E+004  0.1043930E+01  0.7957747E-01            NaN
         13   -1    0    0    0    0  0.00000000000E+00  0.00000000000E+00  0.74505805969E-08  0.10566000000E+00  0.10566000000E+00 0.  1.
     999900   -1    0    0    0    0 -0.00000000000E+00 -0.00000000000E+00 -0.74505805969E-08  0.93827000000E+00  0.93827000000E+00 0. -1.
     999902    2    1    2    0    0 -0.16908417748E-02 -0.39512357256E-02  0.13883613735E-01  0.10293963859E+01  0.10292937838E+01 0.  0.
     999903    2    3    3    0    0  0.77045824637E-01 -0.10404187974E+00 -0.23743634266E-01  0.13943379707E+00  0.46013604101E-01 0.  0.
         14    1    1    2    0    0  0.16908417748E-02  0.39512357256E-02 -0.13883613735E-01  0.14533614141E-01  0.00000000000E+00 0. -1.
     999901    1    3    3    0    0 -0.78736666412E-01  0.10009064401E+00  0.37627248001E-01  0.88996258879E+00  0.88000000000E+00 0. -1.
        -11    1    4    4    0    0  0.13384884392E-01 -0.62455329559E-02 -0.17029701786E-01  0.22548473917E-01  0.51100000000E-03 0.  1.
         11    1    4    4    0    0  0.63660940246E-01 -0.97796346785E-01 -0.67139324795E-02  0.11688532315E+00  0.51100000000E-03 0. -1.
</event>
<event>
 8    1  0.2190295E+004  0.1043930E+01  0.7957747E-01            NaN
         13   -1    0    0    0    0  0.00000000000E+00  0.00000000000E+00  0.74505805969E-08  0.10566000000E+00  0.10566000000E+00 0. -1.
     999900   -1    0    0    0    0 -0.00000000000E+00 -0.00000000000E+00 -0.74505805969E-08  0.93827000000E+00  0.93827000000E+00 0.  1.
     999902    2    1    2    0    0 -0.10146694202E-01 -0.10701988542E-01 -0.18154326694E-02  0.10290712060E+01  0.10289639271E+01 0.  0.
     999903    2    3    3    0    0 -0.10091198521E+00 -0.89557569740E-01  0.80000514874E-04  0.14089322084E+00  0.40584556445E-01 0.  0.
         14    1    1    2    0    0  0.10146694202E-01  0.10701988542E-01  0.18154326694E-02  0.14858793954E-01  0.00000000000E+00 0. -1.
     999901    1    3    3    0    0  0.90765291008E-01  0.78855581197E-01 -0.18954331843E-02  0.88817798521E+00  0.88000000000E+00 0.  1.
        -11    1    4    4    0    0 -0.47901684233E-01 -0.62132279140E-01  0.13775046647E-01  0.79655536497E-01  0.51100000000E-03 0. -1.
         11    1    4    4    0    0 -0.53010300977E-01 -0.27425290600E-01 -0.13695046132E-01  0.61237684343E-01  0.51100000000E-03 0.  1.
</event>
<event>
 7    1  0.2726439E+004  0.1043930E+01  0.7957747E-01            NaN
         13   -1    0    0    0    0  0.00000000000E+00  0.00000000000E+00  0.74505805969E-08  0.10566000000E+00  0.10566000000E+00 0.  1.
     999900   -1    0    0    0    0 -0.00000000000E+00 -0.00000000000E+00 -0.74505805969E-08  0.93827000000E+00  0.93827000000E+00 0.  1.
     999903    2    1    2    0    0 -0.83105930555E-02 -0.83254352486E-01 -0.34165492629E-02  0.95013429716E-01  0.44894608281E-01 0.  0.
         14    1    1    2    0    0 -0.58517190348E-01  0.25942535213E-01 -0.75661743514E-02  0.64455594744E-01  0.00000000000E+00 0.  1.
     999901    1    1    2    0    0  0.66827783404E-01  0.57311817274E-01  0.10982723614E-01  0.88446097554E+00  0.88000000000E+00 0. -1.
        -11    1    3    3    0    0  0.91203545066E-02 -0.73646721612E-01 -0.78212866588E-02  0.74622075262E-01  0.51100000000E-03 0. -1.
         11    1    3    3    0    0 -0.17430947562E-01 -0.96076308748E-02  0.44047373959E-02  0.20391354454E-01  0.51100000000E-03 0.  1.
</event>
<event>
 8    1  0.2190295E+004  0.1043930E+01  0.7957747E-01            NaN
         13   -1    0    0    0    0  0.00000000000E+00  0.00000000000E+00  0.74505805969E-08  0.10566000000E+00  0.10566000000E+00 0. -1.
     999900   -1    0    0    0    0 -0.00000000000E+00 -0.00000000000E+00 -0.74505805969E-08  0.93827000000E+00  0.93827000000E+00 0. -1.
     999902    2    1    2    0    0  0.25341690328E-02  0.12204672092E-01  0.57180982653E-02  0.10302160406E+01  0.10301247583E+01 0.  0.
     999903    2    3    3    0    0 -0.70499815798E-01 -0.39274369558E-02  0.11276508615E+00  0.14057944882E+00  0.45397885280E-01 0.  0.
         14    1    1    2    0    0 -0.25341690328E-02 -0.12204672092E-01 -0.57180982653E-02  0.13713959361E-01  0.00000000000E+00 0. -1.
     999901    1    3    3    0    0  0.73033984831E-01  0.16132109048E-01 -0.10704698789E+00  0.88963659182E+00  0.88000000000E+00 0. -1.
        -11    1    4    4    0    0 -0.56817520230E-01 -0.13164174150E-01  0.53813441752E-01  0.79357883795E-01  0.51100000000E-03 0.  1.
         11    1    4    4    0    0 -0.13682295568E-01  0.92367371945E-02  0.58951644401E-01  0.61221565029E-01  0.51100000000E-03 0. -1.
</event>
<event>
 8    1  0.2190295E+004  0.1043930E+01  0.7957747E-01            NaN
         13   -1    0    0    0    0  0.00000000000E+00  0.00000000000E+00  0.74505805969E-08  0.10566000000E+00  0.10566000000E+00 0. -1.
     999900   -1    0    0    0    0 -0.00000000000E+00 -0.00000000000E+00 -0.74505805969E-08  0.93827000000E+00  0.93827000000E+00 0. -1.
     999902    2    1    2    0    0 -0.70659763204E-02  0.49089033572E-02 -0.10827835775E-01  0.10301000549E+01  0.10300072115E+01 0.  0.
     999903    2    3    3    0    0 -0.10819918799E+00  0.48173751097E-01  0.61426181302E-01  0.14031332960E+00  0.43438233609E-01 0.  0.
         14    1    1    2    0    0  0.70659763204E-02 -0.49089033572E-02  0.10827835775E-01  0.13829945087E-01  0.00000000000E+00 0. -1.
     999901    1    3    3    0    0  0.10113321167E+00 -0.43264847740E-01 -0.72254017077E-01  0.88978672531E+00  0.88000000000E+00 0. -1.
        -11    1    4    4    0    0 -0.23903141827E-01 -0.14151418149E-02  0.28253793974E-01  0.37039179398E-01  0.51100000000E-03 0.  1.
         11    1    4    4    0    0 -0.84296046162E-01  0.49588892912E-01  0.33172387328E-01  0.10327415021E+00  0.51100000000E-03 0. -1.
</event>
<event>
 8    1  0.2190295E+004  0.1043930E+01  0.7957747E-01            NaN
         13   -1    0    0    0    0  0.00000000000E+00  0.00000000000E+00  0.74505805969E-08  0.10566000000E+00  0.10566000000E+00 0.  1.
     999900   -1    0    0    0    0 -0.00000000000E+00 -0.00000000000E+00 -0.74505805969E-08  0.93827000000E+00  0.93827000000E+00 0.  1.
     999902    2    1    2    0    0  0.10341444971E-01  0.74957198206E-04 -0.89231300642E-02  0.10302708143E+01  0.10301802646E+01 0.  0.
     999903    2    3    3    0    0  0.13097921221E+00 -0.11179777936E-01 -0.28514567608E-01  0.14175296738E+00  0.44724509267E-01 0.  0.
         14    1    1    2    0    0 -0.10341444971E-01 -0.74957198206E-04  0.89231300642E-02  0.13659185657E-01  0.00000000000E+00 0.  1.
     999901    1    3    3    0    0 -0.12063776724E+00  0.11254735134E-01  0.19591437544E-01  0.88851784696E+00  0.88000000000E+00 0. -1.
        -11    1    4    4    0    0  0.16356194615E-01 -0.73918611541E-02  0.10269958183E-01  0.20685692536E-01  0.51100000000E-03 0. -1.
         11    1    4    4    0    0  0.11462301760E+00 -0.37879167816E-02 -0.38784525791E-01  0.12106727484E+00  0.51100000000E-03 0.  1.
</event>
<event>
 8    1  0.2190295E+004  0.1043930E+01  0.7957747E-01            NaN
         13   -1    0    0    0    0  0.00000000000E+00  0.00000000000E+00  0.74505805969E-08  0.10566000000E+00  0.10566000000E+00 0.  1.
     999900   -1    0    0    0    0 -0.00000000000E+00 -0.00000000000E+00 -0.74505805969E-08  0.93827000000E+00  0.93827000000E+00 0.  1.
     999902    2    1    2    0    0  0.11051243257E-01 -0.64099355550E-02  0.50669914454E-02  0.10301862140E+01  0.10300945315E+01 0.  0.
     999903    2    3    3    0    0 -0.74024023436E-01 -0.11255766706E+00 -0.10268278525E-01  0.13960196059E+00  0.35135244372E-01 0.  0.
         14    1    1    2    0    0 -0.11051243257E-01  0.64099355550E-02 -0.50669914454E-02  0.13743786001E-01  0.00000000000E+00 0. -1.
     999901    1    3    3    0    0  0.85075266693E-01  0.10614773151E+00  0.15335269971E-01  0.89058425340E+00  0.88000000000E+00 0.  1.
        -11    1    4    4    0    0 -0.30976069714E-02 -0.14155069042E-01 -0.11161943850E-01  0.18297848508E-01  0.51100000000E-03 0.  1.
         11    1    4    4    0    0 -0.70926416465E-01 -0.98402598023E-01  0.89366532441E-03  0.12130411209E+00  0.51100000000E-03 0. -1.
</event>
<event>
 8    1  0.2190295E+004  0.1043930E+01  0.7957747E-01            NaN
         13   -1    0    0    0    0  0.00000000000E+00  0.00000000000E+00  0.74505805969E-08  0.10566000000E+00  0.10566000000E+00 0. -1.
     999900   -1    0    0    0    0 -0.00000000000E+00 -0.00000000000E+00 -0.74505805969E-08  0.93827000000E+00  0.93827000000E+00 0. -1.
     999902    2    1    2    0    0 -0.89472445269E-02  0.99586751604E-02 -0.49159178474E-02  0.10296683506E+01  0.10295695788E+01 0.  0.
     999903    2    3    3    0    0  0.77988485739E-01  0.35374941617E-01  0.99859009441E-01  0.13883638373E+00  0.44386138353E-01 0.  0.
         14    1    1    2    0    0  0.89472445269E-02 -0.99586751604E-02  0.49159178474E-02  0.14261649409E-01  0.00000000000E+00 0. -1.
     999901    1    3    3    0    0 -0.86935730266E-01 -0.25416266456E-01 -0.10477492729E+00  0.89083196686E+00  0.88000000000E+00 0. -1.
        -11    1    4    4    0    0  0.25190007096E-01  0.13590876354E-01  0.67192998443E-01  0.73037035388E-01  0.51100000000E-03 0.  1.
         11    1    4    4    0    0  0.52798478643E-01  0.21784065262E-01  0.32666010998E-01  0.65799348340E-01  0.51100000000E-03 0. -1.
</event>
<event>
 8    1  0.2190295E+004  0.1043930E+01  0.7957747E-01            NaN
         13   -1    0    0    0    0  0.00000000000E+00  0.00000000000E+00  0.74505805969E-08  0.10566000000E+00  0.10566000000E+00 0.  1.
     999900   -1    0    0    0    0 -0.00000000000E+00 -0.00000000000E+00 -0.74505805969E-08  0.93827000000E+00  0.93827000000E+00 0.  1.
     999902    2    1    2    0    0 -0.11104671649E-01  0.57060687561E-02 -0.52555897617E-02  0.10303839978E+01  0.10302949523E+01 0.  0.
     999903    2    3    3    0    0  0.11009800922E+00  0.72198993386E-01 -0.65163640193E-02  0.13959053773E+00  0.45921552057E-01 0.  0.
         14    1    1    2    0    0  0.11104671649E-01 -0.57060687561E-02  0.52555897617E-02  0.13546002245E-01  0.00000000000E+00 0.  1.
     999901    1    3    3    0    0 -0.12120268087E+00 -0.66492924630E-01  0.12607742576E-02  0.89079346003E+00  0.88000000000E+00 0.  1.
        -11    1    4    4    0    0  0.86122959054E-01  0.70710511755E-01  0.76549029834E-02  0.11169601250E+00  0.51100000000E-03 0. -1.
         11    1    4    4    0    0  0.23975050165E-01  0.14884816312E-02 -0.14171267003E-01  0.27894525223E-01  0.51100000000E-03 0.  1.
</event>
<event>
 8    1  0.2190295E+004  0.1043930E+01  0.7957747E-01            NaN
         13   -1    0    0    0    0  0.00000000000E+00  0.00000000000E+00  0.74505805969E-08  0.10566000000E+00  0.10566000000E+00 0.  1.
     999900   -1    0    0    0    0 -0.00000000000E+00 -0.00000000000E+00 -0.74505805969E-08  0.93827000000E+00  0.93827000000E+00 0.  1.
     999902    2    1    2    0    0 -0.11120453765E-01  0.56694775224E-02 -0.93531735554E-02  0.10283322655E+01  0.10282139655E+01 0.  0.
     999903    2    3    3    0    0 -0.24412248504E-01 -0.12556225742E+00  0.26132214647E-01  0.13779442076E+00  0.44074611574E-01 0.  0.
         14    1    1    2    0    0  0.11120453765E-01 -0.56694775224E-02  0.93531735554E-02  0.15597734543E-01  0.00000000000E+00 0.  1.
     999901    1    3    3    0    0  0.13291794740E-01  0.13123173494E+00 -0.35485388202E-01  0.89053784470E+00  0.88000000000E+00 0. -1.
        -11    1    4    4    0    0 -0.16033559662E-01 -0.10146897959E+00  0.21092747800E-02  0.10275085896E+00  0.51100000000E-03 0. -1.
         11    1    4    4    0    0 -0.83786888427E-02 -0.24093277823E-01  0.24022939867E-01  0.35043561803E-01  0.51100000000E-03 0.  1.
</event>
<event>
 8    1  0.2190295E+004  0.1043930E+01  0.7957747E-01            NaN
         13   -1    0    0    0    0  0.00000000000E+00  0.00000000000E+00  0.74505805969E-08  0.10566000000E+00  0.10566000000E+00 0.  1.
     999900   -1    0    0    0    0 -0.00000000000E+00 -0.00000000000E+00 -0.74505805969E-08  0.93827000000E+00  0.93827000000E+00 0. -1.
     999902    2    1    2    0    0 -0.14210700023E-02 -0.77349394859E-02  0.12534706759E-01  0.10291324461E+01  0.10290260560E+01 0.  0.
     999903    2    3    3    0    0 -0.86517050065E-01  0.84288452502E-01 -0.50464299264E-01  0.13802161949E+00  0.43744471285E-01 0.  0.
         14    1    1    2    0    0  0.14210700023E-02  0.77349394859E-02 -0.12534706759E-01  0.14797553931E-01  0.00000000000E+00 0. -1.
     999901    1    3    3    0    0  0.85095980063E-01 -0.92023391988E-01  0.62999006023E-01  0.89111082658E+00  0.88000000000E+00 0. -1.
        -11    1    4    4    0    0 -0.19704378052E-01  0.41952628261E-01 -0.45796627159E-02  0.46578106058E-01  0.51100000000E-03 0. -1.
         11    1    4    4    0    0 -0.66812672013E-01  0.42335824241E-01 -0.45884636548E-01  0.91443513427E-01  0.51100000000E-03 0.  1.
</event>
<event>
 8    1  0.2190295E+004  0.1043930E+01  0.7957747E-01            NaN
         13   -1    0    0    0    0  0.00000000000E+00  0.00000000000E+00  0.74505805969E-08  0.10566000000E+00  0.10566000000E+00 0. -1.
     999900   -1    0    0    0    0 -0.00000000000E+00 -0.00000000000E+00 -0.74505805969E-08  0.93827000000E+00  0.93827000000E+00 0. -1.
     999902    2    1    2    0    0  0.15195772048E-02  0.28858352341E-02  0.12731912775E-01  0.10307869881E+01  0.10307031949E+01 0.  0.
     999903    2    3    3    0    0  0.80661183654E-02  0.10071279490E+00  0.89031260658E-01  0.14206061750E+00  0.45238527261E-01 0.  0.
         14    1    1    2    0    0 -0.15195772048E-02 -0.28858352341E-02 -0.12731912775E-01  0.13143011938E-01  0.00000000000E+00 0.  1.
     999901    1    3    3    0    0 -0.65465411606E-02 -0.97826959668E-01 -0.76299347882E-01  0.88872637056E+00  0.88000000000E+00 0. -1.
        -11    1    4    4    0    0  0.20636236226E-01  0.37373047152E-01  0.18793633424E-01  0.46648265533E-01  0.51100000000E-03 0.  1.
         11    1    4    4    0    0 -0.12570117860E-01  0.63339747750E-01  0.70237627234E-01  0.95412351971E-01  0.51100000000E-03 0. -1.
</event>
<event>
 8    1  0.2190295E+004  0.1043930E+01  0.7957747E-01            NaN
         13   -1    0    0    0    0  0.00000000000E+00  0.00000000000E+00  0.74505805969E-08  0.10566000000E+00  0.10566000000E+00 0. -1.
     999900   -1    0    0    0    0 -0.00000000000E+00 -0.00000000000E+00 -0.74505805969E-08  0.93827000000E+00  0.93827000000E+00 0.  1.
     999902    2    1    2    0    0 -0.73682777291E-02 -0.57953885817E-03 -0.12249182157E-01  0.10296237131E+01  0.10295243177E+01 0.  0.
     999903    2    3    3    0    0  0.11276570139E+00  0.20045721456E-01  0.63209830923E-01  0.13802310913E+00  0.44010925570E-01 0.  0.
         14    1    1    2    0    0  0.73682777291E-02  0.57953885817E-03  0.12249182157E-01  0.14306286922E-01  0.00000000000E+00 0. -1.
     999901    1    3    3    0    0 -0.12013397912E+00 -0.20625260314E-01 -0.75459013080E-01  0.89160060395E+00  0.88000000000E+00 0.  1.
        -11    1    4    4    0    0  0.76473689310E-01  0.75728761933E-02  0.18394725141E-01  0.79020254648E-01  0.51100000000E-03 0. -1.
         11    1    4    4    0    0  0.36292012084E-01  0.12472845262E-01  0.44815105782E-01  0.59002854484E-01  0.51100000000E-03 0.  1.
</event>
<event>
 8    1  0.2190295E+004  0.1043930E+01  0.7957747E-01            NaN
         13   -1    0    0    0    0  0.00000000000E+00  0.00000000000E+00  0.74505805969E-08  0.10566000000E+00  0.10566000000E+00 0.  1.
     999900   -1    0    0    0    0 -0.00000000000E+00 -0.00000000000E+00 -0.74505805969E-08  0.93827000000E+00  0.93827000000E+00 0.  1.
     999902    2    1    2    0    0 -0.20487483587E-02  0.37351928366E-02  0.12842287290E-01  0.10303995389E+01  0.10303106989E+01 0.  0.
     999903    2    3    3    0    0  0.91965622953E-01 -0.85194981003E-01 -0.40611061941E-01  0.13933021589E+00  0.45252514998E-01 0.  0.
         14    1    1    2    0    0  0.20487483587E-02 -0.37351928366E-02 -0.12842287290E-01  0.13530461123E-01  0.00000000000E+00 0. -1.
     999901    1    3    3    0    0 -0.94014371311E-01  0.88930173840E-01  0.53453349231E-01  0.89106932299E+00  0.88000000000E+00 0. -1.
        -11    1    4    4    0    0  0.20702872287E-01 -0.48392740021E-01 -0.21630117937E-01  0.56908605067E-01  0.51100000000E-03 0. -1.
         11    1    4    4    0    0  0.71262750666E-01 -0.36802240981E-01 -0.18980944004E-01  0.82421610819E-01  0.51100000000E-03 0.  1.
</event>
<event>
 8    1  0.2190295E+004  0.1043930E+01  0.7957747E-01            NaN
         13   -1    0    0    0    0  0.00000000000E+00  0.00000000000E+00  0.74505805969E-08  0.10566000000E+00  0.10566000000E+00 0.  1.
     999900   -1    0    0    0    0 -0.00000000000E+00 -0.00000000000E+00 -0.74505805969E-08  0.93827000000E+00  0.93827000000E+00 0. -1.
     999902    2    1    2    0    0 -0.90271341395E-02  0.75324505785E-02  0.68758840279E-02  0.10303099874E+01  0.10302199597E+01 0.  0.
     999903    2    3    3    0    0 -0.20526003736E-01  0.88394563429E-01 -0.97694309126E-01  0.14036289312E+00  0.43848010852E-01 0.  0.
         14    1    1    2    0    0  0.90271341395E-02 -0.75324505785E-02 -0.68758840279E-02  0.13620012616E-01  0.00000000000E+00 0. -1.
     999901    1    3    3    0    0  0.11498869596E-01 -0.80862112850E-01  0.10457019315E+00  0.88994709427E+00  0.88000000000E+00 0.  1.
        -11    1    4    4    0    0 -0.26405773515E-01  0.25122096730E-01 -0.27385671222E-01  0.45591893230E-01  0.51100000000E-03 0. -1.
         11    1    4    4    0    0  0.58797697788E-02  0.63272466698E-01 -0.70308637905E-01  0.94770999888E-01  0.51100000000E-03 0.  1.
</event>
<event>
 8    1  0.2190295E+004  0.1043930E+01  0.7957747E-01            NaN
         13   -1    0    0    0    0  0.00000000000E+00  0.00000000000E+00  0.74505805969E-08  0.10566000000E+00  0.10566000000E+00 0.  1.
     999900   -1    0    0    0    0 -0.00000000000E+00 -0.00000000000E+00 -0.74505805969E-08  0.93827000000E+00  0.93827000000E+00 0.  1.
     999902    2    1    2    0    0 -0.62048141028E-02 -0.54421556986E-02 -0.10184606672E-01  0.10308211103E+01  0.10307377544E+01 0.  0.
     999903    2    3    3    0    0  0.10140865841E+00 -0.53789042326E-02 -0.87183802958E-01  0.14092811688E+00  0.44125616350E-01 0.  0.
         14    1    1    2    0    0  0.62048141028E-02  0.54421556986E-02  0.10184606672E-01  0.13108889723E-01  0.00000000000E+00 0.  1.
     999901    1    3    3    0    0 -0.10761347251E+00 -0.63251465941E-04  0.76999196286E-01  0.88989299340E+00  0.88000000000E+00 0.  1.
        -11    1    4    4    0    0  0.22547000781E-01 -0.11840435965E-01 -0.43850904428E-01  0.50712188952E-01  0.51100000000E-03 0. -1.
         11    1    4    4    0    0  0.78861657628E-01  0.64615317322E-02 -0.43332898529E-01  0.90215927929E-01  0.51100000000E-03 0.  1.
</event>
<event>
 8    1  0.2190295E+004  0.1043930E+01  0.7957747E-01            NaN
         13   -1    0    0    0    0  0.00000000000E+00  0.00000000000E+00  0.74505805969E-08  0.10566000000E+00  0.10566000000E+00 0.  1.
     999900   -1    0    0    0    0 -0.00000000000E+00 -0.00000000000E+00 -0.74505805969E-08  0.93827000000E+00  0.93827000000E+00 0. -1.
     999902    2    1    2    0    0 -0.71977175315E-02 -0.23656515417E-02  0.11363157057E-01  0.10302725924E+01  0.10301820663E+01 0.  0.
     999903    2    3    3    0    0  0.60210572675E-01 -0.10156598621E+00  0.61924540788E-01  0.14069907798E+00  0.44951297822E-01 0.  0.
         14    1    1    2    0    0  0.71977175315E-02  0.23656515417E-02 -0.11363157057E-01  0.13657407630E-01  0.00000000000E+00 0. -1.
     999901    1    3    3    0    0 -0.67408290206E-01  0.99200334664E-01 -0.50561383731E-01  0.88957351439E+00  0.88000000000E+00 0. -1.
        -11    1    4    4    0    0  0.50916112229E-02 -0.50027287328E-01  0.31466435423E-01  0.59321595237E-01  0.51100000000E-03 0. -1.
         11    1    4    4    0    0  0.55118961452E-01 -0.51538698877E-01  0.30458105365E-01  0.81377482739E-01  0.51100000000E-03 0.  1.
</event>
<event>
 8    1  0.2190295E+004  0.1043930E+01  0.7957747E-01            NaN
         13   -1    0    0    0    0  0.00000000000E+00  0.00000000000E+00  0.74505805969E-08  0.10566000000E+00  0.10566000000E+00 0. -1.
     999900   -1    0    0    0    0 -0.00000000000E+00 -0.00000000000E+00 -0.74505805969E-08  0.93827000000E+00  0.93827000000E+00 0.  1.
     999902    2    1    2    0    0  0.13218598681E-01  0.69719920346E-03 -0.20836564385E-02  0.10305300350E+01  0.10304429116E+01 0.  0.
     999903    2    3    3    0    0 -0.91501253753E-01 -0.77281812412E-01  0.45250906781E-01  0.13963860805E+00  0.55734534399E-01 0.  0.
         14    1    1    2    0    0 -0.13218598681E-01 -0.69719920346E-03  0.20836564385E-02  0.13399964999E-01  0.00000000000E+00 0. -1.
     999901    1    3    3    0    0  0.10471985243E+00  0.77979011615E-01 -0.47334563220E-01  0.89089142695E+00  0.88000000000E+00 0.  1.
        -11    1    4    4    0    0 -0.92469543580E-01 -0.50689396862E-01  0.34823688596E-01  0.11105395919E+00  0.51100000000E-03 0.  1.
         11    1    4    4    0    0  0.96828982741E-03 -0.26592415549E-01  0.10427218186E-01  0.28584648853E-01  0.51100000000E-03 0. -1.
</event>
<event>
 8    1  0.2190295E+004  0.1043930E+01  0.7957747E-01            NaN
         13   -1    0    0    0    0  0.00000000000E+00  0.00000000000E+00  0.74505805969E-08  0.10566000000E+00  0.10566000000E+00 0.  1.
     999900   -1    0    0    0    0 -0.00000000000E+00 -0.00000000000E+00 -0.74505805969E-08  0.93827000000E+00  0.93827000000E+00 0. -1.
     999902    2    1    2    0    0  0.87037226373E-02  0.95027558004E-02  0.64338213034E-02  0.10295268333E+01  0.10294260776E+01 0.  0.
     999903    2    3    3    0    0  0.11401093480E+00 -0.61641051704E-01 -0.26659064333E-01  0.13978181959E+00  0.45057062332E-01 0.  0.
         14    1    1    2    0    0 -0.87037226373E-02 -0.95027558004E-02 -0.64338213034E-02  0.14403166739E-01  0.00000000000E+00 0. -1.
     999901    1    3    3    0    0 -0.10530721216E+00  0.71143807505E-01  0.33092885636E-01  0.88974501368E+00  0.88000000000E+00 0.  1.
        -11    1    4    4    0    0  0.49132454641E-01 -0.52054442819E-01 -0.15788464083E-01  0.73302113444E-01  0.51100000000E-03 0. -1.
         11    1    4    4    0    0  0.64878480161E-01 -0.95866088855E-02 -0.10870600250E-01  0.66479706142E-01  0.51100000000E-03 0.  1.
</event>
<event>
 8    1  0.2190295E+004  0.1043930E+01  0.7957747E-01            NaN
         13   -1    0    0    0    0  0.00000000000E+00  0.00000000000E+00  0.74505805969E-08  0.10566000000E+00  0.10566000000E+00 0. -1.
     999900   -1    0    0    0    0 -0.00000000000E+00 -0.00000000000E+00 -0.74505805969E-08  0.93827000000E+00  0.93827000000E+00 0.  1.
     999902    2    1    2    0    0  0.17682622807E-02  0.13524533742E-01  0.23320276988E-02  0.10300924382E+01  0.10299994918E+01 0.  0.
     999903    2    3    3    0    0 -0.90313463868E-01  0.74057148782E-01  0.64870709919E-01  0.14101745339E+00  0.45130146391E-01 0.  0.
         14    1    1    2    0    0 -0.17682622807E-02 -0.13524533742E-01 -0.23320276988E-02  0.13837561838E-01  0.00000000000E+00 0. -1.
     999901    1    3    3    0    0  0.92081726149E-01 -0.60532615040E-01 -0.62538682220E-01  0.88907498477E+00  0.88000000000E+00 0. -1.
        -11    1    4    4    0    0 -0.17170397459E-01 -0.36768821502E-02  0.15449799206E-01  0.23394431555E-01  0.51100000000E-03 0. -1.
         11    1    4    4    0    0 -0.73143066409E-01  0.77734030933E-01  0.49420910713E-01  0.11762302183E+00  0.51100000000E-03 0.  1.
</event>
<event>
 8    1  0.2190295E+004  0.1043930E+01  0.7957747E-01            NaN
         13   -1    0    0    0    0  0.00000000000E+00  0.00000000000E+00  0.74505805969E-08  0.10566000000E+00  0.10566000000E+00 0.  1.
     999900   -1    0    0    0    0 -0.00000000000E+00 -0.00000000000E+00 -0.74505805969E-08  0.93827000000E+00  0.93827000000E+00 0.  1.
     999902    2    1    2    0    0  0.94638623715E-02  0.71787593331E-02 -0.59230731032E-02  0.10306566405E+01  0.10305711662E+01 0.  0.
     999903    2    3    3    0    0 -0.34412098198E-01  0.12768448662E+00 -0.16301669723E-01  0.14130044334E+00  0.47037753201E-01 0.  0.
         14    1    1    2    0    0 -0.94638623715E-02 -0.71787593331E-02  0.59230731032E-02  0.13273359467E-01  0.00000000000E+00 0.  1.
     999901    1    3    3    0    0  0.43875960570E-01 -0.12050572728E+00  0.10378596620E-01  0.88935619720E+00  0.88000000000E+00 0.  1.
        -11    1    4    4    0    0 -0.40364876372E-01  0.11118303410E+00 -0.14242073454E-02  0.11829319424E+00  0.51100000000E-03 0. -1.
         11    1    4    4    0    0  0.59527781737E-02  0.16501452520E-01 -0.14877462378E-01  0.23007249098E-01  0.51100000000E-03 0.  1.
</event>
<event>
 8    1  0.2190295E+004  0.1043930E+01  0.7957747E-01            NaN
         13   -1    0    0    0    0  0.00000000000E+00  0.00000000000E+00  0.74505805969E-08  0.10566000000E+00  0.10566000000E+00 0.  1.
     999900   -1    0    0    0    0 -0.00000000000E+00 -0.00000000000E+00 -0.74505805969E-08  0.93827000000E+00  0.93827000000E+00 0.  1.
     999902    2    1    2    0    0  0.58672533568E-02  0.72677442806E-02 -0.73373326440E-02  0.10320522385E+01  0.10319838864E+01 0.  0.
     999903    2    3    3    0    0 -0.10945638047E+00 -0.35201265684E-02 -0.77468410525E-01  0.14169596889E+00  0.45643208178E-01 0.  0.
         14    1    1    2    0    0 -0.58672533568E-02 -0.72677442806E-02  0.73373326440E-02  0.11877761540E-01  0.00000000000E+00 0.  1.
     999901    1    3    3    0    0  0.11532363383E+00  0.10787870849E-01  0.70131077881E-01  0.89035626957E+00  0.88000000000E+00 0. -1.
        -11    1    4    4    0    0 -0.64662161253E-01 -0.24064610864E-01 -0.50616469824E-01  0.85572125907E-01  0.51100000000E-03 0. -1.
         11    1    4    4    0    0 -0.44794219222E-01  0.20544484296E-01 -0.26851940701E-01  0.56123842982E-01  0.51100000000E-03 0.  1.
</event>
<event>
 8    1  0.2190295E+004  0.1043930E+01  0.7957747E-01            NaN
         13   -1    0    0    0    0  0.00000000000E+00  0.00000000000E+00  0.74505805969E-08  0.10566000000E+00  0.10566000000E+00 0. -1.
     999900   -1    0    0    0    0 -0.00000000000E+00 -0.00000000000E+00 -0.74505805969E-08  0.93827000000E+00  0.93827000000E+00 0.  1.
     999902    2    1    2    0    0  0.54015042224E-02  0.46616261968E-02  0.12060059552E-01  0.10299174327E+01  0.10298221041E+01 0.  0.
     999903    2    3    3    0    0 -0.37738912908E-01  0.95052712039E-01  0.87106100490E-01  0.14106224073E+00  0.43033003649E-01 0.  0.
         14    1    1    2    0    0 -0.54015042224E-02 -0.46616261968E-02 -0.12060059552E-01  0.14012567325E-01  0.00000000000E+00 0.  1.
     999901    1    3    3    0    0  0.43140417130E-01 -0.90391085842E-01 -0.75046040939E-01  0.88885519195E+00  0.88000000000E+00 0.  1.
        -11    1    4    4    0    0  0.52321938633E-02  0.26129887552E-01  0.83604321155E-02  0.27933936749E-01  0.51100000000E-03 0. -1.
         11    1    4    4    0    0 -0.42971106771E-01  0.68922824487E-01  0.78745668375E-01  0.11312830398E+00  0.51100000000E-03 0.  1.
</event>
<event>
 8    1  0.2190295E+004  0.1043930E+01  0.7957747E-01            NaN
         13   -1    0    0    0    0  0.00000000000E+00  0.00000000000E+00  0.74505805969E-08  0.10566000000E+00  0.10566000000E+00 0.  1.
     999900   -1    0    0    0    0 -0.00000000000E+00 -0.00000000000E+00 -0.74505805969E-08  0.93827000000E+00  0.93827000000E+00 0.  1.
     999902    2    1    2    0    0  0.37019513471E-02 -0.13032211943E-01  0.10102001233E-01  0.10270304905E+01  0.10268914427E+01 0.  0.
     999903    2    3    3    0    0  0.59363895851E-01  0.79289850539E-01  0.83989431918E-01  0.13737832944E+00  0.44806564226E-01 0.  0.
         14    1    1    2    0    0 -0.37019513471E-02  0.13032211943E-01 -0.10102001233E-01  0.16899509484E-01  0.00000000000E+00 0. -1.
     999901    1    3    3    0    0 -0.55661944504E-01 -0.92322062481E-01 -0.73887430685E-01  0.88965216107E+00  0.88000000000E+00 0.  1.
        -11    1    4    4    0    0  0.54176170079E-01  0.50638835702E-01  0.39007379197E-01  0.83792516602E-01  0.51100000000E-03 0. -1.
         11    1    4    4    0    0  0.51877257719E-02  0.28651014837E-01  0.44982052722E-01  0.53585812842E-01  0.51100000000E-03 0.  1.
</event>
<event>
 8    1  0.2190295E+004  0.1043930E+01  0.7957747E-01            NaN
         13   -1    0    0    0    0  0.00000000000E+00  0.00000000000E+00  0.74505805969E-08  0.10566000000E+00  0.10566000000E+00 0. -1.
     999900   -1    0    0    0    0 -0.00000000000E+00 -0.00000000000E+00 -0.74505805969E-08  0.93827000000E+00  0.93827000000E+00 0. -1.
     999902    2    1    2    0    0 -0.10414548606E-01  0.30747860354E-02 -0.91489283520E-02  0.10297307035E+01  0.10296327994E+01 0.  0.
     999903    2    3    3    0    0  0.49127988126E-01  0.11865654825E+00  0.75042153583E-02  0.14002188334E+00  0.55289048686E-01 0.  0.
         14    1    1    2    0    0  0.10414548606E-01 -0.30747860354E-02  0.91489283520E-02  0.14199296525E-01  0.00000000000E+00 0. -1.
     999901    1    3    3    0    0 -0.59542536732E-01 -0.11558176222E+00 -0.16653143710E-01  0.88970882014E+00  0.88000000000E+00 0.  1.
        -11    1    4    4    0    0  0.11473608201E-02  0.49351675600E-01 -0.17041679380E-01  0.52226279577E-01  0.51100000000E-03 0. -1.
         11    1    4    4    0    0  0.47980627306E-01  0.69304872651E-01  0.24545894738E-01  0.87795603759E-01  0.51100000000E-03 0.  1.
</event>
<event>
 8    1  0.2190295E+004  0.1043930E+01  0.7957747E-01            NaN
         13   -1    0    0    0    0  0.00000000000E+00  0.00000000000E+00  0.74505805969E-08  0.10566000000E+00  0.10566000000E+00 0.  1.
     999900   -1    0    0    0    0 -0.00000000000E+00 -0.00000000000E+00 -0.74505805969E-08  0.93827000000E+00  0.93827000000E+00 0.  1.
     999902    2    1    2    0    0  0.73809718652E-02 -0.23205358880E-02  0.95927966009E-02  0.10316058214E+01  0.10315322027E+01 0.  0.
     999903    2    3    3    0    0  0.18665781081E-01 -0.12707583583E+00 -0.38493983233E-01  0.14143529266E+00  0.45005286676E-01 0.  0.
         14    1    1    2    0    0 -0.73809718652E-02  0.23205358880E-02 -0.95927966009E-02  0.12324178638E-01  0.00000000000E+00 0. -1.
     999901    1    3    3    0    0 -0.11284809216E-01  0.12475529994E+00  0.48086779834E-01  0.89017052871E+00  0.88000000000E+00 0. -1.
        -11    1    4    4    0    0 -0.94104702940E-02 -0.58557698932E-01 -0.31229695071E-01  0.67030709609E-01  0.51100000000E-03 0. -1.
         11    1    4    4    0    0  0.28076251375E-01 -0.68518136896E-01 -0.72642881614E-02  0.74404583047E-01  0.51100000000E-03 0.  1.
</event>
<event>
 8    1  0.2190295E+004  0.1043930E+01  0.7957747E-01            NaN
         13   -1    0    0    0    0  0.00000000000E+00  0.00000000000E+00  0.74505805969E-08  0.10566000000E+00  0.10566000000E+00 0.  1.
     999900   -1    0    0    0    0 -0.00000000000E+00 -0.00000000000E+00 -0.74505805969E-08  0.93827000000E+00  0.93827000000E+00 0. -1.
     999902    2    1    2    0    0 -0.39681200522E-02  0.88349400312E-02  0.99643377879E-02  0.10300343111E+01  0.10299405769E+01 0.  0.
     999903    2    3    3    0    0 -0.44962576468E-01  0.10187166076E+00  0.75320281416E-01  0.14177321423E+00  0.45022560270E-01 0.  0.
         14    1    1    2    0    0  0.39681200522E-02 -0.88349400312E-02 -0.99643377879E-02  0.13895688887E-01  0.00000000000E+00 0. -1.
     999901    1    3    3    0    0  0.40994456416E-01 -0.93036720728E-01 -0.65355943628E-01  0.88826109688E+00  0.88000000000E+00 0.  1.
        -11    1    4    4    0    0 -0.19439496397E-01  0.85328401059E-01  0.43425720200E-01  0.97697923946E-01  0.51100000000E-03 0. -1.
         11    1    4    4    0    0 -0.25523080072E-01  0.16543259700E-01  0.31894561216E-01  0.44075290288E-01  0.51100000000E-03 0.  1.
</event>
<event>
 8    1  0.2190295E+004  0.1043930E+01  0.7957747E-01            NaN
         13   -1    0    0    0    0  0.00000000000E+00  0.00000000000E+00  0.74505805969E-08  0.10566000000E+00  0.10566000000E+00 0. -1.
     999900   -1    0    0    0    0 -0.00000000000E+00 -0.00000000000E+00 -0.74505805969E-08  0.93827000000E+00  0.93827000000E+00 0. -1.
     999902    2    1    2    0    0  0.11734063778E-01 -0.96694702815E-02  0.37505119059E-02  0.10282694365E+01  0.10281501743E+01 0.  0.
     999903    2    3    3    0    0  0.11838372430E+00 -0.50695687033E-01 -0.28268376670E-01  0.14030406009E+00  0.47972589005E-01 0.  0.
         14    1    1    2    0    0 -0.11734063778E-01  0.96694702815E-02 -0.37505119059E-02  0.15660563458E-01  0.00000000000E+00 0. -1.
     999901    1    3    3    0    0 -0.10664966052E+00  0.41026216751E-01  0.32018888576E-01  0.88796537645E+00  0.88000000000E+00 0. -1.
        -11    1    4    4    0    0  0.31963943097E-01 -0.34535814599E-01 -0.22590846108E-01  0.52201758565E-01  0.51100000000E-03 0.  1.
         11    1    4    4    0    0  0.86419781201E-01 -0.16159872434E-01 -0.56775305623E-02  0.88102301526E-01  0.51100000000E-03 0. -1.
</event>
<event>
 8    1  0.2190295E+004  0.1043930E+01  0.7957747E-01            NaN
         13   -1    0    0    0    0  0.00000000000E+00  0.00000000000E+00  0.74505805969E-08  0.10566000000E+00  0.10566000000E+00 0. -1.
     999900   -1    0    0    0    0 -0.00000000000E+00 -0.00000000000E+00 -0.74505805969E-08  0.93827000000E+00  0.93827000000E+00 0.  1.
     999902    2    1    2    0    0  0.63615925187E-02  0.21775081144E-02  0.11824267794E-01  0.10303276212E+01  0.10302378280E+01 0.  0.
     999903    2    3    3    0    0 -0.59934895923E-01 -0.11296389659E+00 -0.31638662290E-01  0.13929350636E+00  0.45261929718E-01 0.  0.
         14    1    1    2    0    0 -0.63615925187E-02 -0.21775081144E-02 -0.11824267794E-01  0.13602378830E-01  0.00000000000E+00 0.  1.
     999901    1    3    3    0    0  0.66296488442E-01  0.11514140470E+00  0.43462930084E-01  0.89103411481E+00  0.88000000000E+00 0. -1.
        -11    1    4    4    0    0 -0.11476270564E-01 -0.27768385808E-01  0.11539433687E-01  0.32190179982E-01  0.51100000000E-03 0. -1.
         11    1    4    4    0    0 -0.48458625359E-01 -0.85195510781E-01 -0.43178095977E-01  0.10710332638E+00  0.51100000000E-03 0.  1.
</event>
<event>
 8    1  0.2190295E+004  0.1043930E+01  0.7957747E-01            NaN
         13   -1    0    0    0    0  0.00000000000E+00  0.00000000000E+00  0.74505805969E-08  0.10566000000E+00  0.10566000000E+00 0.  1.
     999900   -1    0    0    0    0 -0.00000000000E+00 -0.00000000000E+00 -0.74505805969E-08  0.93827000000E+00  0.93827000000E+00 0.  1.
     999902    2    1    2    0    0 -0.63291366600E-02  0.10441982864E-01  0.26104621997E-02  0.10314437079E+01  0.10313681278E+01 0.  0.
     999903    2    3    3    0    0 -0.33715764980E-01  0.46762168790E-01  0.12192657800E+00  0.14222746942E+00  0.45156498962E-01 0.  0.
         14    1    1    2    0    0  0.63291366600E-02 -0.10441982864E-01 -0.26104621997E-02  0.12486292079E-01  0.00000000000E+00 0. -1.
     999901    1    3    3    0    0  0.27386628320E-01 -0.36320185926E-01 -0.11931611580E+00  0.88921623850E+00  0.88000000000E+00 0.  1.
        -11    1    4    4    0    0 -0.28244133328E-01  0.55625519649E-01  0.10929139249E+00  0.12584434472E+00  0.51100000000E-03 0.  1.
         11    1    4    4    0    0 -0.54716316516E-02 -0.88633508588E-02  0.12635185505E-01  0.16383124706E-01  0.51100000000E-03 0. -1.
</event>
<event>
 8    1  0.2190295E+004  0.1043930E+01  0.7957747E-01            NaN
         13   -1    0    0    0    0  0.00000000000E+00  0.00000000000E+00  0.74505805969E-08  0.10566000000E+00  0.10566000000E+00 0. -1.
     999900   -1    0    0    0    0 -0.00000000000E+00 -0.00000000000E+00 -0.74505805969E-08  0.93827000000E+00  0.93827000000E+00 0.  1.
     999902    2    1    2    0    0 -0.66146360660E-02  0.70288020473E-02  0.89441481732E-02  0.10307711530E+01  0.10306871565E+01 0.  0.
     999903    2    3    3    0    0 -0.77576241487E-01 -0.73047102629E-01  0.81575685296E-01  0.14132017617E+00  0.44304032721E-01 0.  0.
         14    1    1    2    0    0  0.66146360660E-02 -0.70288020473E-02 -0.89441481732E-02  0.13158847026E-01  0.00000000000E+00 0.  1.
     999901    1    3    3    0    0  0.70961605421E-01  0.80075904676E-01 -0.72631537123E-01  0.88945097680E+00  0.88000000000E+00 0.  1.
        -11    1    4    4    0    0 -0.43526454585E-01 -0.21680444860E-01  0.57117093943E-01  0.75014781740E-01  0.51100000000E-03 0. -1.
         11    1    4    4    0    0 -0.34049786902E-01 -0.51366657769E-01  0.24458591353E-01  0.66305394429E-01  0.51100000000E-03 0.  1.
</event>
<event>
 8    1  0.2190295E+004  0.1043930E+01  0.7957747E-01            NaN
         13   -1    0    0    0    0  0.00000000000E+00  0.00000000000E+00  0.74505805969E-08  0.10566000000E+00  0.10566000000E+00 0.  1.
     999900   -1    0    0    0    0 -0.00000000000E+00 -0.00000000000E+00 -0.74505805969E-08  0.93827000000E+00  0.93827000000E+00 0. -1.
     999902    2    1    2    0    0 -0.56766945335E-02 -0.12331211181E-01 -0.16003470945E-02  0.10302608837E+01  0.10301702013E+01 0.  0.
     999903    2    3    3    0    0 -0.65855294439E-01  0.14138407911E-01 -0.11397212032E+00  0.14068260155E+00  0.47593442687E-01 0.  0.
         14    1    1    2    0    0  0.56766945335E-02  0.12331211181E-01  0.16003470945E-02  0.13669116316E-01  0.00000000000E+00 0.  1.
     999901    1    3    3    0    0  0.60178599905E-01 -0.26469619093E-01  0.11237177322E+00  0.88957828213E+00  0.88000000000E+00 0.  1.
        -11    1    4    4    0    0 -0.26520215557E-01 -0.17581226129E-01 -0.47734164269E-01  0.57369267948E-01  0.51100000000E-03 0.  1.
         11    1    4    4    0    0 -0.39335078881E-01  0.31719634041E-01 -0.66237956047E-01  0.83313333606E-01  0.51100000000E-03 0. -1.
</event>
<event>
 8    1  0.2190295E+004  0.1043930E+01  0.7957747E-01            NaN
         13   -1    0    0    0    0  0.00000000000E+00  0.00000000000E+00  0.74505805969E-08  0.10566000000E+00  0.10566000000E+00 0. -1.
     999900   -1    0    0    0    0 -0.00000000000E+00 -0.00000000000E+00 -0.74505805969E-08  0.93827000000E+00  0.93827000000E+00 0. -1.
     999902    2    1    2    0    0 -0.55761370790E-02 -0.12403034808E-01 -0.30896909861E-02  0.10299845790E+01  0.10298901680E+01 0.  0.
     999903    2    3    3    0    0 -0.11286267292E+00 -0.63654449553E-01  0.28838453249E-01  0.14141465225E+00  0.48750134333E-01 0.  0.
         14    1    1    2    0    0  0.55761370790E-02  0.12403034808E-01  0.30896909861E-02  0.13945421025E-01  0.00000000000E+00 0. -1.
     999901    1    3    3    0    0  0.10728653584E+00  0.51251414745E-01 -0.31928144235E-01  0.88856992673E+00  0.88000000000E+00 0. -1.
        -11    1    4    4    0    0 -0.55626777668E-01 -0.50290334402E-01 -0.20410731041E-02  0.75019219060E-01  0.51100000000E-03 0. -1.
         11    1    4    4    0    0 -0.57235895256E-01 -0.13364115151E-01  0.30879526353E-01  0.66395433189E-01  0.51100000000E-03 0.  1.
</event>
<event>
 8    1  0.2190295E+004  0.1043930E+01  0.7957747E-01            NaN
         13   -1    0    0    0    0  0.00000000000E+00  0.00000000000E+00  0.74505805969E-08  0.10566000000E+00  0.10566000000E+00 0.  1.
     999900   -1    0    0    0    0 -0.00000000000E+00 -0.00000000000E+00 -0.74505805969E-08  0.93827000000E+00  0.93827000000E+00 0. -1.
     999902    2    1    2    0    0 -0.70745340655E-02  0.69167488124E-02 -0.84178597049E-02  0.10309395878E+01  0.10308577414E+01 0.  0.
     999903    2    3    3    0    0 -0.10920704748E-01  0.61458118155E-01  0.11624126183E+00  0.14047372628E+00  0.48212806854E-01 0.  0.
         14    1    1    2    0    0  0.70745340655E-02 -0.69167488124E-02  0.84178597049E-02  0.12990412172E-01  0.00000000000E+00 0.  1.
     999901    1    3    3    0    0  0.38461706823E-02 -0.54541369343E-01 -0.12465912153E+00  0.89046586155E+00  0.88000000000E+00 0. -1.
        -11    1    4    4    0    0 -0.20407360765E-01  0.33032644897E-01  0.29693205079E-01  0.48883162246E-01  0.51100000000E-03 0. -1.
         11    1    4    4    0    0  0.94866560174E-02  0.28425473258E-01  0.86548056749E-01  0.91590564035E-01  0.51100000000E-03 0.  1.
</event>
<event>
 8    1  0.2190295E+004  0.1043930E+01  0.7957747E-01            NaN
         13   -1    0    0    0    0  0.00000000000E+00  0.00000000000E+00  0.74505805969E-08  0.10566000000E+00  0.10566000000E+00 0.  1.
     999900   -1    0    0    0    0 -0.00000000000E+00 -0.00000000000E+00 -0.74505805969E-08  0.93827000000E+00  0.93827000000E+00 0.  1.
     999902    2    1    2    0    0  0.99090520833E-02 -0.69235434587E-02 -0.73606084177E-02  0.10297771443E+01  0.10296798841E+01 0.  0.
     999903    2    3    3    0    0  0.13152227703E+00 -0.20000747232E-01 -0.28235855525E-01  0.14107215072E+00  0.37495985438E-01 0.  0.
         14    1    1    2    0    0 -0.99090520833E-02  0.69235434587E-02  0.73606084177E-02  0.14152855666E-01  0.00000000000E+00 0.  1.
     999901    1    3    3    0    0 -0.12161322495E+00  0.13077203773E-01  0.20875247107E-01  0.88870499362E+00  0.88000000000E+00 0.  1.
        -11    1    4    4    0    0  0.11483142044E+00 -0.26375642923E-01 -0.33402989722E-01  0.12246611982E+00  0.51100000000E-03 0.  1.
         11    1    4    4    0    0  0.16690856592E-01  0.63748956915E-02  0.51671341969E-02  0.18606030895E-01  0.51100000000E-03 0. -1.
</event>
<event>
 8    1  0.2190295E+004  0.1043930E+01  0.7957747E-01            NaN
         13   -1    0    0    0    0  0.00000000000E+00  0.00000000000E+00  0.74505805969E-08  0.10566000000E+00  0.10566000000E+00 0. -1.
     999900   -1    0    0    0    0 -0.00000000000E+00 -0.00000000000E+00 -0.74505805969E-08  0.93827000000E+00  0.93827000000E+00 0. -1.
     999902    2    1    2    0    0 -0.28039733105E-02 -0.68675971741E-02  0.10284342950E-02  0.10364410859E+01  0.10364140296E+01 0.  0.
     999903    2    3    3    0    0 -0.37541229844E-01 -0.13167506145E+00  0.63500231176E-02  0.14694015873E+00  0.52947348455E-01 0.  0.
         14    1    1    2    0    0  0.28039733105E-02  0.68675971741E-02 -0.10284342950E-02  0.74889140983E-02  0.00000000000E+00 0. -1.
     999901    1    3    3    0    0  0.34737256534E-01  0.12480746427E+00 -0.53215888226E-02  0.88950092717E+00  0.88000000000E+00 0.  1.
        -11    1    4    4    0    0 -0.21751211634E-01 -0.27087597846E-01  0.20317256477E-01  0.40248045870E-01  0.51100000000E-03 0. -1.
         11    1    4    4    0    0 -0.15790018210E-01 -0.10458746360E+00 -0.13967233359E-01  0.10669211286E+00  0.51100000000E-03 0.  1.
</event>
<event>
 8    1  0.2190295E+004  0.1043930E+01  0.7957747E-01            NaN
         13   -1    0    0    0    0  0.00000000000E+00  0.00000000000E+00  0.74505805969E-08  0.10566000000E+00  0.10566000000E+00 0.  1.
     999900   -1    0    0    0    0 -0.00000000000E+00 -0.00000000000E+00 -0.74505805969E-08  0.93827000000E+00  0.93827000000E+00 0.  1.
     999902    2    1    2    0    0  0.70844340308E-02 -0.66387828533E-02  0.92133856301E-02  0.10305453402E+01  0.10304584170E+01 0.  0.
     999903    2    3    3    0    0  0.12628363949E+00  0.36108048621E-01  0.24558760783E-01  0.14134838635E+00  0.46096472933E-01 0.  0.
         14    1    1    2    0    0 -0.70844340308E-02  0.66387828533E-02 -0.92133856301E-02  0.13384659804E-01  0.00000000000E+00 0. -1.
     999901    1    3    3    0    0 -0.11919920545E+00 -0.42746831475E-01 -0.15345375153E-01  0.88919695384E+00  0.88000000000E+00 0.  1.
        -11    1    4    4    0    0  0.56112361830E-01 -0.74464121331E-02  0.97218006032E-02  0.57435361336E-01  0.51100000000E-03 0.  1.
         11    1    4    4    0    0  0.70171277655E-01  0.43554460754E-01  0.14836960180E-01  0.83913025018E-01  0.51100000000E-03 0. -1.
</event>
<event>
 8    1  0.2190295E+004  0.1043930E+01  0.7957747E-01            NaN
         13   -1    0    0    0    0  0.00000000000E+00  0.00000000000E+00  0.74505805969E-08  0.10566000000E+00  0.10566000000E+00 0.  1.
     999900   -1    0    0    0    0 -0.00000000000E+00 -0.00000000000E+00 -0.74505805969E-08  0.93827000000E+00  0.93827000000E+00 0.  1.
     999902    2    1    2    0    0  0.57650414086E-02 -0.37324190597E-02  0.12400577245E-01  0.10297546351E+01  0.10296570631E+01 0.  0.
     999903    2    3    3    0    0  0.12908900343E+00 -0.28172578063E-01 -0.13626819960E-01  0.14043829857E+00  0.45602198652E-01 0.  0.
         14    1    1    2    0    0 -0.57650414086E-02  0.37324190597E-02 -0.12400577245E-01  0.14175364915E-01  0.00000000000E+00 0. -1.
     999901    1    3    3    0    0 -0.12332396202E+00  0.24440159003E-01  0.26027397204E-01  0.88931633651E+00  0.88000000000E+00 0.  1.
        -11    1    4    4    0    0  0.90718173373E-01 -0.10030148264E-01  0.10067661841E-01  0.91825975575E-01  0.51100000000E-03 0. -1.
         11    1    4    4    0    0  0.38370830060E-01 -0.18142429798E-01 -0.23694481801E-01  0.48612322998E-01  0.51100000000E-03 0.  1.
</event>
<event>
 8    1  0.2190295E+004  0.1043930E+01  0.7957747E-01            NaN
         13   -1    0    0    0    0  0.00000000000E+00  0.00000000000E+00  0.74505805969E-08  0.10566000000E+00  0.10566000000E+00 0.  1.
     999900   -1    0    0    0    0 -0.00000000000E+00 -0.00000000000E+00 -0.74505805969E-08  0.93827000000E+00  0.93827000000E+00 0. -1.
     999902    2    1    2    0    0  0.78406725531E-02 -0.23706388831E-02 -0.10818530627E-01  0.10303603029E+01  0.10302709435E+01 0.  0.
     999903    2    3    3    0    0  0.11098343855E+00  0.70790563581E-01  0.21924312648E-01  0.14071819197E+00  0.44635261212E-01 0.  0.
         14    1    1    2    0    0 -0.78406725531E-02  0.23706388831E-02  0.10818530627E-01  0.13569697113E-01  0.00000000000E+00 0.  1.
     999901    1    3    3    0    0 -0.10314276600E+00 -0.73161202464E-01 -0.32742843275E-01  0.88964211091E+00  0.88000000000E+00 0. -1.
        -11    1    4    4    0    0  0.10413003841E+00  0.48069837103E-01  0.22924910435E-01  0.11695976564E+00  0.51100000000E-03 0.  1.
         11    1    4    4    0    0  0.68534001386E-02  0.22720726477E-01 -0.10005977875E-02  0.23758426338E-01  0.51100000000E-03 0. -1.
</event>
<event>
 8    1  0.2190295E+004  0.1043930E+01  0.7957747E-01            NaN
         13   -1    0    0    0    0  0.00000000000E+00  0.00000000000E+00  0.74505805969E-08  0.10566000000E+00  0.10566000000E+00 0. -1.
     999900   -1    0    0    0    0 -0.00000000000E+00 -0.00000000000E+00 -0.74505805969E-08  0.93827000000E+00  0.93827000000E+00 0.  1.
     999902    2    1    2    0    0 -0.12847669079E-01  0.52728742513E-02 -0.35104317437E-02  0.10296055826E+01  0.10295059333E+01 0.  0.
     999903    2    3    3    0    0  0.98159453406E-01  0.71527487624E-01  0.48739136198E-01  0.13862731550E+00  0.45722745193E-01 0.  0.
         14    1    1    2    0    0  0.12847669079E-01 -0.52728742513E-02  0.35104317437E-02  0.14324417428E-01  0.00000000000E+00 0. -1.
     999901    1    3    3    0    0 -0.11100712248E+00 -0.66254613372E-01 -0.52249567942E-01  0.89097826707E+00  0.88000000000E+00 0.  1.
        -11    1    4    4    0    0  0.41498833955E-01  0.42470126323E-02  0.13202764861E-01  0.43758021629E-01  0.51100000000E-03 0.  1.
         11    1    4    4    0    0  0.56660619451E-01  0.67280474991E-01  0.35536371337E-01  0.94869293875E-01  0.51100000000E-03 0. -1.
</event>
<event>
 8    1  0.2190295E+004  0.1043930E+01  0.7957747E-01            NaN
         13   -1    0    0    0    0  0.00000000000E+00  0.00000000000E+00  0.74505805969E-08  0.10566000000E+00  0.10566000000E+00 0. -1.
     999900   -1    0    0    0    0 -0.00000000000E+00 -0.00000000000E+00 -0.74505805969E-08  0.93827000000E+00  0.93827000000E+00 0.  1.
     999902    2    1    2    0    0  0.52732044690E-02  0.11688757570E-01 -0.40404749624E-02  0.10304853291E+01  0.10303976195E+01 0.  0.
     999903    2    3    3    0    0  0.48610645466E-01 -0.11108690652E+00  0.51536631020E-01  0.13917123616E+00  0.44825360957E-01 0.  0.
         14    1    1    2    0    0 -0.52732044690E-02 -0.11688757570E-01  0.40404749624E-02  0.13444670945E-01  0.00000000000E+00 0. -1.
     999901    1    3    3    0    0 -0.43337440997E-01  0.12277566409E+00 -0.55577105983E-01  0.89131409290E+00  0.88000000000E+00 0. -1.
        -11    1    4    4    0    0  0.19410596670E-01 -0.22154793641E-01 -0.49072941175E-02  0.29865511898E-01  0.51100000000E-03 0.  1.
         11    1    4    4    0    0  0.29200048797E-01 -0.88932112877E-01  0.56443925138E-01  0.10930572426E+00  0.51100000000E-03 0. -1.
</event>
<event>
 8    1  0.2190295E+004  0.1043930E+01  0.7957747E-01            NaN
         13   -1    0    0    0    0  0.00000000000E+00  0.00000000000E+00  0.74505805969E-08  0.10566000000E+00  0.10566000000E+00 0. -1.
     999900   -1    0    0    0    0 -0.00000000000E+00 -0.00000000000E+00 -0.74505805969E-08  0.93827000000E+00  0.93827000000E+00 0. -1.
     999902    2    1    2    0    0 -0.88696804794E-02  0.16971440134E-02  0.95254000025E-02  0.10308042705E+01  0.10307206990E+01 0.  0.
     999903    2    3    3    0    0  0.18246096758E-01  0.94460167168E-02 -0.13037551370E+00  0.13930689190E+00  0.44570037898E-01 0.  0.
         14    1    1    2    0    0  0.88696804794E-02 -0.16971440134E-02 -0.95254000025E-02  0.13125729497E-01  0.00000000000E+00 0.  1.
     999901    1    3    3    0    0 -0.27115777237E-01 -0.77488727034E-02  0.13990091371E+00  0.89149737860E+00  0.88000000000E+00 0.  1.
        -11    1    4    4    0    0 -0.40195923461E-03  0.12253798883E-01 -0.11298386851E+00  0.11364828561E+00  0.51100000000E-03 0. -1.
         11    1    4    4    0    0  0.18648055992E-01 -0.28077821660E-02 -0.17391645194E-01  0.25658606286E-01  0.51100000000E-03 0.  1.
</event>
<event>
 7    1  0.2190295E+004  0.1043930E+01  0.7957747E-01            NaN
         13   -1    0    0    0    0  0.00000000000E+00  0.00000000000E+00  0.74505805969E-08  0.10566000000E+00  0.10566000000E+00 0.  1.
     999900   -1    0    0    0    0 -0.00000000000E+00 -0.00000000000E+00 -0.74505805969E-08  0.93827000000E+00  0.93827000000E+00 0. -1.
     999902    2    1    2    0    0  0.13669397025E-01 -0.34389465534E-02 -0.57979056315E-02  0.10286887901E+01  0.10285758759E+01 0.  0.
         14    1    1    2    0    0 -0.13669397025E-01  0.34389465534E-02  0.57979056315E-02  0.15241209865E-01  0.00000000000E+00 0. -1.
     999901    1    3    3    0    0  0.83601367884E-01  0.15333102635E-01  0.96262196419E-01  0.88932036028E+00  0.88000000000E+00 0.  1.
        -11    1    3    3    0    0 -0.31089763927E-01 -0.67349394149E-02 -0.92182519257E-01  0.97518258842E-01  0.51100000000E-03 0.  1.
         11    1    3    3    0    0 -0.38842206932E-01 -0.12037109774E-01 -0.98775827932E-02  0.41850171014E-01  0.51100000000E-03 0. -1.
</event>
<event>
 8    1  0.2190295E+004  0.1043930E+01  0.7957747E-01            NaN
         13   -1    0    0    0    0  0.00000000000E+00  0.00000000000E+00  0.74505805969E-08  0.10566000000E+00  0.10566000000E+00 0.  1.
     999900   -1    0    0    0    0 -0.00000000000E+00 -0.00000000000E+00 -0.74505805969E-08  0.93827000000E+00  0.93827000000E+00 0.  1.
     999902    2    1    2    0    0  0.51560553201E-02 -0.68051952072E-02  0.10691334746E-01  0.10302478866E+01  0.10301570306E+01 0.  0.
     999903    2    3    3    0    0 -0.61549213709E-01 -0.95274155631E-01  0.70862312495E-01  0.14126144327E+00  0.45473702102E-01 0.  0.
         14    1    1    2    0    0 -0.51560553201E-02  0.68051952072E-02 -0.10691334746E-01  0.13682113394E-01  0.00000000000E+00 0.  1.
     999901    1    3    3    0    0  0.66705269029E-01  0.88468960423E-01 -0.60170977748E-01  0.88898644334E+00  0.88000000000E+00 0.  1.
        -11    1    4    4    0    0 -0.57376104133E-01 -0.85785002572E-01  0.43502447208E-01  0.11199914297E+00  0.51100000000E-03 0. -1.
         11    1    4    4    0    0 -0.41731095761E-02 -0.94891530584E-02  0.27359865286E-01  0.29262300299E-01  0.51100000000E-03 0.  1.
</event>
<event>
 8    1  0.2190295E+004  0.1043930E+01  0.7957747E-01            NaN
         13   -1    0    0    0    0  0.00000000000E+00  0.00000000000E+00  0.74505805969E-08  0.10566000000E+00  0.10566000000E+00 0.  1.
     999900   -1    0    0    0    0 -0.00000000000E+00 -0.00000000000E+00 -0.74505805969E-08  0.93827000000E+00  0.93827000000E+00 0. -1.
     999902    2    1    2    0    0  0.90899984379E-02  0.93843092229E-02 -0.75952918300E-02  0.10288176941E+01  0.10287066958E+01 0.  0.
     999903    2    3    3    0    0 -0.10119718387E+00 -0.28112858599E-01  0.77094260154E-01  0.13711055587E+00  0.42715064580E-01 0.  0.
         14    1    1    2    0    0 -0.90899984379E-02 -0.93843092229E-02  0.75952918300E-02  0.15112305885E-01  0.00000000000E+00 0.  1.
     999901    1    3    3    0    0  0.11028718230E+00  0.37497167821E-01 -0.84689551984E-01  0.89170713824E+00  0.88000000000E+00 0. -1.
        -11    1    4    4    0    0 -0.57309427276E-01  0.35996883623E-02  0.51838521224E-01  0.77361628827E-01  0.51100000000E-03 0. -1.
         11    1    4    4    0    0 -0.43887756591E-01 -0.31712546961E-01  0.25255738929E-01  0.59748927047E-01  0.51100000000E-03 0.  1.
</event>
<event>
 8    1  0.2190295E+004  0.1043930E+01  0.7957747E-01            NaN
         13   -1    0    0    0    0  0.00000000000E+00  0.00000000000E+00  0.74505805969E-08  0.10566000000E+00  0.10566000000E+00 0.  1.
     999900   -1    0    0    0    0 -0.00000000000E+00 -0.00000000000E+00 -0.74505805969E-08  0.93827000000E+00  0.93827000000E+00 0.  1.
     999902    2    1    2    0    0 -0.74213052825E-02  0.11727625474E-01  0.11820189457E-02  0.10300012477E+01  0.10299070638E+01 0.  0.
     999903    2    3    3    0    0 -0.77275822765E-01  0.27910256960E-01 -0.10621412730E+00  0.14057701632E+00  0.41592324416E-01 0.  0.
         14    1    1    2    0    0  0.74213052825E-02 -0.11727625474E-01 -0.11820189457E-02  0.13928752282E-01  0.00000000000E+00 0.  1.
     999901    1    3    3    0    0  0.69854517483E-01 -0.16182631487E-01  0.10739614625E+00  0.88942423140E+00  0.88000000000E+00 0. -1.
        -11    1    4    4    0    0 -0.53669488696E-01  0.15962638829E-01 -0.38714815946E-01  0.68075825004E-01  0.51100000000E-03 0. -1.
         11    1    4    4    0    0 -0.23606334069E-01  0.11947618132E-01 -0.67499311356E-01  0.72501191312E-01  0.51100000000E-03 0.  1.
</event>
<event>
 8    1  0.2190295E+004  0.1043930E+01  0.7957747E-01            NaN
         13   -1    0    0    0    0  0.00000000000E+00  0.00000000000E+00  0.74505805969E-08  0.10566000000E+00  0.10566000000E+00 0.  1.
     999900   -1    0    0    0    0 -0.00000000000E+00 -0.00000000000E+00 -0.74505805969E-08  0.93827000000E+00  0.93827000000E+00 0. -1.
     999902    2    1    2    0    0 -0.58139027512E-02 -0.99106575529E-02  0.84981411908E-02  0.10296387089E+01  0.10295395232E+01 0.  0.
     999903    2    3    3    0    0 -0.21194150681E-01  0.12908198435E+00  0.10486305702E-01  0.13859468116E+00  0.44577711145E-01 0.  0.
         14    1    1    2    0    0  0.58139027512E-02  0.99106575529E-02 -0.84981411908E-02  0.14291291125E-01  0.00000000000E+00 0. -1.
     999901    1    3    3    0    0  0.15380247930E-01 -0.13899264190E+00 -0.19881645117E-02  0.89104402772E+00  0.88000000000E+00 0. -1.
        -11    1    4    4    0    0 -0.31595472154E-01  0.10612672535E+00  0.18236959078E-01  0.11222300786E+00  0.51100000000E-03 0. -1.
         11    1    4    4    0    0  0.10401321472E-01  0.22955258999E-01 -0.77506533752E-02  0.26371673303E-01  0.51100000000E-03 0.  1.
</event>
<event>
 8    1  0.2190295E+004  0.1043930E+01  0.7957747E-01            NaN
         13   -1    0    0    0    0  0.00000000000E+00  0.00000000000E+00  0.74505805969E-08  0.10566000000E+00  0.10566000000E+00 0.  1.
     999900   -1    0    0    0    0 -0.00000000000E+00 -0.00000000000E+00 -0.74505805969E-08  0.93827000000E+00  0.93827000000E+00 0. -1.
     999902    2    1    2    0    0 -0.10573199146E-01  0.67330057701E-02  0.58029634999E-02  0.10301169521E+01  0.10300243370E+01 0.  0.
     999903    2    3    3    0    0  0.20398161094E-01 -0.10199409471E+00 -0.80350156088E-01  0.13871178746E+00  0.44338832463E-01 0.  0.
         14    1    1    2    0    0  0.10573199146E-01 -0.67330057701E-02 -0.58029634999E-02  0.13813047899E-01  0.00000000000E+00 0. -1.
     999901    1    3    3    0    0 -0.30971360240E-01  0.10872710048E+00  0.86153119588E-01  0.89140516464E+00  0.88000000000E+00 0.  1.
        -11    1    4    4    0    0 -0.24058796827E-03 -0.22165171816E-01 -0.42602268349E-01  0.48026733323E-01  0.51100000000E-03 0.  1.
         11    1    4    4    0    0  0.20638749062E-01 -0.79828922898E-01 -0.37747887740E-01  0.90685054137E-01  0.51100000000E-03 0. -1.
</event>
<event>
 8    1  0.2190295E+004  0.1043930E+01  0.7957747E-01            NaN
         13   -1    0    0    0    0  0.00000000000E+00  0.00000000000E+00  0.74505805969E-08  0.10566000000E+00  0.10566000000E+00 0. -1.
     999900   -1    0    0    0    0 -0.00000000000E+00 -0.00000000000E+00 -0.74505805969E-08  0.93827000000E+00  0.93827000000E+00 0. -1.
     999902    2    1    2    0    0  0.70714952908E-02 -0.11207851515E-01 -0.41973443702E-02  0.10300289324E+01  0.10299351251E+01 0.  0.
     999903    2    3    3    0    0 -0.52160957897E-01  0.10617463181E+00  0.55501564395E-01  0.13826041387E+00  0.45185179256E-01 0.  0.
         14    1    1    2    0    0 -0.70714952908E-02  0.11207851515E-01  0.41973443702E-02  0.13901067621E-01  0.00000000000E+00 0.  1.
     999901    1    3    3    0    0  0.59232453188E-01 -0.11738248332E+00 -0.59698908766E-01  0.89176851851E+00  0.88000000000E+00 0. -1.
        -11    1    4    4    0    0 -0.36548190635E-01  0.27226989002E-01  0.13809932219E-01  0.47624095978E-01  0.51100000000E-03 0.  1.
         11    1    4    4    0    0 -0.15612767262E-01  0.78947642805E-01  0.41691632177E-01  0.90636317889E-01  0.51100000000E-03 0. -1.
</event>
<event>
 8    1  0.2190295E+004  0.1043930E+01  0.7957747E-01            NaN
         13   -1    0    0    0    0  0.00000000000E+00  0.00000000000E+00  0.74505805969E-08  0.10566000000E+00  0.10566000000E+00 0. -1.
     999900   -1    0    0    0    0 -0.00000000000E+00 -0.00000000000E+00 -0.74505805969E-08  0.93827000000E+00  0.93827000000E+00 0. -1.
     999902    2    1    2    0    0  0.80107421242E-02  0.72512034519E-02  0.89266480138E-02  0.10299144021E+01  0.10298190320E+01 0.  0.
     999903    2    3    3    0    0 -0.12092138279E+00  0.35616204356E-01  0.40039022576E-01  0.13952345087E+00  0.44420436557E-01 0.  0.
         14    1    1    2    0    0 -0.80107421242E-02 -0.72512034519E-02 -0.89266480138E-02  0.14015597941E-01  0.00000000000E+00 0.  1.
     999901    1    3    3    0    0  0.12893212492E+00 -0.28365000904E-01 -0.31112374562E-01  0.89039095119E+00  0.88000000000E+00 0. -1.
        -11    1    4    4    0    0 -0.96502882763E-01  0.37651798160E-01  0.47420747463E-01  0.11392740099E+00  0.51100000000E-03 0.  1.
         11    1    4    4    0    0 -0.24418500030E-01 -0.20355938039E-02 -0.73817248869E-02  0.25596049874E-01  0.51100000000E-03 0. -1.
</event>
<event>
 8    1  0.2190295E+004  0.1043930E+01  0.7957747E-01            NaN
         13   -1    0    0    0    0  0.00000000000E+00  0.00000000000E+00  0.74505805969E-08  0.10566000000E+00  0.10566000000E+00 0. -1.
     999900   -1    0    0    0    0 -0.00000000000E+00 -0.00000000000E+00 -0.74505805969E-08  0.93827000000E+00  0.93827000000E+00 0.  1.
     999902    2    1    2    0    0 -0.89441409494E-02  0.10407596865E-01  0.98450731798E-03  0.10301719120E+01  0.10300800374E+01 0.  0.
     999903    2    3    3    0    0 -0.34505036048E-01 -0.12526585257E+00  0.26407112922E-01  0.13904512357E+00  0.41881731608E-01 0.  0.
         14    1    1    2    0    0  0.89441409494E-02 -0.10407596865E-01 -0.98450731798E-03  0.13758087967E-01  0.00000000000E+00 0.  1.
     999901    1    3    3    0    0  0.25560895099E-01  0.13567344944E+00 -0.25422605604E-01  0.89112678846E+00  0.88000000000E+00 0. -1.
        -11    1    4    4    0    0 -0.18155870725E-01 -0.47601288992E-01  0.30835309448E-01  0.59553302052E-01  0.51100000000E-03 0. -1.
         11    1    4    4    0    0 -0.16349165323E-01 -0.77664563580E-01 -0.44281965261E-02  0.79491821518E-01  0.51100000000E-03 0.  1.
</event>
<event>
 8    1  0.2190295E+004  0.1043930E+01  0.7957747E-01            NaN
         13   -1    0    0    0    0  0.00000000000E+00  0.00000000000E+00  0.74505805969E-08  0.10566000000E+00  0.10566000000E+00 0. -1.
     999900   -1    0    0    0    0 -0.00000000000E+00 -0.00000000000E+00 -0.74505805969E-08  0.93827000000E+00  0.93827000000E+00 0.  1.
     999902    2    1    2    0    0 -0.10069359975E-01  0.70328572654E-02 -0.51595768296E-02  0.10306080510E+01  0.10305219457E+01 0.  0.
     999903    2    3    3    0    0 -0.48477598301E-01 -0.46867831670E-01 -0.11559490679E+00  0.14123948898E+00  0.45163476271E-01 0.  0.
         14    1    1    2    0    0  0.10069359975E-01 -0.70328572654E-02  0.51595768296E-02  0.13321948982E-01  0.00000000000E+00 0. -1.
     999901    1    3    3    0    0  0.38408238327E-01  0.53900688936E-01  0.11043532996E+00  0.88936856204E+00  0.88000000000E+00 0. -1.
        -11    1    4    4    0    0 -0.28107527709E-01 -0.46302925437E-01 -0.54529652551E-01  0.76861812016E-01  0.51100000000E-03 0. -1.
         11    1    4    4    0    0 -0.20370070592E-01 -0.56490623279E-03 -0.61065254239E-01  0.64377676964E-01  0.51100000000E-03 0.  1.
</event>
<event>
 8    1  0.2190295E+004  0.1043930E+01  0.7957747E-01            NaN
         13   -1    0    0    0    0  0.00000000000E+00  0.00000000000E+00  0.74505805969E-08  0.10566000000E+00  0.10566000000E+00 0. -1.
     999900   -1    0    0    0    0 -0.00000000000E+00 -0.00000000000E+00 -0.74505805969E-08  0.93827000000E+00  0.93827000000E+00 0. -1.
     999902    2    1    2    0    0  0.45114854017E-02 -0.97589780335E-02 -0.10885209106E-01  0.10286303618E+01  0.10285165736E+01 0.  0.
     999903    2    3    3    0    0 -0.64742330033E-01 -0.11194432762E+00  0.25323251651E-01  0.13927723210E+00  0.45097433664E-01 0.  0.
         14    1    1    2    0    0 -0.45114854017E-02  0.97589780335E-02  0.10885209106E-01  0.15299638233E-01  0.00000000000E+00 0. -1.
     999901    1    3    3    0    0  0.69253815435E-01  0.10218534958E+00 -0.36208460757E-01  0.88935312967E+00  0.88000000000E+00 0.  1.
        -11    1    4    4    0    0 -0.36408160514E-01 -0.70213375956E-01 -0.69420807509E-02  0.79397266460E-01  0.51100000000E-03 0. -1.
         11    1    4    4    0    0 -0.28334169520E-01 -0.41730951660E-01  0.32265332402E-01  0.59879965638E-01  0.51100000000E-03 0.  1.
</event>
<event>
 8    1  0.2190295E+004  0.1043930E+01  0.7957747E-01            NaN
         13   -1    0    0    0    0  0.00000000000E+00  0.00000000000E+00  0.74505805969E-08  0.10566000000E+00  0.10566000000E+00 0. -1.
     999900   -1    0    0    0    0 -0.00000000000E+00 -0.00000000000E+00 -0.74505805969E-08  0.93827000000E+00  0.93827000000E+00 0.  1.
     999902    2    1    2    0    0  0.13048423504E-01 -0.15392697284E-02  0.42993582190E-02  0.10301055583E+01  0.10300127893E+01 0.  0.
     999903    2    3    3    0    0 -0.66106927299E-01  0.91411066184E-01 -0.66976535590E-01  0.13882244528E+00  0.45383985474E-01 0.  0.
         14    1    1    2    0    0 -0.13048423504E-01  0.15392697284E-02 -0.42993582190E-02  0.13824441700E-01  0.00000000000E+00 0. -1.
     999901    1    3    3    0    0  0.79155350803E-01 -0.92950335912E-01  0.71275893809E-01  0.89128311301E+00  0.88000000000E+00 0. -1.
        -11    1    4    4    0    0 -0.30393473190E-01  0.76562302472E-01 -0.51567558324E-01  0.97185511085E-01  0.51100000000E-03 0. -1.
         11    1    4    4    0    0 -0.35713454109E-01  0.14848763712E-01 -0.15408977266E-01  0.41636934200E-01  0.51100000000E-03 0.  1.
</event>
<event>
 8    1  0.2190295E+004  0.1043930E+01  0.7957747E-01            NaN
         13   -1    0    0    0    0  0.00000000000E+00  0.00000000000E+00  0.74505805969E-08  0.10566000000E+00  0.10566000000E+00 0.  1.
     999900   -1    0    0    0    0 -0.00000000000E+00 -0.00000000000E+00 -0.74505805969E-08  0.93827000000E+00  0.93827000000E+00 0. -1.
     999902    2    1    2    0    0  0.79113526681E-02 -0.70826236003E-02 -0.86645903854E-02  0.10302249577E+01  0.10301337948E+01 0.  0.
     999903    2    3    3    0    0 -0.95273974311E-01  0.10334911927E-01 -0.92170947500E-01  0.14009918348E+00  0.44140197798E-01 0.  0.
         14    1    1    2    0    0 -0.79113526681E-02  0.70826236003E-02  0.86645903854E-02  0.13705042307E-01  0.00000000000E+00 0.  1.
     999901    1    3    3    0    0  0.10318532698E+00 -0.17417535527E-01  0.83506357115E-01  0.89012577422E+00  0.88000000000E+00 0.  1.
        -11    1    4    4    0    0 -0.35021718066E-01  0.11361782198E-01 -0.63406859898E-01  0.73323269391E-01  0.51100000000E-03 0.  1.
         11    1    4    4    0    0 -0.60252256245E-01 -0.10268702713E-02 -0.28764087602E-01  0.66775914084E-01  0.51100000000E-03 0. -1.
</event>
<event>
 8    1  0.2190295E+004  0.1043930E+01  0.7957747E-01            NaN
         13   -1    0    0    0    0  0.00000000000E+00  0.00000000000E+00  0.74505805969E-08  0.10566000000E+00  0.10566000000E+00 0.  1.
     999900   -1    0    0    0    0 -0.00000000000E+00 -0.00000000000E+00 -0.74505805969E-08  0.93827000000E+00  0.93827000000E+00 0.  1.
     999902    2    1    2    0    0 -0.67188134281E-02 -0.70199818311E-02  0.10287892277E-01  0.10297785574E+01  0.10296813167E+01 0.  0.
     999903    2    3    3    0    0 -0.13315083078E+00  0.97928184439E-03  0.66556682762E-02  0.14069912552E+00  0.44964911565E-01 0.  0.
         14    1    1    2    0    0  0.67188134281E-02  0.70199818311E-02 -0.10287892277E-01  0.14151442552E-01  0.00000000000E+00 0. -1.
     999901    1    3    3    0    0  0.12643201735E+00 -0.79992636755E-02  0.36322240007E-02  0.88907943193E+00  0.88000000000E+00 0.  1.
        -11    1    4    4    0    0 -0.63942758830E-01  0.14923309405E-01  0.20428734582E-01  0.68767549673E-01  0.51100000000E-03 0. -1.
         11    1    4    4    0    0 -0.69208071946E-01 -0.13944027561E-01 -0.13773066305E-01  0.71931575845E-01  0.51100000000E-03 0.  1.
</event>
<event>
 8    1  0.2190295E+004  0.1043930E+01  0.7957747E-01            NaN
         13   -1    0    0    0    0  0.00000000000E+00  0.00000000000E+00  0.74505805969E-08  0.10566000000E+00  0.10566000000E+00 0.  1.
     999900   -1    0    0    0    0 -0.00000000000E+00 -0.00000000000E+00 -0.74505805969E-08  0.93827000000E+00  0.93827000000E+00 0.  1.
     999902    2    1    2    0    0  0.24262337366E-02 -0.52931467462E-02 -0.12790345318E-01  0.10298766393E+01  0.10297807511E+01 0.  0.
     999903    2    3    3    0    0 -0.11608528563E+00 -0.58456614411E-01  0.25569623207E-01  0.13951557679E+00  0.43792935803E-01 0.  0.
         14    1    1    2    0    0 -0.24262337366E-02  0.52931467462E-02  0.12790345318E-01  0.14053360665E-01  0.00000000000E+00 0.  1.
     999901    1    3    3    0    0  0.11851151937E+00  0.53163467664E-01 -0.38359968525E-01  0.89036106255E+00  0.88000000000E+00 0.  1.
        -11    1    4    4    0    0 -0.82921411045E-01 -0.18100715823E-01  0.14191914874E-01  0.86053866222E-01  0.51100000000E-03 0. -1.
         11    1    4    4    0    0 -0.33163874588E-01 -0.40355898588E-01  0.11377708333E-01  0.53461710564E-01  0.51100000000E-03 0.  1.
</event>
<event>
 8    1  0.2190295E+004  0.1043930E+01  0.7957747E-01            NaN
         13   -1    0    0    0    0  0.00000000000E+00  0.00000000000E+00  0.74505805969E-08  0.10566000000E+00  0.10566000000E+00 0.  1.
     999900   -1    0    0    0    0 -0.00000000000E+00 -0.00000000000E+00 -0.74505805969E-08  0.93827000000E+00  0.93827000000E+00 0.  1.
     999902    2    1    2    0    0  0.10449091927E-01 -0.38139506116E-02 -0.91549346618E-02  0.10295236622E+01  0.10294228618E+01 0.  0.
     999903    2    3    3    0    0  0.13280176556E+00  0.13751661595E-01 -0.12559766623E-02  0.14084986317E+00  0.44851859972E-01 0.  0.
         14    1    1    2    0    0 -0.10449091927E-01  0.38139506116E-02  0.91549346618E-02  0.14406337842E-01  0.00000000000E+00 0.  1.
     999901    1    3    3    0    0 -0.12235267364E+00 -0.17565612207E-01 -0.78989579995E-02  0.88867379899E+00  0.88000000000E+00 0.  1.
        -11    1    4    4    0    0  0.10291950335E+00  0.29486638587E-01 -0.35038959182E-03  0.10706199101E+00  0.51100000000E-03 0.  1.
         11    1    4    4    0    0  0.29882262216E-01 -0.15734976992E-01 -0.90558707050E-03  0.33787872159E-01  0.51100000000E-03 0. -1.
</event>
<event>
 8    1  0.2190295E+004  0.1043930E+01  0.7957747E-01            NaN
         13   -1    0    0    0    0  0.00000000000E+00  0.00000000000E+00  0.74505805969E-08  0.10566000000E+00  0.10566000000E+00 0. -1.
     999900   -1    0    0    0    0 -0.00000000000E+00 -0.00000000000E+00 -0.74505805969E-08  0.93827000000E+00  0.93827000000E+00 0. -1.
     999902    2    1    2    0    0  0.73296988284E-02  0.73545435746E-02 -0.94988725435E-02  0.10298572470E+01  0.10297610922E+01 0.  0.
     999903    2    3    3    0    0 -0.11849639185E+00  0.56641574546E-01 -0.87274634372E-02  0.13954156618E+00  0.46325125222E-01 0.  0.
         14    1    1    2    0    0 -0.73296988284E-02 -0.73545435746E-02  0.94988725435E-02  0.14072752954E-01  0.00000000000E+00 0. -1.
     999901    1    3    3    0    0  0.12582609068E+00 -0.49287030971E-01 -0.77140910628E-03  0.89031568086E+00  0.88000000000E+00 0. -1.
        -11    1    4    4    0    0 -0.67923211305E-01  0.68165443267E-02 -0.36307462680E-02  0.68362792146E-01  0.51100000000E-03 0.  1.
         11    1    4    4    0    0 -0.50573180544E-01  0.49825030219E-01 -0.50967171692E-02  0.71178774038E-01  0.51100000000E-03 0. -1.
</event>
<event>
 8    1  0.2190295E+004  0.1043930E+01  0.7957747E-01            NaN
         13   -1    0    0    0    0  0.00000000000E+00  0.00000000000E+00  0.74505805969E-08  0.10566000000E+00  0.10566000000E+00 0.  1.
     999900   -1    0    0    0    0 -0.00000000000E+00 -0.00000000000E+00 -0.74505805969E-08  0.93827000000E+00  0.93827000000E+00 0. -1.
     999902    2    1    2    0    0  0.80824319387E-02 -0.11220719890E-01 -0.22198127186E-02  0.10299243644E+01  0.10298291307E+01 0.  0.
     999903    2    3    3    0    0  0.80847268842E-01 -0.10304736452E+00  0.29491321576E-01  0.14159309159E+00  0.44986946164E-01 0.  0.
         14    1    1    2    0    0 -0.80824319387E-02  0.11220719890E-01  0.22198127186E-02  0.14005635630E-01  0.00000000000E+00 0. -1.
     999901    1    3    3    0    0 -0.72764836904E-01  0.91826644630E-01 -0.31711134294E-01  0.88833127278E+00  0.88000000000E+00 0. -1.
        -11    1    4    4    0    0  0.31058063566E-01 -0.53562148042E-01 -0.72831025088E-02  0.62344299807E-01  0.51100000000E-03 0.  1.
         11    1    4    4    0    0  0.49789205277E-01 -0.49485216478E-01  0.36774424084E-01  0.79248791787E-01  0.51100000000E-03 0. -1.
</event>
<event>
 8    1  0.2190295E+004  0.1043930E+01  0.7957747E-01            NaN
         13   -1    0    0    0    0  0.00000000000E+00  0.00000000000E+00  0.74505805969E-08  0.10566000000E+00  0.10566000000E+00 0.  1.
     999900   -1    0    0    0    0 -0.00000000000E+00 -0.00000000000E+00 -0.74505805969E-08  0.93827000000E+00  0.93827000000E+00 0. -1.
     999902    2    1    2    0    0 -0.87186456901E-02 -0.11192365931E-01 -0.68809686721E-02  0.10281619447E+01  0.10280410269E+01 0.  0.
     999903    2    3    3    0    0 -0.79723968869E-02 -0.10607908603E+00  0.77178027325E-01  0.13907816837E+00  0.45496784627E-01 0.  0.
         14    1    1    2    0    0  0.87186456901E-02  0.11192365931E-01  0.68809686721E-02  0.15768055292E-01  0.00000000000E+00 0.  1.
     999901    1    3    3    0    0 -0.74624880323E-03  0.94886720095E-01 -0.84058995997E-01  0.88908377634E+00  0.88000000000E+00 0. -1.
        -11    1    4    4    0    0 -0.51215394432E-02 -0.70413090444E-01  0.23197402412E-01  0.74314292514E-01  0.51100000000E-03 0.  1.
         11    1    4    4    0    0 -0.28508574437E-02 -0.35665995582E-01  0.53980624914E-01  0.64763875858E-01  0.51100000000E-03 0. -1.
</event>
<event>
 8    1  0.2190295E+004  0.1043930E+01  0.7957747E-01            NaN
         13   -1    0    0    0    0  0.00000000000E+00  0.00000000000E+00  0.74505805969E-08  0.10566000000E+00  0.10566000000E+00 0.  1.
     999900   -1    0    0    0    0 -0.00000000000E+00 -0.00000000000E+00 -0.74505805969E-08  0.93827000000E+00  0.93827000000E+00 0. -1.
     999902    2    1    2    0    0 -0.50934021713E-02 -0.78921210064E-02 -0.11620771035E-01  0.10289877566E+01  0.10288792604E+01 0.  0.
     999903    2    3    3    0    0 -0.11146015900E+00 -0.26829140078E-01 -0.69625911384E-01  0.14048503064E+00  0.41774471821E-01 0.  0.
         14    1    1    2    0    0  0.50934021713E-02  0.78921210064E-02  0.11620771035E-01  0.14942243443E-01  0.00000000000E+00 0.  1.
     999901    1    3    3    0    0  0.10636675683E+00  0.18937019072E-01  0.58005140349E-01  0.88850272591E+00  0.88000000000E+00 0.  1.
        -11    1    4    4    0    0 -0.32215629183E-01  0.66339473702E-02 -0.34204547087E-01  0.47455960466E-01  0.51100000000E-03 0. -1.
         11    1    4    4    0    0 -0.79244529821E-01 -0.33463087448E-01 -0.35421364298E-01  0.93029070176E-01  0.51100000000E-03 0.  1.
</event>
<event>
 7    1  0.4308310E+004  0.1043930E+01  0.7957747E-01            NaN
         13   -1    0    0    0    0  0.00000000000E+00  0.00000000000E+00  0.74505805969E-08  0.10566000000E+00  0.10566000000E+00 0. -1.
     999900   -1    0    0    0    0 -0.00000000000E+00 -0.00000000000E+00 -0.74505805969E-08  0.93827000000E+00  0.93827000000E+00 0.  1.
     999903    2    1    2    0    0 -0.15712067071E-01  0.20775963068E-01 -0.69374855000E-01  0.86805292510E-01  0.45208169708E-01 0.  0.
         14    1    1    2    0    0 -0.25679449522E-02  0.69475154651E-01 -0.95592164526E-03  0.69529168277E-01  0.00000000000E+00 0. -1.
     999901    1    1    2    0    0  0.18280012023E-01 -0.90251117718E-01  0.70330776645E-01  0.88759553921E+00  0.88000000000E+00 0. -1.
        -11    1    3    3    0    0 -0.13121130700E-01  0.22517140726E-01 -0.10913868935E-01  0.28258792498E-01  0.51100000000E-03 0. -1.
         11    1    3    3    0    0 -0.25909363710E-02 -0.17411776585E-02 -0.58460986065E-01  0.58546500011E-01  0.51100000000E-03 0.  1.
</event>
<event>
 8    1  0.2190295E+004  0.1043930E+01  0.7957747E-01            NaN
         13   -1    0    0    0    0  0.00000000000E+00  0.00000000000E+00  0.74505805969E-08  0.10566000000E+00  0.10566000000E+00 0.  1.
     999900   -1    0    0    0    0 -0.00000000000E+00 -0.00000000000E+00 -0.74505805969E-08  0.93827000000E+00  0.93827000000E+00 0. -1.
     999902    2    1    2    0    0  0.11830593347E-01  0.47229730462E-02  0.48363210220E-02  0.10303043105E+01  0.10302142072E+01 0.  0.
     999903    2    3    3    0    0 -0.76253472016E-01 -0.94984875872E-01 -0.49249982361E-01  0.13866212558E+00  0.44327256515E-01 0.  0.
         14    1    1    2    0    0 -0.11830593347E-01 -0.47229730462E-02 -0.48363210220E-02  0.13625689501E-01  0.00000000000E+00 0.  1.
     999901    1    3    3    0    0  0.88084065363E-01  0.99707848918E-01  0.54086303383E-01  0.89164218492E+00  0.88000000000E+00 0. -1.
        -11    1    4    4    0    0 -0.30619901588E-01 -0.13672687454E-01 -0.26341470156E-01  0.42645690597E-01  0.51100000000E-03 0. -1.
         11    1    4    4    0    0 -0.45633570427E-01 -0.81312188417E-01 -0.22908512204E-01  0.96016434987E-01  0.51100000000E-03 0.  1.
</event>
<event>
 8    1  0.2190295E+004  0.1043930E+01  0.7957747E-01            NaN
         13   -1    0    0    0    0  0.00000000000E+00  0.00000000000E+00  0.74505805969E-08  0.10566000000E+00  0.10566000000E+00 0.  1.
     999900   -1    0    0    0    0 -0.00000000000E+00 -0.00000000000E+00 -0.74505805969E-08  0.93827000000E+00  0.93827000000E+00 0. -1.
     999902    2    1    2    0    0 -0.69598532989E-02  0.11871991346E-01  0.12120833313E-01  0.10255915612E+01  0.10254275948E+01 0.  0.
     999903    2    3    3    0    0  0.57801915405E-02 -0.99566591746E-02 -0.12598874922E+00  0.13446134879E+00  0.45542767941E-01 0.  0.
         14    1    1    2    0    0  0.69598532989E-02 -0.11871991346E-01 -0.12120833313E-01  0.18338438774E-01  0.00000000000E+00 0. -1.
     999901    1    3    3    0    0 -0.12740044839E-01  0.21828650520E-01  0.13810958254E+00  0.89113021243E+00  0.88000000000E+00 0.  1.
        -11    1    4    4    0    0 -0.19130427898E-01 -0.87630640751E-02 -0.44245568690E-01  0.48996898200E-01  0.51100000000E-03 0. -1.
         11    1    4    4    0    0  0.24910619439E-01 -0.11935950995E-02 -0.81743180533E-01  0.85464450591E-01  0.51100000000E-03 0.  1.
</event>
<event>
 8    1  0.2190295E+004  0.1043930E+01  0.7957747E-01            NaN
         13   -1    0    0    0    0  0.00000000000E+00  0.00000000000E+00  0.74505805969E-08  0.10566000000E+00  0.10566000000E+00 0. -1.
     999900   -1    0    0    0    0 -0.00000000000E+00 -0.00000000000E+00 -0.74505805969E-08  0.93827000000E+00  0.93827000000E+00 0. -1.
     999902    2    1    2    0    0  0.12825123074E-01 -0.58794353913E-02 -0.12325303817E-02  0.10297677024E+01  0.10296703114E+01 0.  0.
     999903    2    3    3    0    0 -0.39024730560E-01 -0.12622932145E+00  0.11676520181E-01  0.13997045246E+00  0.44705874892E-01 0.  0.
         14    1    1    2    0    0 -0.12825123074E-01  0.58794353913E-02  0.12325303817E-02  0.14162297608E-01  0.00000000000E+00 0. -1.
     999901    1    3    3    0    0  0.51849853634E-01  0.12034988606E+00 -0.12909050562E-01  0.88979724993E+00  0.88000000000E+00 0.  1.
        -11    1    4    4    0    0  0.57292504928E-02 -0.12455785971E-01  0.11197403404E-01  0.17709146771E-01  0.51100000000E-03 0. -1.
         11    1    4    4    0    0 -0.44753981053E-01 -0.11377353548E+00  0.47911677702E-03  0.12226130569E+00  0.51100000000E-03 0.  1.
</event>
<event>
 8    1  0.2190295E+004  0.1043930E+01  0.7957747E-01            NaN
         13   -1    0    0    0    0  0.00000000000E+00  0.00000000000E+00  0.74505805969E-08  0.10566000000E+00  0.10566000000E+00 0. -1.
     999900   -1    0    0    0    0 -0.00000000000E+00 -0.00000000000E+00 -0.74505805969E-08  0.93827000000E+00  0.93827000000E+00 0. -1.
     999902    2    1    2    0    0 -0.40653132998E-02 -0.12517893112E-01  0.45762893492E-02  0.10299956236E+01  0.10299013632E+01 0.  0.
     999903    2    3    3    0    0 -0.11065322426E+00  0.71252607933E-01 -0.77033466242E-02  0.13952986402E+00  0.45696512197E-01 0.  0.
         14    1    1    2    0    0  0.40653132998E-02  0.12517893112E-01 -0.45762893492E-02  0.13934376355E-01  0.00000000000E+00 0. -1.
     999901    1    3    3    0    0  0.10658791096E+00 -0.83770501045E-01  0.12279635973E-01  0.89046575963E+00  0.88000000000E+00 0.  1.
        -11    1    4    4    0    0 -0.55503176601E-01  0.33476362824E-01 -0.26594076490E-01  0.70062654146E-01  0.51100000000E-03 0.  1.
         11    1    4    4    0    0 -0.55150047660E-01  0.37776245110E-01  0.18890729865E-01  0.69467209872E-01  0.51100000000E-03 0. -1.
</event>
<event>
 8    1  0.2190295E+004  0.1043930E+01  0.7957747E-01            NaN
         13   -1    0    0    0    0  0.00000000000E+00  0.00000000000E+00  0.74505805969E-08  0.10566000000E+00  0.10566000000E+00 0.  1.
     999900   -1    0    0    0    0 -0.00000000000E+00 -0.00000000000E+00 -0.74505805969E-08  0.93827000000E+00  0.93827000000E+00 0. -1.
     999902    2    1    2    0    0 -0.71120871606E-02 -0.99626576445E-03  0.70679033227E-02  0.10338538109E+01  0.10338047073E+01 0.  0.
     999903    2    3    3    0    0 -0.93434163519E-01 -0.33889870854E-02 -0.98720905440E-01  0.14332110626E+00  0.45317702760E-01 0.  0.
         14    1    1    2    0    0  0.71120871606E-02  0.99626576445E-03 -0.70679033227E-02  0.10076189093E-01  0.00000000000E+00 0. -1.
     999901    1    3    3    0    0  0.86322076358E-01  0.23927213209E-02  0.10578880876E+00  0.89053270464E+00  0.88000000000E+00 0.  1.
        -11    1    4    4    0    0 -0.37883044779E-01  0.16191023066E-01 -0.22346727883E-01  0.46871224410E-01  0.51100000000E-03 0.  1.
         11    1    4    4    0    0 -0.55551118740E-01 -0.19580010151E-01 -0.76374177557E-01  0.96449881852E-01  0.51100000000E-03 0. -1.
</event>
<event>
 8    1  0.2190295E+004  0.1043930E+01  0.7957747E-01            NaN
         13   -1    0    0    0    0  0.00000000000E+00  0.00000000000E+00  0.74505805969E-08  0.10566000000E+00  0.10566000000E+00 0. -1.
     999900   -1    0    0    0    0 -0.00000000000E+00 -0.00000000000E+00 -0.74505805969E-08  0.93827000000E+00  0.93827000000E+00 0.  1.
     999902    2    1    2    0    0  0.11269161176E-01  0.12695287475E-01  0.18086106567E-02  0.10268585211E+01  0.10267166050E+01 0.  0.
     999903    2    3    3    0    0 -0.46443429394E-01 -0.38976034106E-01  0.11452253559E+00  0.13629403867E+00  0.42243703061E-01 0.  0.
         14    1    1    2    0    0 -0.11269161176E-01 -0.12695287475E-01 -0.18086106567E-02  0.17071478852E-01  0.00000000000E+00 0. -1.
     999901    1    3    3    0    0  0.57712590570E-01  0.51671321582E-01 -0.11271392494E+00  0.89056448248E+00  0.88000000000E+00 0. -1.
        -11    1    4    4    0    0 -0.34147092544E-01 -0.47274585639E-01  0.82872552927E-01  0.10133623008E+00  0.51100000000E-03 0.  1.
         11    1    4    4    0    0 -0.12296336850E-01  0.82985515332E-02  0.31649982667E-01  0.34957808588E-01  0.51100000000E-03 0. -1.
</event>
<event>
 8    1  0.2190295E+004  0.1043930E+01  0.7957747E-01            NaN
         13   -1    0    0    0    0  0.00000000000E+00  0.00000000000E+00  0.74505805969E-08  0.10566000000E+00  0.10566000000E+00 0. -1.
     999900   -1    0    0    0    0 -0.00000000000E+00 -0.00000000000E+00 -0.74505805969E-08  0.93827000000E+00  0.93827000000E+00 0.  1.
     999902    2    1    2    0    0  0.61401361899E-02 -0.11290085698E-01  0.65628050505E-02  0.10294995559E+01  0.10293984155E+01 0.  0.
     999903    2    3    3    0    0 -0.46337270165E-01 -0.10636557195E+00 -0.62568908171E-01  0.14013325337E+00  0.47557154316E-01 0.  0.
         14    1    1    2    0    0 -0.61401361899E-02  0.11290085698E-01 -0.65628050505E-02  0.14430444124E-01  0.00000000000E+00 0. -1.
     999901    1    3    3    0    0  0.52477406355E-01  0.95075486254E-01  0.69131713221E-01  0.88936630251E+00  0.88000000000E+00 0. -1.
        -11    1    4    4    0    0 -0.56426471173E-02 -0.46559154690E-01 -0.46466113005E-01  0.66022383558E-01  0.51100000000E-03 0. -1.
         11    1    4    4    0    0 -0.40694623047E-01 -0.59806417262E-01 -0.16102795166E-01  0.74110869809E-01  0.51100000000E-03 0.  1.
</event>
<event>
 8    1  0.2190295E+004  0.1043930E+01  0.7957747E-01            NaN
         13   -1    0    0    0    0  0.00000000000E+00  0.00000000000E+00  0.74505805969E-08  0.10566000000E+00  0.10566000000E+00 0. -1.
     999900   -1    0    0    0    0 -0.00000000000E+00 -0.00000000000E+00 -0.74505805969E-08  0.93827000000E+00  0.93827000000E+00 0.  1.
     999902    2    1    2    0    0  0.10197424334E-01  0.75481100687E-02  0.16998352263E-02  0.10311295755E+01  0.10310501203E+01 0.  0.
     999903    2    3    3    0    0  0.31149961995E-02  0.72402794717E-01  0.11323376044E+00  0.14169373888E+00  0.44758946063E-01 0.  0.
         14    1    1    2    0    0 -0.10197424334E-01 -0.75481100687E-02 -0.16998352263E-02  0.12800424542E-01  0.00000000000E+00 0.  1.
     999901    1    3    3    0    0  0.70824281342E-02 -0.64854684648E-01 -0.11153392521E+00  0.88943583657E+00  0.88000000000E+00 0.  1.
        -11    1    4    4    0    0  0.30171969214E-02  0.77726530441E-01  0.11172325083E+00  0.13613545794E+00  0.51100000000E-03 0. -1.
         11    1    4    4    0    0  0.97799278075E-04 -0.53237357244E-02  0.15105096015E-02  0.55582809409E-02  0.51100000000E-03 0.  1.
</event>
<event>
 8    1  0.2190295E+004  0.1043930E+01  0.7957747E-01            NaN
         13   -1    0    0    0    0  0.00000000000E+00  0.00000000000E+00  0.74505805969E-08  0.10566000000E+00  0.10566000000E+00 0.  1.
     999900   -1    0    0    0    0 -0.00000000000E+00 -0.00000000000E+00 -0.74505805969E-08  0.93827000000E+00  0.93827000000E+00 0. -1.
     999902    2    1    2    0    0 -0.11171430653E-01  0.72065910284E-02 -0.49921240350E-02  0.10297293972E+01  0.10296314750E+01 0.  0.
     999903    2    3    3    0    0  0.85741436776E-01 -0.85208454975E-01 -0.50941304897E-01  0.13841353187E+00  0.44172553460E-01 0.  0.
         14    1    1    2    0    0  0.11171430653E-01 -0.72065910284E-02  0.49921240350E-02  0.14200602786E-01  0.00000000000E+00 0.  1.
     999901    1    3    3    0    0 -0.96912867430E-01  0.92415046003E-01  0.45949180862E-01  0.89131586535E+00  0.88000000000E+00 0.  1.
        -11    1    4    4    0    0  0.70128930671E-01 -0.66526154524E-01 -0.58410060970E-01  0.11294154460E+00  0.51100000000E-03 0.  1.
         11    1    4    4    0    0  0.15612506106E-01 -0.18682300451E-01  0.74687560736E-02  0.25471987267E-01  0.51100000000E-03 0. -1.
</event>
<event>
 8    1  0.2190295E+004  0.1043930E+01  0.7957747E-01            NaN
         13   -1    0    0    0    0  0.00000000000E+00  0.00000000000E+00  0.74505805969E-08  0.10566000000E+00  0.10566000000E+00 0.  1.
     999900   -1    0    0    0    0 -0.00000000000E+00 -0.00000000000E+00 -0.74505805969E-08  0.93827000000E+00  0.93827000000E+00 0. -1.
     999902    2    1    2    0    0  0.69310830832E-04 -0.93606858547E-02  0.10566052439E-01  0.10298137431E+01  0.10297169887E+01 0.  0.
     999903    2    3    3    0    0 -0.11716019753E+00  0.19601139208E-01  0.59619909101E-01  0.14021393098E+00  0.44662023409E-01 0.  0.
         14    1    1    2    0    0 -0.69310830832E-04  0.93606858547E-02 -0.10566052439E-01  0.14116256863E-01  0.00000000000E+00 0. -1.
     999901    1    3    3    0    0  0.11722950836E+00 -0.28961825063E-01 -0.49053856662E-01  0.88959981216E+00  0.88000000000E+00 0. -1.
        -11    1    4    4    0    0 -0.62962263390E-01  0.10953029624E-01  0.56393512365E-01  0.85233237807E-01  0.51100000000E-03 0.  1.
         11    1    4    4    0    0 -0.54197934142E-01  0.86481095837E-02  0.32263967354E-02  0.54980693170E-01  0.51100000000E-03 0. -1.
</event>
<event>
 8    1  0.2190295E+004  0.1043930E+01  0.7957747E-01            NaN
         13   -1    0    0    0    0  0.00000000000E+00  0.00000000000E+00  0.74505805969E-08  0.10566000000E+00  0.10566000000E+00 0. -1.
     999900   -1    0    0    0    0 -0.00000000000E+00 -0.00000000000E+00 -0.74505805969E-08  0.93827000000E+00  0.93827000000E+00 0. -1.
     999902    2    1    2    0    0 -0.37473493123E-02  0.89056075902E-02 -0.93819316162E-02  0.10304625164E+01  0.10303745070E+01 0.  0.
     999903    2    3    3    0    0  0.35549636234E-01  0.12777517563E+00 -0.19421058836E-01  0.14154462855E+00  0.45469024632E-01 0.  0.
         14    1    1    2    0    0  0.37473493123E-02 -0.89056075902E-02  0.93819316162E-02  0.13467483591E-01  0.00000000000E+00 0. -1.
     999901    1    3    3    0    0 -0.39296985547E-01 -0.11886956804E+00  0.10039127220E-01  0.88891788786E+00  0.88000000000E+00 0.  1.
        -11    1    4    4    0    0 -0.74685571682E-02  0.39441076897E-01 -0.16045982032E-01  0.43233234361E-01  0.51100000000E-03 0.  1.
         11    1    4    4    0    0  0.43018193403E-01  0.88334098735E-01 -0.33750768035E-02  0.98311394189E-01  0.51100000000E-03 0. -1.
</event>
<event>
 8    1  0.2190295E+004  0.1043930E+01  0.7957747E-01            NaN
         13   -1    0    0    0    0  0.00000000000E+00  0.00000000000E+00  0.74505805969E-08  0.10566000000E+00  0.10566000000E+00 0.  1.
     999900   -1    0    0    0    0 -0.00000000000E+00 -0.00000000000E+00 -0.74505805969E-08  0.93827000000E+00  0.93827000000E+00 0. -1.
     999902    2    1    2    0    0  0.96988457715E-02  0.21672014222E-02  0.31378368838E-02  0.10335083691E+01  0.10334558232E+01 0.  0.
     999903    2    3    3    0    0 -0.69384807707E-02 -0.13068810943E+00  0.31646904211E-01  0.14292423424E+00  0.47940439347E-01 0.  0.
         14    1    1    2    0    0 -0.96988457715E-02 -0.21672014222E-02 -0.31378368838E-02  0.10421630948E-01  0.00000000000E+00 0.  1.
     999901    1    3    3    0    0  0.16637326542E-01  0.13285531086E+00 -0.28509067328E-01  0.89058413481E+00  0.88000000000E+00 0. -1.
        -11    1    4    4    0    0  0.19062129179E-01 -0.46870533494E-01  0.33337221956E-02  0.50710812491E-01  0.51100000000E-03 0.  1.
         11    1    4    4    0    0 -0.26000609949E-01 -0.83817575939E-01  0.28313182016E-01  0.92213421751E-01  0.51100000000E-03 0. -1.
</event>
<event>
 8    1  0.2190295E+004  0.1043930E+01  0.7957747E-01            NaN
         13   -1    0    0    0    0  0.00000000000E+00  0.00000000000E+00  0.74505805969E-08  0.10566000000E+00  0.10566000000E+00 0.  1.
     999900   -1    0    0    0    0 -0.00000000000E+00 -0.00000000000E+00 -0.74505805969E-08  0.93827000000E+00  0.93827000000E+00 0. -1.
     999902    2    1    2    0    0 -0.96915607657E-02 -0.57771210035E-02 -0.20976327294E-02  0.10324538709E+01  0.10323900880E+01 0.  0.
     999903    2    3    3    0    0  0.46957509259E-01  0.11059379113E-01 -0.12568658534E+00  0.14185473876E+00  0.44702702732E-01 0.  0.
         14    1    1    2    0    0  0.96915607657E-02  0.57771210035E-02  0.20976327294E-02  0.11476129148E-01  0.00000000000E+00 0.  1.
     999901    1    3    3    0    0 -0.56649070025E-01 -0.16836500116E-01  0.12358895261E+00  0.89059913209E+00  0.88000000000E+00 0.  1.
        -11    1    4    4    0    0  0.10571315527E-01  0.10802399786E-01 -0.51992657784E-02  0.15991811616E-01  0.51100000000E-03 0.  1.
         11    1    4    4    0    0  0.36386193731E-01  0.25697932644E-03 -0.12048731957E+00  0.12586292715E+00  0.51100000000E-03 0. -1.
</event>
<event>
 8    1  0.2190295E+004  0.1043930E+01  0.7957747E-01            NaN
         13   -1    0    0    0    0  0.00000000000E+00  0.00000000000E+00  0.74505805969E-08  0.10566000000E+00  0.10566000000E+00 0.  1.
     999900   -1    0    0    0    0 -0.00000000000E+00 -0.00000000000E+00 -0.74505805969E-08  0.93827000000E+00  0.93827000000E+00 0. -1.
     999902    2    1    2    0    0  0.95449954505E-02  0.81986273152E-02  0.50648312196E-02  0.10303661899E+01  0.10302769086E+01 0.  0.
     999903    2    3    3    0    0  0.13328600171E+00  0.10557473932E-01 -0.10436934205E-01  0.14157054103E+00  0.45350523533E-01 0.  0.
         14    1    1    2    0    0 -0.95449954505E-02 -0.81986273152E-02 -0.50648312196E-02  0.13563810058E-01  0.00000000000E+00 0. -1.
     999901    1    3    3    0    0 -0.12374100626E+00 -0.23588466172E-02  0.15501765424E-01  0.88879564891E+00  0.88000000000E+00 0. -1.
        -11    1    4    4    0    0  0.39314787957E-01 -0.17609681793E-01 -0.29937595058E-02  0.43185381345E-01  0.51100000000E-03 0. -1.
         11    1    4    4    0    0  0.93971213755E-01  0.28167155726E-01 -0.74431746989E-02  0.98385159688E-01  0.51100000000E-03 0.  1.
</event>
<event>
 8    1  0.2190295E+004  0.1043930E+01  0.7957747E-01            NaN
         13   -1    0    0    0    0  0.00000000000E+00  0.00000000000E+00  0.74505805969E-08  0.10566000000E+00  0.10566000000E+00 0. -1.
     999900   -1    0    0    0    0 -0.00000000000E+00 -0.00000000000E+00 -0.74505805969E-08  0.93827000000E+00  0.93827000000E+00 0. -1.
     999902    2    1    2    0    0 -0.11352506182E-01 -0.21438648204E-02 -0.82520918053E-02  0.10297323744E+01  0.10296344936E+01 0.  0.
     999903    2    3    3    0    0 -0.12207685537E+00  0.53954969680E-01  0.33915142289E-02  0.14094526026E+00  0.45168203981E-01 0.  0.
         14    1    1    2    0    0  0.11352506182E-01  0.21438648204E-02  0.82520918053E-02  0.14197625581E-01  0.00000000000E+00 0. -1.
     999901    1    3    3    0    0  0.11072434919E+00 -0.56098834501E-01 -0.11643606034E-01  0.88878711416E+00  0.88000000000E+00 0. -1.
        -11    1    4    4    0    0 -0.19228782961E-01  0.19413831984E-01 -0.14574976582E-01  0.30973117858E-01  0.51100000000E-03 0.  1.
         11    1    4    4    0    0 -0.10284807241E+00  0.34541137696E-01  0.17966490811E-01  0.10997214240E+00  0.51100000000E-03 0. -1.
</event>
<event>
 8    1  0.2190295E+004  0.1043930E+01  0.7957747E-01            NaN
         13   -1    0    0    0    0  0.00000000000E+00  0.00000000000E+00  0.74505805969E-08  0.10566000000E+00  0.10566000000E+00 0.  1.
     999900   -1    0    0    0    0 -0.00000000000E+00 -0.00000000000E+00 -0.74505805969E-08  0.93827000000E+00  0.93827000000E+00 0. -1.
     999902    2    1    2    0    0 -0.13855261671E-02 -0.13218360612E-01  0.30726776074E-02  0.10302886625E+01  0.10301983508E+01 0.  0.
     999903    2    3    3    0    0 -0.10849922732E+00  0.61265544055E-01 -0.43000727549E-01  0.13947782084E+00  0.45600994703E-01 0.  0.
         14    1    1    2    0    0  0.13855261671E-02  0.13218360612E-01 -0.30726776074E-02  0.13641337461E-01  0.00000000000E+00 0. -1.
     999901    1    3    3    0    0  0.10711370116E+00 -0.74483904667E-01  0.46073405156E-01  0.89081084170E+00  0.88000000000E+00 0. -1.
        -11    1    4    4    0    0 -0.68834034748E-01  0.12984473480E-01 -0.19450419574E-01  0.72700074510E-01  0.51100000000E-03 0. -1.
         11    1    4    4    0    0 -0.39665192576E-01  0.48281070575E-01 -0.23550307975E-01  0.66777746328E-01  0.51100000000E-03 0.  1.
</event>
<event>
 8    1  0.2190295E+004  0.1043930E+01  0.7957747E-01            NaN
         13   -1    0    0    0    0  0.00000000000E+00  0.00000000000E+00  0.74505805969E-08  0.10566000000E+00  0.10566000000E+00 0. -1.
     999900   -1    0    0    0    0 -0.00000000000E+00 -0.00000000000E+00 -0.74505805969E-08  0.93827000000E+00  0.93827000000E+00 0.  1.
     999902    2    1    2    0    0 -0.10044938920E-01 -0.12015706637E-01  0.10080151018E-02  0.10282362401E+01  0.10281164678E+01 0.  0.
     999903    2    3    3    0    0 -0.10164422178E+00  0.82266803162E-01 -0.31269264104E-02  0.13846283190E+00  0.45418095803E-01 0.  0.
         14    1    1    2    0    0  0.10044938920E-01  0.12015706637E-01 -0.10080151018E-02  0.15693759853E-01  0.00000000000E+00 0.  1.
     999901    1    3    3    0    0  0.91599282861E-01 -0.94282509798E-01  0.41349415122E-02  0.88977340824E+00  0.88000000000E+00 0.  1.
        -11    1    4    4    0    0 -0.24616711612E-01 -0.13744659866E-02 -0.21163763253E-02  0.24750996284E-01  0.51100000000E-03 0. -1.
         11    1    4    4    0    0 -0.77027510169E-01  0.83641269148E-01 -0.10105500851E-02  0.11371183562E+00  0.51100000000E-03 0.  1.
</event>
<event>
 8    1  0.2190295E+004  0.1043930E+01  0.7957747E-01            NaN
         13   -1    0    0    0    0  0.00000000000E+00  0.00000000000E+00  0.74505805969E-08  0.10566000000E+00  0.10566000000E+00 0.  1.
     999900   -1    0    0    0    0 -0.00000000000E+00 -0.00000000000E+00 -0.74505805969E-08  0.93827000000E+00  0.93827000000E+00 0.  1.
     999902    2    1    2    0    0 -0.12845261711E-01  0.89920393705E-03  0.62492474372E-02  0.10296169846E+01  0.10295174950E+01 0.  0.
     999903    2    3    3    0    0  0.29093618490E-01  0.66849139646E-01  0.11088490168E+00  0.13997835919E+00  0.44533509990E-01 0.  0.
         14    1    1    2    0    0  0.12845261711E-01 -0.89920393705E-03 -0.62492474372E-02  0.14313015394E-01  0.00000000000E+00 0.  1.
     999901    1    3    3    0    0 -0.41938880201E-01 -0.65949935709E-01 -0.10463565425E+00  0.88963862542E+00  0.88000000000E+00 0. -1.
        -11    1    4    4    0    0  0.25902840236E-01  0.30830893925E-01  0.89055505928E-01  0.97737635584E-01  0.51100000000E-03 0.  1.
         11    1    4    4    0    0  0.31907782538E-02  0.36018245721E-01  0.21829395754E-01  0.42240723605E-01  0.51100000000E-03 0. -1.
</event>
<event>
 8    1  0.2190295E+004  0.1043930E+01  0.7957747E-01            NaN
         13   -1    0    0    0    0  0.00000000000E+00  0.00000000000E+00  0.74505805969E-08  0.10566000000E+00  0.10566000000E+00 0.  1.
     999900   -1    0    0    0    0 -0.00000000000E+00 -0.00000000000E+00 -0.74505805969E-08  0.93827000000E+00  0.93827000000E+00 0.  1.
     999902    2    1    2    0    0  0.71536575601E-02  0.75181886452E-02 -0.79593512498E-02  0.10308514202E+01  0.10307684518E+01 0.  0.
     999903    2    3    3    0    0  0.10770944374E+00  0.12264474964E-01  0.78056795900E-01  0.14094537408E+00  0.44955460984E-01 0.  0.
         14    1    1    2    0    0 -0.71536575601E-02 -0.75181886452E-02  0.79593512498E-02  0.13078579789E-01  0.00000000000E+00 0.  1.
     999901    1    3    3    0    0 -0.10055578618E+00 -0.47462863185E-02 -0.86016147150E-01  0.88990604613E+00  0.88000000000E+00 0. -1.
        -11    1    4    4    0    0  0.12827257866E-01 -0.79261762414E-02  0.27947382170E-01  0.31759724579E-01  0.51100000000E-03 0.  1.
         11    1    4    4    0    0  0.94882185871E-01  0.20190651205E-01  0.50109413730E-01  0.10918564950E+00  0.51100000000E-03 0. -1.
</event>
<event>
 7    1  0.3158424E+004  0.1043930E+01  0.7957747E-01            NaN
         13   -1    0    0    0    0  0.00000000000E+00  0.00000000000E+00  0.74505805969E-08  0.10566000000E+00  0.10566000000E+00 0. -1.
     999900   -1    0    0    0    0 -0.00000000000E+00 -0.00000000000E+00 -0.74505805969E-08  0.93827000000E+00  0.93827000000E+00 0. -1.
     999903    2    1    2    0    0  0.61210684531E-01  0.45664940441E-01  0.90015833386E-01  0.12629488512E+00  0.44894465818E-01 0.  0.
         14    1    1    2    0    0 -0.54775410636E-02 -0.21675094009E-01 -0.24422933790E-01  0.33110313368E-01  0.00000000000E+00 0.  1.
     999901    1    1    2    0    0 -0.55733143468E-01 -0.23989846432E-01 -0.65592899596E-01  0.88452480151E+00  0.88000000000E+00 0.  1.
        -11    1    3    3    0    0  0.44148740618E-01  0.50512940906E-02  0.48075914789E-01  0.65468935947E-01  0.51100000000E-03 0.  1.
         11    1    3    3    0    0  0.17061943913E-01  0.40613646350E-01  0.41939918596E-01  0.60825949173E-01  0.51100000000E-03 0. -1.
</event>
<event>
 8    1  0.2190295E+004  0.1043930E+01  0.7957747E-01            NaN
         13   -1    0    0    0    0  0.00000000000E+00  0.00000000000E+00  0.74505805969E-08  0.10566000000E+00  0.10566000000E+00 0. -1.
     999900   -1    0    0    0    0 -0.00000000000E+00 -0.00000000000E+00 -0.74505805969E-08  0.93827000000E+00  0.93827000000E+00 0. -1.
     999902    2    1    2    0    0  0.11649326617E-01 -0.40031881839E-02 -0.81920951178E-02  0.10291366654E+01  0.10290303364E+01 0.  0.
     999903    2    3    3    0    0 -0.17942238861E-01 -0.47737002340E-01  0.12017375796E+00  0.13825726869E+00  0.45525760998E-01 0.  0.
         14    1    1    2    0    0 -0.11649326617E-01  0.40031881839E-02  0.81920951178E-02  0.14793334603E-01  0.00000000000E+00 0.  1.
     999901    1    3    3    0    0  0.29591565478E-01  0.43733814156E-01 -0.12836585308E+00  0.89087939671E+00  0.88000000000E+00 0. -1.
        -11    1    4    4    0    0 -0.54612532397E-02 -0.39781682362E-01  0.11617127933E+00  0.12291637320E+00  0.51100000000E-03 0.  1.
         11    1    4    4    0    0 -0.12480985622E-01 -0.79553199782E-02  0.40024786265E-02  0.15340895482E-01  0.51100000000E-03 0. -1.
</event>
<event>
 8    1  0.2190295E+004  0.1043930E+01  0.7957747E-01            NaN
         13   -1    0    0    0    0  0.00000000000E+00  0.00000000000E+00  0.74505805969E-08  0.10566000000E+00  0.10566000000E+00 0. -1.
     999900   -1    0    0    0    0 -0.00000000000E+00 -0.00000000000E+00 -0.74505805969E-08  0.93827000000E+00  0.93827000000E+00 0. -1.
     999902    2    1    2    0    0  0.11932630726E-01 -0.28611949957E-02 -0.45232896362E-02  0.10308519932E+01  0.10307690321E+01 0.  0.
     999903    2    3    3    0    0  0.10256760629E+00  0.83330957199E-01  0.26692654548E-01  0.14145994181E+00  0.42828203833E-01 0.  0.
         14    1    1    2    0    0 -0.11932630726E-01  0.28611949957E-02  0.45232896362E-02  0.13078006804E-01  0.00000000000E+00 0. -1.
     999901    1    3    3    0    0 -0.90634975560E-01 -0.86192152195E-01 -0.31215944184E-01  0.88939205138E+00  0.88000000000E+00 0. -1.
        -11    1    4    4    0    0  0.73321170615E-01  0.32350125298E-01  0.15315037050E-01  0.81592500562E-01  0.51100000000E-03 0. -1.
         11    1    4    4    0    0  0.29246435671E-01  0.50980831901E-01  0.11377617498E-01  0.59867441249E-01  0.51100000000E-03 0.  1.
</event>
<event>
 8    1  0.2190295E+004  0.1043930E+01  0.7957747E-01            NaN
         13   -1    0    0    0    0  0.00000000000E+00  0.00000000000E+00  0.74505805969E-08  0.10566000000E+00  0.10566000000E+00 0.  1.
     999900   -1    0    0    0    0 -0.00000000000E+00 -0.00000000000E+00 -0.74505805969E-08  0.93827000000E+00  0.93827000000E+00 0. -1.
     999902    2    1    2    0    0  0.79537669963E-02 -0.95822929431E-02 -0.66500349833E-02  0.10298124325E+01  0.10297156600E+01 0.  0.
     999903    2    3    3    0    0  0.93647694305E-01  0.89780074341E-01 -0.29818814846E-01  0.13978258940E+00  0.42657451670E-01 0.  0.
         14    1    1    2    0    0 -0.79537669963E-02  0.95822929431E-02  0.66500349833E-02  0.14117567523E-01  0.00000000000E+00 0.  1.
     999901    1    3    3    0    0 -0.85693927309E-01 -0.99362367284E-01  0.23168779863E-01  0.89002984308E+00  0.88000000000E+00 0.  1.
        -11    1    4    4    0    0  0.61504682550E-01  0.51344416242E-01 -0.38562904876E-01  0.88918129806E-01  0.51100000000E-03 0.  1.
         11    1    4    4    0    0  0.32143011755E-01  0.38435658098E-01  0.87440900302E-02  0.50864459592E-01  0.51100000000E-03 0. -1.
</event>
<event>
 8    1  0.2190295E+004  0.1043930E+01  0.7957747E-01            NaN
         13   -1    0    0    0    0  0.00000000000E+00  0.00000000000E+00  0.74505805969E-08  0.10566000000E+00  0.10566000000E+00 0.  1.
     999900   -1    0    0    0    0 -0.00000000000E+00 -0.00000000000E+00 -0.74505805969E-08  0.93827000000E+00  0.93827000000E+00 0. -1.
     999902    2    1    2    0    0 -0.12654743939E-01  0.70289692304E-02  0.50426552284E-02  0.10286010299E+01  0.10284868018E+01 0.  0.
     999903    2    3    3    0    0  0.31652605377E-01 -0.10374876323E+00 -0.65151119912E-01  0.13778005278E+00  0.54525051288E-01 0.  0.
         14    1    1    2    0    0  0.12654743939E-01 -0.70289692304E-02 -0.50426552284E-02  0.15328970101E-01  0.00000000000E+00 0. -1.
     999901    1    3    3    0    0 -0.44307349315E-01  0.11077773246E+00  0.70193775140E-01  0.89082097712E+00  0.88000000000E+00 0.  1.
        -11    1    4    4    0    0 -0.49302538772E-03 -0.70019853527E-01 -0.19827610988E-01  0.72776495110E-01  0.51100000000E-03 0. -1.
         11    1    4    4    0    0  0.32145630764E-01 -0.33728909705E-01 -0.45323508924E-01  0.65003557667E-01  0.51100000000E-03 0.  1.
</event>
<event>
 8    1  0.2190295E+004  0.1043930E+01  0.7957747E-01            NaN
         13   -1    0    0    0    0  0.00000000000E+00  0.00000000000E+00  0.74505805969E-08  0.10566000000E+00  0.10566000000E+00 0. -1.
     999900   -1    0    0    0    0 -0.00000000000E+00 -0.00000000000E+00 -0.74505805969E-08  0.93827000000E+00  0.93827000000E+00 0. -1.
     999902    2    1    2    0    0 -0.11378095325E-01  0.20153484631E-02 -0.88177766216E-02  0.10293946683E+01  0.10292920418E+01 0.  0.
     999903    2    3    3    0    0 -0.75710513175E-01  0.10418128004E+00 -0.35792517036E-01  0.14074165719E+00  0.44060059894E-01 0.  0.
         14    1    1    2    0    0  0.11378095325E-01 -0.20153484631E-02  0.88177766216E-02  0.14535331685E-01  0.00000000000E+00 0. -1.
     999901    1    3    3    0    0  0.64332417850E-01 -0.10216593157E+00  0.26974740415E-01  0.88865301112E+00  0.88000000000E+00 0.  1.
        -11    1    4    4    0    0 -0.59584328109E-01  0.73532448284E-01 -0.56279672858E-02  0.94811646139E-01  0.51100000000E-03 0.  1.
         11    1    4    4    0    0 -0.16126185066E-01  0.30648831751E-01 -0.30164549751E-01  0.45930011051E-01  0.51100000000E-03 0. -1.
</event>
<event>
 8    1  0.2190295E+004  0.1043930E+01  0.7957747E-01            NaN
         13   -1    0    0    0    0  0.00000000000E+00  0.00000000000E+00  0.74505805969E-08  0.10566000000E+00  0.10566000000E+00 0. -1.
     999900   -1    0    0    0    0 -0.00000000000E+00 -0.00000000000E+00 -0.74505805969E-08  0.93827000000E+00  0.93827000000E+00 0. -1.
     999902    2    1    2    0    0  0.93626722794E-02 -0.90640712957E-02  0.11148743716E-02  0.10308510105E+01  0.10307680369E+01 0.  0.
     999903    2    3    3    0    0  0.57752589649E-01 -0.72762252489E-01  0.96800059798E-01  0.14205705404E+00  0.46693126115E-01 0.  0.
         14    1    1    2    0    0 -0.93626722794E-02  0.90640712957E-02 -0.11148743716E-02  0.13078989469E-01  0.00000000000E+00 0.  1.
     999901    1    3    3    0    0 -0.48389917370E-01  0.63698181193E-01 -0.95685185426E-01  0.88879395649E+00  0.88000000000E+00 0. -1.
        -11    1    4    4    0    0  0.16948439315E-01 -0.52840166786E-01  0.69997252111E-01  0.89326419638E-01  0.51100000000E-03 0.  1.
         11    1    4    4    0    0  0.40804150334E-01 -0.19922085703E-01  0.26802807686E-01  0.52730634399E-01  0.51100000000E-03 0. -1.
</event>
<event>
 8    1  0.2190295E+004  0.1043930E+01  0.7957747E-01            NaN
         13   -1    0    0    0    0  0.00000000000E+00  0.00000000000E+00  0.74505805969E-08  0.10566000000E+00  0.10566000000E+00 0.  1.
     999900   -1    0    0    0    0 -0.00000000000E+00 -0.00000000000E+00 -0.74505805969E-08  0.93827000000E+00  0.93827000000E+00 0.  1.
     999902    2    1    2    0    0 -0.54325323990E-02 -0.39471511352E-02 -0.22105076809E-01  0.10208274713E+01  0.10205660191E+01 0.  0.
     999903    2    3    3    0    0  0.94349532036E-01 -0.55614064646E-01 -0.60723939401E-01  0.13284247884E+00  0.44327970699E-01 0.  0.
         14    1    1    2    0    0  0.54325323990E-02  0.39471511352E-02  0.22105076809E-01  0.23102528672E-01  0.00000000000E+00 0.  1.
     999901    1    3    3    0    0 -0.99782064435E-01  0.51666913511E-01  0.38618862592E-01  0.88798499249E+00  0.88000000000E+00 0. -1.
        -11    1    4    4    0    0  0.49169269376E-01 -0.89335767615E-02 -0.11365247816E-01  0.51252861614E-01  0.51100000000E-03 0. -1.
         11    1    4    4    0    0  0.45180262660E-01 -0.46680487885E-01 -0.49358691585E-01  0.81589617226E-01  0.51100000000E-03 0.  1.
</event>
<event>
 8    1  0.2190295E+004  0.1043930E+01  0.7957747E-01            NaN
         13   -1    0    0    0    0  0.00000000000E+00  0.00000000000E+00  0.74505805969E-08  0.10566000000E+00  0.10566000000E+00 0. -1.
     999900   -1    0    0    0    0 -0.00000000000E+00 -0.00000000000E+00 -0.74505805969E-08  0.93827000000E+00  0.93827000000E+00 0. -1.
     999902    2    1    2    0    0  0.68203454044E-02 -0.15806387825E-02 -0.11156775559E-01  0.10307584712E+01  0.10306743117E+01 0.  0.
     999903    2    3    3    0    0  0.72510743721E-01  0.10922079063E+00  0.25157163310E-01  0.14064000303E+00  0.44268934103E-01 0.  0.
         14    1    1    2    0    0 -0.68203454044E-02  0.15806387825E-02  0.11156775559E-01  0.13171528813E-01  0.00000000000E+00 0. -1.
     999901    1    3    3    0    0 -0.65690398316E-01 -0.11080142941E+00 -0.36313938869E-01  0.89011846815E+00  0.88000000000E+00 0.  1.
        -11    1    4    4    0    0  0.26948587963E-01  0.52214649439E-01  0.32743684962E-01  0.67268165094E-01  0.51100000000E-03 0.  1.
         11    1    4    4    0    0  0.45562155758E-01  0.57006141192E-01 -0.75865216522E-02  0.73371837940E-01  0.51100000000E-03 0. -1.
</event>
<event>
 8    1  0.2190295E+004  0.1043930E+01  0.7957747E-01            NaN
         13   -1    0    0    0    0  0.00000000000E+00  0.00000000000E+00  0.74505805969E-08  0.10566000000E+00  0.10566000000E+00 0. -1.
     999900   -1    0    0    0    0 -0.00000000000E+00 -0.00000000000E+00 -0.74505805969E-08  0.93827000000E+00  0.93827000000E+00 0.  1.
     999902    2    1    2    0    0 -0.27052071359E-02  0.13268366918E-01  0.25243113680E-02  0.10301553910E+01  0.10300632940E+01 0.  0.
     999903    2    3    3    0    0  0.72260166401E-01 -0.72437809609E-01  0.83097738681E-01  0.13916861602E+00  0.44653125337E-01 0.  0.
         14    1    1    2    0    0  0.27052071359E-02 -0.13268366918E-01 -0.25243113680E-02  0.13774609040E-01  0.00000000000E+00 0.  1.
     999901    1    3    3    0    0 -0.74965373536E-01  0.85706176528E-01 -0.80573427313E-01  0.89098677494E+00  0.88000000000E+00 0.  1.
        -11    1    4    4    0    0  0.24606340454E-01 -0.34735774912E-01  0.61254935425E-01  0.74595403908E-01  0.51100000000E-03 0.  1.
         11    1    4    4    0    0  0.47653825946E-01 -0.37702034697E-01  0.21842803256E-01  0.64573212114E-01  0.51100000000E-03 0. -1.
</event>
<event>
 8    1  0.2190295E+004  0.1043930E+01  0.7957747E-01            NaN
         13   -1    0    0    0    0  0.00000000000E+00  0.00000000000E+00  0.74505805969E-08  0.10566000000E+00  0.10566000000E+00 0.  1.
     999900   -1    0    0    0    0 -0.00000000000E+00 -0.00000000000E+00 -0.74505805969E-08  0.93827000000E+00  0.93827000000E+00 0.  1.
     999902    2    1    2    0    0 -0.11141863468E-01 -0.50493944318E-02 -0.54210634017E-02  0.10305499614E+01  0.10304630985E+01 0.  0.
     999903    2    3    3    0    0 -0.10606399548E+00 -0.83130034388E-01 -0.69067169720E-02  0.14200676902E+00  0.44249813039E-01 0.  0.
         14    1    1    2    0    0  0.11141863468E-01  0.50493944318E-02  0.54210634017E-02  0.13380038643E-01  0.00000000000E+00 0.  1.
     999901    1    3    3    0    0  0.94922132010E-01  0.78080639956E-01  0.14856535703E-02  0.88854319234E+00  0.88000000000E+00 0. -1.
        -11    1    4    4    0    0 -0.54481175494E-01 -0.57565829200E-01 -0.22439137198E-01  0.82375962355E-01  0.51100000000E-03 0. -1.
         11    1    4    4    0    0 -0.51582819985E-01 -0.25564205188E-01  0.15532420226E-01  0.59630806666E-01  0.51100000000E-03 0.  1.
</event>
<event>
 8    1  0.2190295E+004  0.1043930E+01  0.7957747E-01            NaN
         13   -1    0    0    0    0  0.00000000000E+00  0.00000000000E+00  0.74505805969E-08  0.10566000000E+00  0.10566000000E+00 0.  1.
     999900   -1    0    0    0    0 -0.00000000000E+00 -0.00000000000E+00 -0.74505805969E-08  0.93827000000E+00  0.93827000000E+00 0.  1.
     999902    2    1    2    0    0 -0.13078071168E-01 -0.45519257806E-02 -0.29202798903E-02  0.10297778267E+01  0.10296805759E+01 0.  0.
     999903    2    3    3    0    0  0.76893209044E-01  0.39664864945E-01 -0.98949152286E-01  0.13889539892E+00  0.44890199306E-01 0.  0.
         14    1    1    2    0    0  0.13078071168E-01  0.45519257806E-02  0.29202798903E-02  0.14152173276E-01  0.00000000000E+00 0.  1.
     999901    1    3    3    0    0 -0.89971280212E-01 -0.44216790725E-01  0.96028872395E-01  0.89088242781E+00  0.88000000000E+00 0. -1.
        -11    1    4    4    0    0  0.76286266134E-01  0.21500176841E-01 -0.79095198802E-01  0.11197394161E+00  0.51100000000E-03 0.  1.
         11    1    4    4    0    0  0.60694291029E-03  0.18164688104E-01 -0.19853953484E-01  0.26921457307E-01  0.51100000000E-03 0. -1.
</event>
<event>
 8    1  0.2190295E+004  0.1043930E+01  0.7957747E-01            NaN
         13   -1    0    0    0    0  0.00000000000E+00  0.00000000000E+00  0.74505805969E-08  0.10566000000E+00  0.10566000000E+00 0.  1.
     999900   -1    0    0    0    0 -0.00000000000E+00 -0.00000000000E+00 -0.74505805969E-08  0.93827000000E+00  0.93827000000E+00 0.  1.
     999902    2    1    2    0    0  0.50588360091E-02  0.12762603317E-01  0.25550452359E-02  0.10299656124E+01  0.10298709427E+01 0.  0.
     999903    2    3    3    0    0  0.10418944934E+00 -0.70116847300E-02 -0.81518329010E-01  0.14019809600E+00  0.45887504624E-01 0.  0.
         14    1    1    2    0    0 -0.50588360091E-02 -0.12762603317E-01 -0.25550452359E-02  0.13964387611E-01  0.00000000000E+00 0. -1.
     999901    1    3    3    0    0 -0.99130613331E-01  0.19774288047E-01  0.84073374246E-01  0.88976751639E+00  0.88000000000E+00 0. -1.
        -11    1    4    4    0    0  0.20505765516E-01  0.15619876752E-01 -0.29154788648E-01  0.38919529689E-01  0.51100000000E-03 0. -1.
         11    1    4    4    0    0  0.83683683824E-01 -0.22631561482E-01 -0.52363540362E-01  0.10127856631E+00  0.51100000000E-03 0.  1.
</event>
<event>
 8    1  0.2190295E+004  0.1043930E+01  0.7957747E-01            NaN
         13   -1    0    0    0    0  0.00000000000E+00  0.00000000000E+00  0.74505805969E-08  0.10566000000E+00  0.10566000000E+00 0. -1.
     999900   -1    0    0    0    0 -0.00000000000E+00 -0.00000000000E+00 -0.74505805969E-08  0.93827000000E+00  0.93827000000E+00 0.  1.
     999902    2    1    2    0    0  0.10413505311E-01  0.18671080663E-03 -0.91007116095E-02  0.10300989152E+01  0.10300060564E+01 0.  0.
     999903    2    3    3    0    0 -0.69502336801E-01  0.82019440943E-01 -0.77358066835E-01  0.14007520540E+00  0.45596372109E-01 0.  0.
         14    1    1    2    0    0 -0.10413505311E-01 -0.18671080663E-03  0.91007116095E-02  0.13831084758E-01  0.00000000000E+00 0. -1.
     999901    1    3    3    0    0  0.79915842111E-01 -0.81832730136E-01  0.68257355226E-01  0.89002370984E+00  0.88000000000E+00 0.  1.
        -11    1    4    4    0    0 -0.55722385197E-01  0.48397857972E-01 -0.28352583486E-01  0.79066218954E-01  0.51100000000E-03 0. -1.
         11    1    4    4    0    0 -0.13779951604E-01  0.33621582970E-01 -0.49005483349E-01  0.61008986444E-01  0.51100000000E-03 0.  1.
</event>
<event>
 8    1  0.2190295E+004  0.1043930E+01  0.7957747E-01            NaN
         13   -1    0    0    0    0  0.00000000000E+00  0.00000000000E+00  0.74505805969E-08  0.10566000000E+00  0.10566000000E+00 0.  1.
     999900   -1    0    0    0    0 -0.00000000000E+00 -0.00000000000E+00 -0.74505805969E-08  0.93827000000E+00  0.93827000000E+00 0.  1.
     999902    2    1    2    0    0 -0.13667515338E-02  0.95320048070E-02 -0.99193104572E-02  0.10301053899E+01  0.10300126186E+01 0.  0.
     999903    2    3    3    0    0  0.21552529237E-01 -0.77053570695E-01  0.10316404255E+00  0.13835979832E+00  0.45813205977E-01 0.  0.
         14    1    1    2    0    0  0.13667515338E-02 -0.95320048070E-02  0.99193104572E-02  0.13824610133E-01  0.00000000000E+00 0.  1.
     999901    1    3    3    0    0 -0.22919280771E-01  0.86585575502E-01 -0.11308335301E+00  0.89174559155E+00  0.88000000000E+00 0.  1.
        -11    1    4    4    0    0  0.23520645470E-01 -0.29411519778E-01  0.20379182230E-01  0.42823246588E-01  0.51100000000E-03 0. -1.
         11    1    4    4    0    0 -0.19681162333E-02 -0.47642050917E-01  0.82784860323E-01  0.95536551731E-01  0.51100000000E-03 0.  1.
</event>
<event>
 8    1  0.2190295E+004  0.1043930E+01  0.7957747E-01            NaN
         13   -1    0    0    0    0  0.00000000000E+00  0.00000000000E+00  0.74505805969E-08  0.10566000000E+00  0.10566000000E+00 0. -1.
     999900   -1    0    0    0    0 -0.00000000000E+00 -0.00000000000E+00 -0.74505805969E-08  0.93827000000E+00  0.93827000000E+00 0. -1.
     999902    2    1    2    0    0  0.87068933415E-02 -0.11144337398E-01  0.12496409952E-02  0.10297325407E+01  0.10296346622E+01 0.  0.
     999903    2    3    3    0    0  0.36651262939E-01  0.11926809129E+00 -0.41638611352E-01  0.13865022603E+00  0.43839691474E-01 0.  0.
         14    1    1    2    0    0 -0.87068933415E-02  0.11144337398E-01 -0.12496409952E-02  0.14197459291E-01  0.00000000000E+00 0. -1.
     999901    1    3    3    0    0 -0.27944369597E-01 -0.13041242868E+00  0.42888252347E-01  0.89108231468E+00  0.88000000000E+00 0.  1.
        -11    1    4    4    0    0  0.33781022697E-01  0.38514201926E-01 -0.19988722011E-01  0.54993739399E-01  0.51100000000E-03 0. -1.
         11    1    4    4    0    0  0.28702402418E-02  0.80753889360E-01 -0.21649889341E-01  0.83656486630E-01  0.51100000000E-03 0.  1.
</event>
<event>
 7    1  0.2190295E+004  0.1043930E+01  0.7957747E-01            NaN
         13   -1    0    0    0    0  0.00000000000E+00  0.00000000000E+00  0.74505805969E-08  0.10566000000E+00  0.10566000000E+00 0. -1.
     999900   -1    0    0    0    0 -0.00000000000E+00 -0.00000000000E+00 -0.74505805969E-08  0.93827000000E+00  0.93827000000E+00 0.  1.
     999903    2    1    2    0    0  0.19468512717E-01  0.24575452590E-01 -0.10790559441E+00  0.12119304448E+00  0.45400009569E-01 0.  0.
         14    1    1    2    0    0 -0.34074094996E-01 -0.45878789641E-02 -0.64858725602E-02  0.34987985453E-01  0.00000000000E+00 0. -1.
     999901    1    1    2    0    0  0.14605582279E-01 -0.19987573625E-01  0.11439146697E+00  0.88774897006E+00  0.88000000000E+00 0. -1.
        -11    1    3    3    0    0 -0.10826199109E-01 -0.96033741813E-03 -0.49045898673E-01  0.50238333299E-01  0.51100000000E-03 0. -1.
         11    1    3    3    0    0  0.30294711826E-01  0.25535790008E-01 -0.58859695738E-01  0.70954711185E-01  0.51100000000E-03 0.  1.
</event>
<event>
 8    1  0.2190295E+004  0.1043930E+01  0.7957747E-01            NaN
         13   -1    0    0    0    0  0.00000000000E+00  0.00000000000E+00  0.74505805969E-08  0.10566000000E+00  0.10566000000E+00 0.  1.
     999900   -1    0    0    0    0 -0.00000000000E+00 -0.00000000000E+00 -0.74505805969E-08  0.93827000000E+00  0.93827000000E+00 0.  1.
     999902    2    1    2    0    0  0.10241150758E-01 -0.31425152246E-02  0.70953636550E-02  0.10310808461E+01  0.10310007810E+01 0.  0.
     999903    2    3    3    0    0 -0.33197115131E-01  0.12607308071E+00  0.24931744518E-01  0.14040599540E+00  0.45779706482E-01 0.  0.
         14    1    1    2    0    0 -0.10241150758E-01  0.31425152246E-02 -0.70953636550E-02  0.12849153909E-01  0.00000000000E+00 0. -1.
     999901    1    3    3    0    0  0.43438265889E-01 -0.12921559594E+00 -0.17836380863E-01  0.89067485069E+00  0.88000000000E+00 0. -1.
        -11    1    4    4    0    0 -0.25114513528E-01  0.67208490285E-01 -0.84609968680E-02  0.72246588467E-01  0.51100000000E-03 0. -1.
         11    1    4    4    0    0 -0.80826016032E-02  0.58864590427E-01  0.33392741386E-01  0.68159406930E-01  0.51100000000E-03 0.  1.
</event>
<event>
 8    1  0.2190295E+004  0.1043930E+01  0.7957747E-01            NaN
         13   -1    0    0    0    0  0.00000000000E+00  0.00000000000E+00  0.74505805969E-08  0.10566000000E+00  0.10566000000E+00 0.  1.
     999900   -1    0    0    0    0 -0.00000000000E+00 -0.00000000000E+00 -0.74505805969E-08  0.93827000000E+00  0.93827000000E+00 0. -1.
     999902    2    1    2    0    0 -0.16329457617E-01 -0.12115964656E-01  0.40297424926E-02  0.10232011165E+01  0.10229911232E+01 0.  0.
     999903    2    3    3    0    0  0.19670041686E-02 -0.51956472158E-01 -0.11563862225E+00  0.13402028898E+00  0.43425830991E-01 0.  0.
         14    1    1    2    0    0  0.16329457617E-01  0.12115964656E-01 -0.40297424926E-02  0.20728883476E-01  0.00000000000E+00 0. -1.
     999901    1    3    3    0    0 -0.18296461786E-01  0.39840507502E-01  0.11966836474E+00  0.88918082754E+00  0.88000000000E+00 0.  1.
        -11    1    4    4    0    0 -0.17661701638E-01 -0.28848045930E-01 -0.39156020795E-01  0.51745536467E-01  0.51100000000E-03 0.  1.
         11    1    4    4    0    0  0.19628705806E-01 -0.23108426227E-01 -0.76482601457E-01  0.82274752512E-01  0.51100000000E-03 0. -1.
</event>
<event>
 8    1  0.2190295E+004  0.1043930E+01  0.7957747E-01            NaN
         13   -1    0    0    0    0  0.00000000000E+00  0.00000000000E+00  0.74505805969E-08  0.10566000000E+00  0.10566000000E+00 0. -1.
     999900   -1    0    0    0    0 -0.00000000000E+00 -0.00000000000E+00 -0.74505805969E-08  0.93827000000E+00  0.93827000000E+00 0.  1.
     999902    2    1    2    0    0  0.30271934251E-02  0.11998470101E-01 -0.41149142606E-02  0.10308893058E+01  0.10308068205E+01 0.  0.
     999903    2    3    3    0    0  0.10067821793E+00  0.60400110528E-01 -0.66462459035E-01  0.14197667924E+00  0.44224903294E-01 0.  0.
         14    1    1    2    0    0 -0.30271934251E-02 -0.11998470101E-01  0.41149142606E-02  0.13040694159E-01  0.00000000000E+00 0. -1.
     999901    1    3    3    0    0 -0.97651024503E-01 -0.48401640427E-01  0.62347544774E-01  0.88891262660E+00  0.88000000000E+00 0.  1.
        -11    1    4    4    0    0  0.64570091239E-01  0.16717615417E-01 -0.48680542316E-01  0.82576217333E-01  0.51100000000E-03 0. -1.
         11    1    4    4    0    0  0.36108126690E-01  0.43682495111E-01 -0.17781916719E-01  0.59400461912E-01  0.51100000000E-03 0.  1.
</event>
<event>
 8    1  0.2190295E+004  0.1043930E+01  0.7957747E-01            NaN
         13   -1    0    0    0    0  0.00000000000E+00  0.00000000000E+00  0.74505805969E-08  0.10566000000E+00  0.10566000000E+00 0.  1.
     999900   -1    0    0    0    0 -0.00000000000E+00 -0.00000000000E+00 -0.74505805969E-08  0.93827000000E+00  0.93827000000E+00 0.  1.
     999902    2    1    2    0    0  0.12823338997E-01 -0.61772798436E-02  0.21748391100E-02  0.10295311551E+01  0.10294304603E+01 0.  0.
     999903    2    3    3    0    0  0.10181676682E+00 -0.53141795544E-01 -0.67675293151E-01  0.14104675067E+00  0.46081841693E-01 0.  0.
         14    1    1    2    0    0 -0.12823338997E-01  0.61772798436E-02 -0.21748391100E-02  0.14398844900E-01  0.00000000000E+00 0. -1.
     999901    1    3    3    0    0 -0.88993427821E-01  0.46964515700E-01  0.69850132261E-01  0.88848440443E+00  0.88000000000E+00 0.  1.
        -11    1    4    4    0    0  0.23539371247E-01 -0.20142514626E-01  0.21823172839E-02  0.31061978750E-01  0.51100000000E-03 0.  1.
         11    1    4    4    0    0  0.78277395571E-01 -0.32999280918E-01 -0.69857610435E-01  0.10998477192E+00  0.51100000000E-03 0. -1.
</event>
<event>
 8    1  0.2190295E+004  0.1043930E+01  0.7957747E-01            NaN
         13   -1    0    0    0    0  0.00000000000E+00  0.00000000000E+00  0.74505805969E-08  0.10566000000E+00  0.10566000000E+00 0. -1.
     999900   -1    0    0    0    0 -0.00000000000E+00 -0.00000000000E+00 -0.74505805969E-08  0.93827000000E+00  0.93827000000E+00 0.  1.
     999902    2    1    2    0    0  0.59888715067E-04  0.74523309574E-02  0.12784476239E-01  0.10291319036E+01  0.10290255057E+01 0.  0.
     999903    2    3    3    0    0 -0.91079497166E-01  0.18227610417E-01 -0.91968483345E-01  0.13817978548E+00  0.44807706928E-01 0.  0.
         14    1    1    2    0    0 -0.59888715067E-04 -0.74523309574E-02 -0.12784476239E-01  0.14798096366E-01  0.00000000000E+00 0.  1.
     999901    1    3    3    0    0  0.91139385881E-01 -0.10775279460E-01  0.10475295958E+00  0.89095211816E+00  0.88000000000E+00 0. -1.
        -11    1    4    4    0    0 -0.80241366336E-02 -0.11303654251E-01 -0.20219406973E-01  0.24520295828E-01  0.51100000000E-03 0. -1.
         11    1    4    4    0    0 -0.83055360532E-01  0.29531264669E-01 -0.71749076372E-01  0.11365948965E+00  0.51100000000E-03 0.  1.
</event>
<event>
 8    1  0.2190295E+004  0.1043930E+01  0.7957747E-01            NaN
         13   -1    0    0    0    0  0.00000000000E+00  0.00000000000E+00  0.74505805969E-08  0.10566000000E+00  0.10566000000E+00 0.  1.
     999900   -1    0    0    0    0 -0.00000000000E+00 -0.00000000000E+00 -0.74505805969E-08  0.93827000000E+00  0.93827000000E+00 0. -1.
     999902    2    1    2    0    0 -0.94501941831E-02 -0.38724358070E-02  0.81579303657E-02  0.10308588961E+01  0.10307760232E+01 0.  0.
     999903    2    3    3    0    0 -0.10700047261E+00 -0.46162231049E-01  0.68344324073E-01  0.14241819150E+00  0.45077066499E-01 0.  0.
         14    1    1    2    0    0  0.94501941831E-02  0.38724358070E-02 -0.81579303657E-02  0.13071103895E-01  0.00000000000E+00 0. -1.
     999901    1    3    3    0    0  0.97550278428E-01  0.42289795242E-01 -0.60186393708E-01  0.88844070460E+00  0.88000000000E+00 0. -1.
        -11    1    4    4    0    0 -0.62241301282E-01 -0.50231813626E-01  0.42624385179E-01  0.90632852864E-01  0.51100000000E-03 0. -1.
         11    1    4    4    0    0 -0.44759171329E-01  0.40695825771E-02  0.25719938895E-01  0.51785338641E-01  0.51100000000E-03 0.  1.
</event>
<event>
 8    1  0.2190295E+004  0.1043930E+01  0.7957747E-01            NaN
         13   -1    0    0    0    0  0.00000000000E+00  0.00000000000E+00  0.74505805969E-08  0.10566000000E+00  0.10566000000E+00 0.  1.
     999900   -1    0    0    0    0 -0.00000000000E+00 -0.00000000000E+00 -0.74505805969E-08  0.93827000000E+00  0.93827000000E+00 0. -1.
     999902    2    1    2    0    0  0.77448317913E-02 -0.13927329688E-01 -0.36255380474E-02  0.10275868835E+01  0.10274569118E+01 0.  0.
     999903    2    3    3    0    0  0.64158174008E-01 -0.39922275435E-01 -0.10801903839E+00  0.13924224016E+00  0.44835582110E-01 0.  0.
         14    1    1    2    0    0 -0.77448317913E-02  0.13927329688E-01  0.36255380474E-02  0.16343116528E-01  0.00000000000E+00 0.  1.
     999901    1    3    3    0    0 -0.56413342216E-01  0.25994945747E-01  0.10439350034E+00  0.88834464331E+00  0.88000000000E+00 0.  1.
        -11    1    4    4    0    0  0.32475845589E-01 -0.27213272312E-01 -0.24339553127E-01  0.48866324847E-01  0.51100000000E-03 0.  1.
         11    1    4    4    0    0  0.31682328418E-01 -0.12709003123E-01 -0.83679485261E-01  0.90375915314E-01  0.51100000000E-03 0. -1.
</event>
<event>
 8    1  0.2190295E+004  0.1043930E+01  0.7957747E-01            NaN
         13   -1    0    0    0    0  0.00000000000E+00  0.00000000000E+00  0.74505805969E-08  0.10566000000E+00  0.10566000000E+00 0. -1.
     999900   -1    0    0    0    0 -0.00000000000E+00 -0.00000000000E+00 -0.74505805969E-08  0.93827000000E+00  0.93827000000E+00 0. -1.
     999902    2    1    2    0    0  0.47205857540E-02  0.35339730876E-02  0.11679956670E-01  0.10308458767E+01  0.10307628375E+01 0.  0.
     999903    2    3    3    0    0  0.83366506920E-01  0.28084066199E-01 -0.99380604688E-01  0.14004716973E+00  0.44699171254E-01 0.  0.
         14    1    1    2    0    0 -0.47205857540E-02 -0.35339730876E-02 -0.11679956670E-01  0.13084123336E-01  0.00000000000E+00 0. -1.
     999901    1    3    3    0    0 -0.78645921166E-01 -0.24550093111E-01  0.11106056136E+00  0.89079870693E+00  0.88000000000E+00 0.  1.
        -11    1    4    4    0    0  0.24289568780E-01 -0.88342550922E-02 -0.44078058671E-01  0.51099545905E-01  0.51100000000E-03 0.  1.
         11    1    4    4    0    0  0.59076938141E-01  0.36918321291E-01 -0.55302546017E-01  0.88947623824E-01  0.51100000000E-03 0. -1.
</event>
<event>
 8    1  0.2190295E+004  0.1043930E+01  0.7957747E-01            NaN
         13   -1    0    0    0    0  0.00000000000E+00  0.00000000000E+00  0.74505805969E-08  0.10566000000E+00  0.10566000000E+00 0.  1.
     999900   -1    0    0    0    0 -0.00000000000E+00 -0.00000000000E+00 -0.74505805969E-08  0.93827000000E+00  0.93827000000E+00 0. -1.
     999902    2    1    2    0    0 -0.45561837700E-02 -0.11164425212E-01  0.69486807394E-02  0.10300128392E+01  0.10299188131E+01 0.  0.
     999903    2    3    3    0    0  0.48660771881E-01  0.37159518692E-01 -0.11594022642E+00  0.13857078756E+00  0.44844470267E-01 0.  0.
         14    1    1    2    0    0  0.45561837700E-02  0.11164425212E-01 -0.69486807394E-02  0.13917160805E-01  0.00000000000E+00 0. -1.
     999901    1    3    3    0    0 -0.53216955651E-01 -0.48323943904E-01  0.12288890716E+00  0.89144205164E+00  0.88000000000E+00 0.  1.
        -11    1    4    4    0    0  0.40590901238E-01  0.39380584919E-01 -0.61752964495E-01  0.83738530419E-01  0.51100000000E-03 0.  1.
         11    1    4    4    0    0  0.80698706433E-02 -0.22210662273E-02 -0.54187261922E-01  0.54832257140E-01  0.51100000000E-03 0. -1.
</event>
<event>
 8    1  0.2190295E+004  0.1043930E+01  0.7957747E-01            NaN
         13   -1    0    0    0    0  0.00000000000E+00  0.00000000000E+00  0.74505805969E-08  0.10566000000E+00  0.10566000000E+00 0.  1.
     999900   -1    0    0    0    0 -0.00000000000E+00 -0.00000000000E+00 -0.74505805969E-08  0.93827000000E+00  0.93827000000E+00 0.  1.
     999902    2    1    2    0    0 -0.42670007294E-02 -0.13890160726E-01  0.25673165421E-02  0.10291741546E+01  0.10290683677E+01 0.  0.
     999903    2    3    3    0    0 -0.69144116814E-01  0.88699942121E-01  0.67428256392E-01  0.13847739870E+00  0.44506533995E-01 0.  0.
         14    1    1    2    0    0  0.42670007294E-02  0.13890160726E-01 -0.25673165421E-02  0.14755845433E-01  0.00000000000E+00 0. -1.
     999901    1    3    3    0    0  0.64877116084E-01 -0.10259010285E+00 -0.64860939850E-01  0.89069675587E+00  0.88000000000E+00 0.  1.
        -11    1    4    4    0    0 -0.62304910073E-01  0.59324271961E-01  0.31625765422E-01  0.91660903456E-01  0.51100000000E-03 0. -1.
         11    1    4    4    0    0 -0.68392067409E-02  0.29375670161E-01  0.35802490970E-01  0.46816495244E-01  0.51100000000E-03 0.  1.
</event>
<event>
 8    1  0.2190295E+004  0.1043930E+01  0.7957747E-01            NaN
         13   -1    0    0    0    0  0.00000000000E+00  0.00000000000E+00  0.74505805969E-08  0.10566000000E+00  0.10566000000E+00 0.  1.
     999900   -1    0    0    0    0 -0.00000000000E+00 -0.00000000000E+00 -0.74505805969E-08  0.93827000000E+00  0.93827000000E+00 0. -1.
     999902    2    1    2    0    0 -0.45268511685E-02 -0.66494752997E-02 -0.11574828048E-01  0.10298344494E+01  0.10297379805E+01 0.  0.
     999903    2    3    3    0    0  0.32248637322E-01 -0.11966493861E+00  0.47237690097E-01  0.13989970806E+00  0.44506817528E-01 0.  0.
         14    1    1    2    0    0  0.45268511685E-02  0.66494752997E-02  0.11574828048E-01  0.14095550632E-01  0.00000000000E+00 0.  1.
     999901    1    3    3    0    0 -0.36775488490E-01  0.11301546331E+00 -0.58812518145E-01  0.88993474131E+00  0.88000000000E+00 0. -1.
        -11    1    4    4    0    0  0.76674929776E-02 -0.93578741678E-01  0.44622751994E-01  0.10395779172E+00  0.51100000000E-03 0.  1.
         11    1    4    4    0    0  0.24581144344E-01 -0.26086196936E-01  0.26149381035E-02  0.35941916339E-01  0.51100000000E-03 0. -1.
</event>
<event>
 8    1  0.2190295E+004  0.1043930E+01  0.7957747E-01            NaN
         13   -1    0    0    0    0  0.00000000000E+00  0.00000000000E+00  0.74505805969E-08  0.10566000000E+00  0.10566000000E+00 0.  1.
     999900   -1    0    0    0    0 -0.00000000000E+00 -0.00000000000E+00 -0.74505805969E-08  0.93827000000E+00  0.93827000000E+00 0.  1.
     999902    2    1    2    0    0  0.47734451823E-02 -0.11149864788E-01  0.67972135418E-02  0.10300264977E+01  0.10299326573E+01 0.  0.
     999903    2    3    3    0    0  0.88840608806E-01  0.88570576967E-01 -0.39243067791E-01  0.13922283697E+00  0.45886589398E-01 0.  0.
         14    1    1    2    0    0 -0.47734451823E-02  0.11149864788E-01 -0.67972135418E-02  0.13903502279E-01  0.00000000000E+00 0. -1.
     999901    1    3    3    0    0 -0.84067163624E-01 -0.99720441756E-01  0.46040281332E-01  0.89080366075E+00  0.88000000000E+00 0.  1.
        -11    1    4    4    0    0  0.33731093629E-01  0.24784853525E-01  0.79582893954E-02  0.42610692704E-01  0.51100000000E-03 0. -1.
         11    1    4    4    0    0  0.55109515178E-01  0.63785723442E-01 -0.47201357186E-01  0.96612144264E-01  0.51100000000E-03 0.  1.
</event>
<event>
 8    1  0.2190295E+004  0.1043930E+01  0.7957747E-01            NaN
         13   -1    0    0    0    0  0.00000000000E+00  0.00000000000E+00  0.74505805969E-08  0.10566000000E+00  0.10566000000E+00 0. -1.
     999900   -1    0    0    0    0 -0.00000000000E+00 -0.00000000000E+00 -0.74505805969E-08  0.93827000000E+00  0.93827000000E+00 0. -1.
     999902    2    1    2    0    0 -0.48884887362E-02  0.12688846052E-01  0.26278454844E-02  0.10300804618E+01  0.10299873534E+01 0.  0.
     999903    2    3    3    0    0  0.12952341634E+00  0.25707242709E-01 -0.68047090911E-02  0.13972940073E+00  0.45175476255E-01 0.  0.
         14    1    1    2    0    0  0.48884887362E-02 -0.12688846052E-01 -0.26278454844E-02  0.13849538192E-01  0.00000000000E+00 0. -1.
     999901    1    3    3    0    0 -0.13441190507E+00 -0.13018396657E-01  0.94325545755E-02  0.89035106108E+00  0.88000000000E+00 0.  1.
        -11    1    4    4    0    0  0.12645033428E+00  0.14689684676E-01 -0.10407359463E-01  0.12772645821E+00  0.51100000000E-03 0. -1.
         11    1    4    4    0    0  0.30730820562E-02  0.11017558033E-01  0.36026503719E-02  0.12002942516E-01  0.51100000000E-03 0.  1.
</event>
<event>
 8    1  0.2190295E+004  0.1043930E+01  0.7957747E-01            NaN
         13   -1    0    0    0    0  0.00000000000E+00  0.00000000000E+00  0.74505805969E-08  0.10566000000E+00  0.10566000000E+00 0. -1.
     999900   -1    0    0    0    0 -0.00000000000E+00 -0.00000000000E+00 -0.74505805969E-08  0.93827000000E+00  0.93827000000E+00 0.  1.
     999902    2    1    2    0    0 -0.97084621105E-03  0.38416650099E-02 -0.12854391337E-01  0.10304787432E+01  0.10303909471E+01 0.  0.
     999903    2    3    3    0    0 -0.79151851696E-01 -0.10451963833E+00  0.19053248612E-01  0.13982025694E+00  0.44691246851E-01 0.  0.
         14    1    1    2    0    0  0.97084621105E-03 -0.38416650099E-02  0.12854391337E-01  0.13451256784E-01  0.00000000000E+00 0. -1.
     999901    1    3    3    0    0  0.78181005485E-01  0.10836130334E+00 -0.31907639949E-01  0.89065848627E+00  0.88000000000E+00 0.  1.
        -11    1    4    4    0    0 -0.32261954243E-01 -0.55882294997E-01 -0.11714187957E-01  0.65583137362E-01  0.51100000000E-03 0. -1.
         11    1    4    4    0    0 -0.46889897452E-01 -0.48637343336E-01  0.30767436568E-01  0.74237119583E-01  0.51100000000E-03 0.  1.
</event>
<event>
 8    1  0.2190295E+004  0.1043930E+01  0.7957747E-01            NaN
         13   -1    0    0    0    0  0.00000000000E+00  0.00000000000E+00  0.74505805969E-08  0.10566000000E+00  0.10566000000E+00 0.  1.
     999900   -1    0    0    0    0 -0.00000000000E+00 -0.00000000000E+00 -0.74505805969E-08  0.93827000000E+00  0.93827000000E+00 0.  1.
     999902    2    1    2    0    0  0.47858338208E-02 -0.71829144700E-02  0.10958766739E-01  0.10299803393E+01  0.10298858705E+01 0.  0.
     999903    2    3    3    0    0  0.72498814331E-01 -0.94077270839E-01 -0.59477514977E-01  0.14031919779E+00  0.45224899264E-01 0.  0.
         14    1    1    2    0    0 -0.47858338208E-02  0.71829144700E-02 -0.10958766739E-01  0.13949660716E-01  0.00000000000E+00 0. -1.
     999901    1    3    3    0    0 -0.67712980510E-01  0.86894356368E-01  0.70436281716E-01  0.88966114149E+00  0.88000000000E+00 0.  1.
        -11    1    4    4    0    0  0.33582079183E-01 -0.11103414060E-01 -0.18634425955E-01  0.39981805834E-01  0.51100000000E-03 0. -1.
         11    1    4    4    0    0  0.38916735148E-01 -0.82973856778E-01 -0.40843089022E-01  0.10033739196E+00  0.51100000000E-03 0.  1.
</event>
<event>
 8    1  0.2190295E+004  0.1043930E+01  0.7957747E-01            NaN
         13   -1    0    0    0    0  0.00000000000E+00  0.00000000000E+00  0.74505805969E-08  0.10566000000E+00  0.10566000000E+00 0. -1.
     999900   -1    0    0    0    0 -0.00000000000E+00 -0.00000000000E+00 -0.74505805969E-08  0.93827000000E+00  0.93827000000E+00 0.  1.
     999902    2    1    2    0    0  0.24372907309E-02  0.28290164514E-03  0.13818753684E-01  0.10298951016E+01  0.10297994669E+01 0.  0.
     999903    2    3    3    0    0 -0.18989321715E-01 -0.75038350702E-01  0.10948382462E+00  0.14125333094E+00  0.44434752540E-01 0.  0.
         14    1    1    2    0    0 -0.24372907309E-02 -0.28290164514E-03 -0.13818753684E-01  0.14034898390E-01  0.00000000000E+00 0.  1.
     999901    1    3    3    0    0  0.21426612446E-01  0.75321252347E-01 -0.95665070938E-01  0.88864177067E+00  0.88000000000E+00 0.  1.
        -11    1    4    4    0    0 -0.27585031903E-01 -0.21774697036E-01  0.47210484320E-01  0.58857135224E-01  0.51100000000E-03 0.  1.
         11    1    4    4    0    0  0.85957101879E-02 -0.53263653666E-01  0.62273340303E-01  0.82396195719E-01  0.51100000000E-03 0. -1.
</event>
<event>
 8    1  0.2190295E+004  0.1043930E+01  0.7957747E-01            NaN
         13   -1    0    0    0    0  0.00000000000E+00  0.00000000000E+00  0.74505805969E-08  0.10566000000E+00  0.10566000000E+00 0.  1.
     999900   -1    0    0    0    0 -0.00000000000E+00 -0.00000000000E+00 -0.74505805969E-08  0.93827000000E+00  0.93827000000E+00 0. -1.
     999902    2    1    2    0    0 -0.13666322662E-02 -0.87763932125E-02  0.14040520770E-01  0.10273158799E+01  0.10271815264E+01 0.  0.
     999903    2    3    3    0    0 -0.74796502148E-01 -0.79926097651E-01  0.73876641839E-01  0.13937748816E+00  0.44560387977E-01 0.  0.
         14    1    1    2    0    0  0.13666322662E-02  0.87763932125E-02 -0.14040520770E-01  0.16614120051E-01  0.00000000000E+00 0. -1.
     999901    1    3    3    0    0  0.73429869882E-01  0.71149704438E-01 -0.59836121069E-01  0.88793839179E+00  0.88000000000E+00 0. -1.
        -11    1    4    4    0    0 -0.67841050592E-01 -0.73562084490E-01  0.46362270447E-01  0.11028830247E+00  0.51100000000E-03 0.  1.
         11    1    4    4    0    0 -0.69554515554E-02 -0.63640131610E-02  0.27514371391E-01  0.29089185687E-01  0.51100000000E-03 0. -1.
</event>
<event>
 8    1  0.2190295E+004  0.1043930E+01  0.7957747E-01            NaN
         13   -1    0    0    0    0  0.00000000000E+00  0.00000000000E+00  0.74505805969E-08  0.10566000000E+00  0.10566000000E+00 0.  1.
     999900   -1    0    0    0    0 -0.00000000000E+00 -0.00000000000E+00 -0.74505805969E-08  0.93827000000E+00  0.93827000000E+00 0. -1.
     999902    2    1    2    0    0 -0.52708367948E-02 -0.40935477621E-02 -0.11714433939E-01  0.10304479076E+01  0.10303597058E+01 0.  0.
     999903    2    3    3    0    0 -0.39986034787E-01 -0.25319370429E-01 -0.12634805624E+00  0.14208055794E+00  0.44532012445E-01 0.  0.
         14    1    1    2    0    0  0.52708367948E-02  0.40935477621E-02  0.11714433939E-01  0.13482092431E-01  0.00000000000E+00 0.  1.
     999901    1    3    3    0    0  0.34715197992E-01  0.21225822667E-01  0.11463362230E+00  0.88836734963E+00  0.88000000000E+00 0.  1.
        -11    1    4    4    0    0  0.97858500891E-02 -0.57210618226E-02 -0.25892058575E-01  0.28269298339E-01  0.51100000000E-03 0. -1.
         11    1    4    4    0    0 -0.49771884876E-01 -0.19598308606E-01 -0.10045599767E+00  0.11381125960E+00  0.51100000000E-03 0.  1.
</event>
<event>
 8    1  0.2190295E+004  0.1043930E+01  0.7957747E-01            NaN
         13   -1    0    0    0    0  0.00000000000E+00  0.00000000000E+00  0.74505805969E-08  0.10566000000E+00  0.10566000000E+00 0. -1.
     999900   -1    0    0    0    0 -0.00000000000E+00 -0.00000000000E+00 -0.74505805969E-08  0.93827000000E+00  0.93827000000E+00 0. -1.
     999902    2    1    2    0    0  0.10940024589E-01 -0.65512622409E-02  0.92887961542E-02  0.10281539134E+01  0.10280328714E+01 0.  0.
     999903    2    3    3    0    0  0.25003794800E-01 -0.36314320247E-01  0.12498303457E+00  0.13997105718E+00  0.45024641122E-01 0.  0.
         14    1    1    2    0    0 -0.10940024589E-01  0.65512622409E-02 -0.92887961542E-02  0.15776086617E-01  0.00000000000E+00 0. -1.
     999901    1    3    3    0    0 -0.14063770210E-01  0.29763058006E-01 -0.11569423841E+00  0.88818285621E+00  0.88000000000E+00 0. -1.
        -11    1    4    4    0    0  0.22883575941E-01 -0.28464707955E-02  0.22831384519E-01  0.32454486345E-01  0.51100000000E-03 0.  1.
         11    1    4    4    0    0  0.21202188584E-02 -0.33467849452E-01  0.10215165005E+00  0.10751657083E+00  0.51100000000E-03 0. -1.
</event>
<event>
 8    1  0.2190295E+004  0.1043930E+01  0.7957747E-01            NaN
         13   -1    0    0    0    0  0.00000000000E+00  0.00000000000E+00  0.74505805969E-08  0.10566000000E+00  0.10566000000E+00 0. -1.
     999900   -1    0    0    0    0 -0.00000000000E+00 -0.00000000000E+00 -0.74505805969E-08  0.93827000000E+00  0.93827000000E+00 0. -1.
     999902    2    1    2    0    0  0.62332288247E-02  0.71914064895E-02  0.10325506318E-01  0.10298877228E+01  0.10297919868E+01 0.  0.
     999903    2    3    3    0    0 -0.11843147285E+00 -0.75247039982E-02 -0.55718219060E-01  0.13852941917E+00  0.44757626252E-01 0.  0.
         14    1    1    2    0    0 -0.62332288247E-02 -0.71914064895E-02 -0.10325506318E-01  0.14042277223E-01  0.00000000000E+00 0.  1.
     999901    1    3    3    0    0  0.12466470168E+00  0.14716110488E-01  0.66043725378E-01  0.89135830361E+00  0.88000000000E+00 0. -1.
        -11    1    4    4    0    0 -0.56350184685E-01 -0.11248271977E-01 -0.49823112309E-01  0.76055707068E-01  0.51100000000E-03 0. -1.
         11    1    4    4    0    0 -0.62081288166E-01  0.37235679790E-02 -0.58951067512E-02  0.62473712099E-01  0.51100000000E-03 0.  1.
</event>
<event>
 8    1  0.2190295E+004  0.1043930E+01  0.7957747E-01            NaN
         13   -1    0    0    0    0  0.00000000000E+00  0.00000000000E+00  0.74505805969E-08  0.10566000000E+00  0.10566000000E+00 0.  1.
     999900   -1    0    0    0    0 -0.00000000000E+00 -0.00000000000E+00 -0.74505805969E-08  0.93827000000E+00  0.93827000000E+00 0.  1.
     999902    2    1    2    0    0 -0.18435137597E-02  0.11042834929E-01 -0.74320527293E-02  0.10304920629E+01  0.10304044417E+01 0.  0.
     999903    2    3    3    0    0  0.10593953688E+00 -0.73051674289E-01 -0.18748600948E-01  0.13986467909E+00  0.51486753917E-01 0.  0.
         14    1    1    2    0    0  0.18435137597E-02 -0.11042834929E-01  0.74320527293E-02  0.13437937119E-01  0.00000000000E+00 0.  1.
     999901    1    3    3    0    0 -0.10778305064E+00  0.84094509218E-01  0.11316548219E-01  0.89062738379E+00  0.88000000000E+00 0. -1.
        -11    1    4    4    0    0  0.12418883149E-01 -0.25262177484E-01 -0.20497203992E-01  0.34825317836E-01  0.51100000000E-03 0.  1.
         11    1    4    4    0    0  0.93520653735E-01 -0.47789496805E-01  0.17486030435E-02  0.10503936126E+00  0.51100000000E-03 0. -1.
</event>
<event>
 8    1  0.2190295E+004  0.1043930E+01  0.7957747E-01            NaN
         13   -1    0    0    0    0  0.00000000000E+00  0.00000000000E+00  0.74505805969E-08  0.10566000000E+00  0.10566000000E+00 0. -1.
     999900   -1    0    0    0    0 -0.00000000000E+00 -0.00000000000E+00 -0.74505805969E-08  0.93827000000E+00  0.93827000000E+00 0. -1.
     999902    2    1    2    0    0 -0.43223235399E-03  0.14184288177E-01 -0.35798610764E-02  0.10292945546E+01  0.10291904993E+01 0.  0.
     999903    2    3    3    0    0  0.62864383488E-02  0.10548963162E+00 -0.82060942164E-01  0.14107099810E+00  0.44715171807E-01 0.  0.
         14    1    1    2    0    0  0.43223235399E-03 -0.14184288177E-01  0.35798610764E-02  0.14635445372E-01  0.00000000000E+00 0. -1.
     999901    1    3    3    0    0 -0.67186707028E-02 -0.91305343446E-01  0.78481081087E-01  0.88822355653E+00  0.88000000000E+00 0.  1.
        -11    1    4    4    0    0  0.16866009551E-01  0.36909565276E-01 -0.11674845243E-01  0.42229627271E-01  0.51100000000E-03 0. -1.
         11    1    4    4    0    0 -0.10579571202E-01  0.68580066347E-01 -0.70386096921E-01  0.98841370831E-01  0.51100000000E-03 0.  1.
</event>
<event>
 8    1  0.2190295E+004  0.1043930E+01  0.7957747E-01            NaN
         13   -1    0    0    0    0  0.00000000000E+00  0.00000000000E+00  0.74505805969E-08  0.10566000000E+00  0.10566000000E+00 0. -1.
     999900   -1    0    0    0    0 -0.00000000000E+00 -0.00000000000E+00 -0.74505805969E-08  0.93827000000E+00  0.93827000000E+00 0.  1.
     999902    2    1    2    0    0 -0.93964272246E-02 -0.96450160374E-02 -0.17859390197E-03  0.10304633347E+01  0.10303753360E+01 0.  0.
     999903    2    3    3    0    0  0.12767332877E+00 -0.30511305755E-01 -0.12653572285E-01  0.13952049413E+00  0.45545984789E-01 0.  0.
         14    1    1    2    0    0  0.93964272246E-02  0.96450160374E-02  0.17859390197E-03  0.13466665316E-01  0.00000000000E+00 0. -1.
     999901    1    3    3    0    0 -0.13706975600E+00  0.20866289718E-01  0.12474978383E-01  0.89094284056E+00  0.88000000000E+00 0. -1.
        -11    1    4    4    0    0  0.10348065086E+00 -0.53899223352E-02 -0.46091907696E-02  0.10372464570E+00  0.51100000000E-03 0.  1.
         11    1    4    4    0    0  0.24192677918E-01 -0.25121383420E-01 -0.80443815151E-02  0.35795848429E-01  0.51100000000E-03 0. -1.
</event>
<event>
 8    1  0.2190295E+004  0.1043930E+01  0.7957747E-01            NaN
         13   -1    0    0    0    0  0.00000000000E+00  0.00000000000E+00  0.74505805969E-08  0.10566000000E+00  0.10566000000E+00 0.  1.
     999900   -1    0    0    0    0 -0.00000000000E+00 -0.00000000000E+00 -0.74505805969E-08  0.93827000000E+00  0.93827000000E+00 0.  1.
     999902    2    1    2    0    0 -0.42587010622E-05  0.16968575872E-01  0.76808108833E-03  0.10269440489E+01  0.10268035631E+01 0.  0.
     999903    2    3    3    0    0 -0.46111382640E-01 -0.11643299337E+00  0.23615996856E-01  0.13540388000E+00  0.45755806822E-01 0.  0.
         14    1    1    2    0    0  0.42587010622E-05 -0.16968575872E-01 -0.76808108833E-03  0.16985951072E-01  0.00000000000E+00 0. -1.
     999901    1    3    3    0    0  0.46107123939E-01  0.13340156924E+00 -0.22847915768E-01  0.89154016893E+00  0.88000000000E+00 0. -1.
        -11    1    4    4    0    0  0.29096045716E-02 -0.73468795742E-02  0.13151464809E-01  0.15351370814E-01  0.51100000000E-03 0.  1.
         11    1    4    4    0    0 -0.49020987212E-01 -0.10908611380E+00  0.10464532047E-01  0.12005250919E+00  0.51100000000E-03 0. -1.
</event>
<event>
 8    1  0.2190295E+004  0.1043930E+01  0.7957747E-01            NaN
         13   -1    0    0    0    0  0.00000000000E+00  0.00000000000E+00  0.74505805969E-08  0.10566000000E+00  0.10566000000E+00 0. -1.
     999900   -1    0    0    0    0 -0.00000000000E+00 -0.00000000000E+00 -0.74505805969E-08  0.93827000000E+00  0.93827000000E+00 0.  1.
     999902    2    1    2    0    0 -0.12148372545E-01 -0.56961944558E-02 -0.43516851911E-02  0.10298244426E+01  0.10297278358E+01 0.  0.
     999903    2    3    3    0    0 -0.61283302944E-01  0.23481349952E-01  0.11513433082E+00  0.13991294218E+00  0.44863127859E-01 0.  0.
         14    1    1    2    0    0  0.12148372545E-01  0.56961944558E-02  0.43516851911E-02  0.14105557443E-01  0.00000000000E+00 0.  1.
     999901    1    3    3    0    0  0.49134930399E-01 -0.29177544408E-01 -0.11948601601E+00  0.88991150038E+00  0.88000000000E+00 0.  1.
        -11    1    4    4    0    0 -0.54632074628E-01  0.11370846344E-01  0.55530399074E-01  0.78726400064E-01  0.51100000000E-03 0.  1.
         11    1    4    4    0    0 -0.66512283158E-02  0.12110503608E-01  0.59603931743E-01  0.61186542115E-01  0.51100000000E-03 0. -1.
</event>
<event>
 8    1  0.2190295E+004  0.1043930E+01  0.7957747E-01            NaN
         13   -1    0    0    0    0  0.00000000000E+00  0.00000000000E+00  0.74505805969E-08  0.10566000000E+00  0.10566000000E+00 0.  1.
     999900   -1    0    0    0    0 -0.00000000000E+00 -0.00000000000E+00 -0.74505805969E-08  0.93827000000E+00  0.93827000000E+00 0. -1.
     999902    2    1    2    0    0  0.33551618217E-02 -0.13473044095E-01  0.10003314029E-01  0.10268172469E+01  0.10266746379E+01 0.  0.
     999903    2    3    3    0    0  0.85321717979E-01  0.26591862866E-01 -0.95196967330E-01  0.13586785869E+00  0.37559149453E-01 0.  0.
         14    1    1    2    0    0 -0.33551618217E-02  0.13473044095E-01 -0.10003314029E-01  0.17112753127E-01  0.00000000000E+00 0. -1.
     999901    1    3    3    0    0 -0.81966556157E-01 -0.40064906961E-01  0.10520028136E+00  0.89094938818E+00  0.88000000000E+00 0.  1.
        -11    1    4    4    0    0  0.60461200703E-01  0.52327180597E-02 -0.43555812175E-01  0.74701459316E-01  0.51100000000E-03 0. -1.
         11    1    4    4    0    0  0.24860517276E-01  0.21359144806E-01 -0.51641155155E-01  0.61166399378E-01  0.51100000000E-03 0.  1.
</event>
<event>
 8    1  0.2190295E+004  0.1043930E+01  0.7957747E-01            NaN
         13   -1    0    0    0    0  0.00000000000E+00  0.00000000000E+00  0.74505805969E-08  0.10566000000E+00  0.10566000000E+00 0. -1.
     999900   -1    0    0    0    0 -0.00000000000E+00 -0.00000000000E+00 -0.74505805969E-08  0.93827000000E+00  0.93827000000E+00 0. -1.
     999902    2    1    2    0    0 -0.49962498029E-02  0.93856315950E-02  0.71381649857E-02  0.10311235176E+01  0.10310439867E+01 0.  0.
     999903    2    3    3    0    0  0.38081566975E-01 -0.12684617332E+00 -0.24264537191E-02  0.13954834694E+00  0.43905535289E-01 0.  0.
         14    1    1    2    0    0  0.49962498029E-02 -0.93856315950E-02 -0.71381649857E-02  0.12806482417E-01  0.00000000000E+00 0. -1.
     999901    1    3    3    0    0 -0.43077816778E-01  0.13623180491E+00  0.95646187048E-02  0.89157517064E+00  0.88000000000E+00 0.  1.
        -11    1    4    4    0    0 -0.32338659821E-03 -0.54271868144E-01  0.13448882416E-01  0.55916668445E-01  0.51100000000E-03 0.  1.
         11    1    4    4    0    0  0.38404953574E-01 -0.72574305173E-01 -0.15875336135E-01  0.83631678500E-01  0.51100000000E-03 0. -1.
</event>
<event>
 8    1  0.2190295E+004  0.1043930E+01  0.7957747E-01            NaN
         13   -1    0    0    0    0  0.00000000000E+00  0.00000000000E+00  0.74505805969E-08  0.10566000000E+00  0.10566000000E+00 0. -1.
     999900   -1    0    0    0    0 -0.00000000000E+00 -0.00000000000E+00 -0.74505805969E-08  0.93827000000E+00  0.93827000000E+00 0.  1.
     999902    2    1    2    0    0 -0.69690754595E-02 -0.93760632827E-02 -0.27355365381E-02  0.10319315945E+01  0.10318618386E+01 0.  0.
     999903    2    3    3    0    0 -0.94072909407E-01  0.85490006146E-01 -0.39971156474E-01  0.14177815801E+00  0.48426225383E-01 0.  0.
         14    1    1    2    0    0  0.69690754595E-02  0.93760632827E-02  0.27355365381E-02  0.11998405544E-01  0.00000000000E+00 0.  1.
     999901    1    3    3    0    0  0.87103833948E-01 -0.94866069429E-01  0.37235619936E-01  0.89015343644E+00  0.88000000000E+00 0.  1.
        -11    1    4    4    0    0 -0.62147801589E-01  0.25778284419E-01 -0.28633259744E-01  0.73123141853E-01  0.51100000000E-03 0. -1.
         11    1    4    4    0    0 -0.31925107819E-01  0.59711721727E-01 -0.11337896730E-01  0.68655016161E-01  0.51100000000E-03 0.  1.
</event>
<event>
 8    1  0.2190295E+004  0.1043930E+01  0.7957747E-01            NaN
         13   -1    0    0    0    0  0.00000000000E+00  0.00000000000E+00  0.74505805969E-08  0.10566000000E+00  0.10566000000E+00 0.  1.
     999900   -1    0    0    0    0 -0.00000000000E+00 -0.00000000000E+00 -0.74505805969E-08  0.93827000000E+00  0.93827000000E+00 0. -1.
     999902    2    1    2    0    0  0.10476751112E-01 -0.29506575299E-02  0.79150687529E-02  0.10304720281E+01  0.10303841438E+01 0.  0.
     999903    2    3    3    0    0 -0.22027895700E-01 -0.37982308063E-01  0.12667047835E+00  0.14121019047E+00  0.44351143076E-01 0.  0.
         14    1    1    2    0    0 -0.10476751112E-01  0.29506575299E-02 -0.79150687529E-02  0.13457971879E-01  0.00000000000E+00 0. -1.
     999901    1    3    3    0    0  0.32504646812E-01  0.35031650533E-01 -0.11875540959E+00  0.88926183766E+00  0.88000000000E+00 0. -1.
        -11    1    4    4    0    0 -0.19783856381E-01 -0.34011925069E-01  0.46530801646E-01  0.60939220893E-01  0.51100000000E-03 0. -1.
         11    1    4    4    0    0 -0.22440393193E-02 -0.39703829936E-02  0.80139676700E-01  0.80270969572E-01  0.51100000000E-03 0.  1.
</event>
<event>
 8    1  0.2190295E+004  0.1043930E+01  0.7957747E-01            NaN
         13   -1    0    0    0    0  0.00000000000E+00  0.00000000000E+00  0.74505805969E-08  0.10566000000E+00  0.10566000000E+00 0. -1.
     999900   -1    0    0    0    0 -0.00000000000E+00 -0.00000000000E+00 -0.74505805969E-08  0.93827000000E+00  0.93827000000E+00 0. -1.
     999902    2    1    2    0    0 -0.93456709372E-02  0.12163953549E-02 -0.10673769303E-01  0.10296909504E+01  0.10295924935E+01 0.  0.
     999903    2    3    3    0    0  0.94169482263E-01  0.68481282769E-01 -0.62857709757E-01  0.13954314487E+00  0.44312753513E-01 0.  0.
         14    1    1    2    0    0  0.93456709372E-02 -0.12163953549E-02  0.10673769303E-01  0.14239049619E-01  0.00000000000E+00 0. -1.
     999901    1    3    3    0    0 -0.10351515320E+00 -0.67264887414E-01  0.52183940454E-01  0.89014780551E+00  0.88000000000E+00 0.  1.
        -11    1    4    4    0    0  0.87325285104E-01  0.70753139441E-01 -0.46448264030E-01  0.12161173674E+00  0.51100000000E-03 0.  1.
         11    1    4    4    0    0  0.68441971586E-02 -0.22718566726E-02 -0.16409445727E-01  0.17931408131E-01  0.51100000000E-03 0. -1.
</event>
<event>
 8    1  0.2190295E+004  0.1043930E+01  0.7957747E-01            NaN
         13   -1    0    0    0    0  0.00000000000E+00  0.00000000000E+00  0.74505805969E-08  0.10566000000E+00  0.10566000000E+00 0. -1.
     999900   -1    0    0    0    0 -0.00000000000E+00 -0.00000000000E+00 -0.74505805969E-08  0.93827000000E+00  0.93827000000E+00 0. -1.
     999902    2    1    2    0    0 -0.95118003895E-02  0.56963502753E-02 -0.34723568963E-02  0.10323119100E+01  0.10322465304E+01 0.  0.
     999903    2    3    3    0    0 -0.11555234153E+00  0.43290957882E-01  0.56655016403E-01  0.14311381513E+00  0.45225242151E-01 0.  0.
         14    1    1    2    0    0  0.95118003895E-02 -0.56963502753E-02  0.34723568963E-02  0.11618090012E-01  0.00000000000E+00 0. -1.
     999901    1    3    3    0    0  0.10604054115E+00 -0.37594607607E-01 -0.60127373299E-01  0.88919809486E+00  0.88000000000E+00 0. -1.
        -11    1    4    4    0    0 -0.44132575254E-01 -0.11618744315E-02  0.50921227996E-02  0.44443503309E-01  0.51100000000E-03 0.  1.
         11    1    4    4    0    0 -0.71419766281E-01  0.44452832314E-01  0.51562893603E-01  0.98670311817E-01  0.51100000000E-03 0. -1.
</event>
<event>
 8    1  0.2190295E+004  0.1043930E+01  0.7957747E-01            NaN
         13   -1    0    0    0    0  0.00000000000E+00  0.00000000000E+00  0.74505805969E-08  0.10566000000E+00  0.10566000000E+00 0.  1.
     999900   -1    0    0    0    0 -0.00000000000E+00 -0.00000000000E+00 -0.74505805969E-08  0.93827000000E+00  0.93827000000E+00 0. -1.
     999902    2    1    2    0    0 -0.10257930007E-01  0.84447666299E-02  0.78665925518E-02  0.10284890645E+01  0.10283731488E+01 0.  0.
     999903    2    3    3    0    0  0.65330993476E-01 -0.74478208966E-02 -0.11158830157E+00  0.13706563455E+00  0.44848973030E-01 0.  0.
         14    1    1    2    0    0  0.10257930007E-01 -0.84447666299E-02 -0.78665925518E-02  0.15440935523E-01  0.00000000000E+00 0. -1.
     999901    1    3    3    0    0 -0.75588923483E-01  0.15892587526E-01  0.11945489413E+00  0.89142342993E+00  0.88000000000E+00 0.  1.
        -11    1    4    4    0    0 -0.34850147643E-02 -0.10098026724E-01 -0.16299373741E-01  0.19494773069E-01  0.51100000000E-03 0. -1.
         11    1    4    4    0    0  0.68816008240E-01  0.26502058279E-02 -0.95288927833E-01  0.11757086148E+00  0.51100000000E-03 0.  1.
</event>
<event>
 8    1  0.2190295E+004  0.1043930E+01  0.7957747E-01            NaN
         13   -1    0    0    0    0  0.00000000000E+00  0.00000000000E+00  0.74505805969E-08  0.10566000000E+00  0.10566000000E+00 0. -1.
     999900   -1    0    0    0    0 -0.00000000000E+00 -0.00000000000E+00 -0.74505805969E-08  0.93827000000E+00  0.93827000000E+00 0. -1.
     999902    2    1    2    0    0  0.32994450103E-02  0.10839204412E-01  0.74364146712E-02  0.10303773267E+01  0.10302881929E+01 0.  0.
     999903    2    3    3    0    0 -0.64343611141E-01 -0.11455290330E+00  0.62511154087E-03  0.13889252171E+00  0.45036361696E-01 0.  0.
         14    1    1    2    0    0 -0.32994450103E-02 -0.10839204412E-01 -0.74364146712E-02  0.13552673272E-01  0.00000000000E+00 0.  1.
     999901    1    3    3    0    0  0.67643056151E-01  0.12539210771E+00  0.68113031304E-02  0.89148480501E+00  0.88000000000E+00 0.  1.
        -11    1    4    4    0    0 -0.49005701751E-01 -0.10210623859E+00 -0.14261598233E-01  0.11415295471E+00  0.51100000000E-03 0.  1.
         11    1    4    4    0    0 -0.15337909390E-01 -0.12446664708E-01  0.14886709773E-01  0.24739567007E-01  0.51100000000E-03 0. -1.
</event>
<event>
 8    1  0.2190295E+004  0.1043930E+01  0.7957747E-01            NaN
         13   -1    0    0    0    0  0.00000000000E+00  0.00000000000E+00  0.74505805969E-08  0.10566000000E+00  0.10566000000E+00 0. -1.
     999900   -1    0    0    0    0 -0.00000000000E+00 -0.00000000000E+00 -0.74505805969E-08  0.93827000000E+00  0.93827000000E+00 0. -1.
     999902    2    1    2    0    0 -0.94594569644E-02 -0.46032010538E-02 -0.14102090337E-01  0.10263362586E+01  0.10261854491E+01 0.  0.
     999903    2    3    3    0    0 -0.53232726275E-01 -0.11545220359E+00 -0.29223440154E-01  0.13817396726E+00  0.45553279938E-01 0.  0.
         14    1    1    2    0    0  0.94594569644E-02  0.46032010538E-02  0.14102090337E-01  0.17593741441E-01  0.00000000000E+00 0. -1.
     999901    1    3    3    0    0  0.43773269311E-01  0.11084900254E+00  0.15121349817E-01  0.88816229130E+00  0.88000000000E+00 0.  1.
        -11    1    4    4    0    0  0.24604039987E-02 -0.30067100627E-01  0.51141048583E-02  0.30602276344E-01  0.51100000000E-03 0. -1.
         11    1    4    4    0    0 -0.55693130274E-01 -0.85385102962E-01 -0.34337545012E-01  0.10757169091E+00  0.51100000000E-03 0.  1.
</event>
<event>
 8    1  0.2190295E+004  0.1043930E+01  0.7957747E-01            NaN
         13   -1    0    0    0    0  0.00000000000E+00  0.00000000000E+00  0.74505805969E-08  0.10566000000E+00  0.10566000000E+00 0. -1.
     999900   -1    0    0    0    0 -0.00000000000E+00 -0.00000000000E+00 -0.74505805969E-08  0.93827000000E+00  0.93827000000E+00 0.  1.
     999902    2    1    2    0    0 -0.84799798253E-02  0.38101169570E-02  0.10638491306E-01  0.10298018527E+01  0.10297049341E+01 0.  0.
     999903    2    3    3    0    0  0.50117765088E-01 -0.11887964354E+00  0.27727398661E-01  0.13919615779E+00  0.44301260482E-01 0.  0.
         14    1    1    2    0    0  0.84799798253E-02 -0.38101169570E-02 -0.10638491306E-01  0.14128147307E-01  0.00000000000E+00 0.  1.
     999901    1    3    3    0    0 -0.58597744913E-01  0.12268976050E+00 -0.17088907355E-01  0.89060569490E+00  0.88000000000E+00 0.  1.
        -11    1    4    4    0    0  0.21591844059E-01 -0.99805426817E-02  0.61181784803E-02  0.24566485117E-01  0.51100000000E-03 0.  1.
         11    1    4    4    0    0  0.28525921029E-01 -0.10889910086E+00  0.21609220181E-01  0.11462967267E+00  0.51100000000E-03 0. -1.
</event>
<event>
 8    1  0.2190295E+004  0.1043930E+01  0.7957747E-01            NaN
         13   -1    0    0    0    0  0.00000000000E+00  0.00000000000E+00  0.74505805969E-08  0.10566000000E+00  0.10566000000E+00 0.  1.
     999900   -1    0    0    0    0 -0.00000000000E+00 -0.00000000000E+00 -0.74505805969E-08  0.93827000000E+00  0.93827000000E+00 0.  1.
     999902    2    1    2    0    0  0.55173456418E-02 -0.10699998069E-02  0.12657121994E-01  0.10300812188E+01  0.10299881206E+01 0.  0.
     999903    2    3    3    0    0 -0.83943917633E-01 -0.61388578655E-02 -0.10041459461E+00  0.13833337104E+00  0.44370754442E-01 0.  0.
         14    1    1    2    0    0 -0.55173456418E-02  0.10699998069E-02 -0.12657121994E-01  0.13848781162E-01  0.00000000000E+00 0. -1.
     999901    1    3    3    0    0  0.89461263275E-01  0.50688580585E-02  0.11307171661E+00  0.89174784779E+00  0.88000000000E+00 0. -1.
        -11    1    4    4    0    0 -0.58380712329E-01  0.16753977717E-01 -0.67004183030E-01  0.90436856457E-01  0.51100000000E-03 0.  1.
         11    1    4    4    0    0 -0.25563205304E-01 -0.22892835583E-01 -0.33410411582E-01  0.47896514587E-01  0.51100000000E-03 0. -1.
</event>
<event>
 8    1  0.2190295E+004  0.1043930E+01  0.7957747E-01            NaN
         13   -1    0    0    0    0  0.00000000000E+00  0.00000000000E+00  0.74505805969E-08  0.10566000000E+00  0.10566000000E+00 0.  1.
     999900   -1    0    0    0    0 -0.00000000000E+00 -0.00000000000E+00 -0.74505805969E-08  0.93827000000E+00  0.93827000000E+00 0. -1.
     999902    2    1    2    0    0  0.21458208606E-02  0.17405842451E-01  0.36285201423E-02  0.10260209504E+01  0.10258646386E+01 0.  0.
     999903    2    3    3    0    0  0.64199170177E-01 -0.90364217859E-01 -0.61026509003E-01  0.13492876840E+00  0.46843488548E-01 0.  0.
         14    1    1    2    0    0 -0.21458208606E-02 -0.17405842451E-01 -0.36285201423E-02  0.17909049585E-01  0.00000000000E+00 0. -1.
     999901    1    3    3    0    0 -0.62053349316E-01  0.10777006031E+00  0.64655029146E-01  0.89109218202E+00  0.88000000000E+00 0.  1.
        -11    1    4    4    0    0  0.20432527546E-01 -0.65497236994E-01 -0.45186858550E-01  0.82155277021E-01  0.51100000000E-03 0.  1.
         11    1    4    4    0    0  0.43766642631E-01 -0.24866980865E-01 -0.15839650453E-01  0.52773491376E-01  0.51100000000E-03 0. -1.
</event>
<event>
 8    1  0.2190295E+004  0.1043930E+01  0.7957747E-01            NaN
         13   -1    0    0    0    0  0.00000000000E+00  0.00000000000E+00  0.74505805969E-08  0.10566000000E+00  0.10566000000E+00 0.  1.
     999900   -1    0    0    0    0 -0.00000000000E+00 -0.00000000000E+00 -0.74505805969E-08  0.93827000000E+00  0.93827000000E+00 0. -1.
     999902    2    1    2    0    0  0.17511788595E-01 -0.12952408038E-02 -0.83634529580E-02  0.10244803796E+01  0.10242957388E+01 0.  0.
     999903    2    3    3    0    0 -0.66835292155E-01  0.89842366327E-01  0.57277466310E-01  0.13334109545E+00  0.44277901080E-01 0.  0.
         14    1    1    2    0    0 -0.17511788595E-01  0.12952408038E-02  0.83634529580E-02  0.19449620405E-01  0.00000000000E+00 0.  1.
     999901    1    3    3    0    0  0.84347080750E-01 -0.91137607131E-01 -0.65640919268E-01  0.89113928415E+00  0.88000000000E+00 0.  1.
        -11    1    4    4    0    0 -0.43731374580E-01  0.33559036928E-01  0.94056115769E-02  0.55922882010E-01  0.51100000000E-03 0.  1.
         11    1    4    4    0    0 -0.23103917575E-01  0.56283329399E-01  0.47871854733E-01  0.77418213439E-01  0.51100000000E-03 0. -1.
</event>
<event>
 8    1  0.2190295E+004  0.1043930E+01  0.7957747E-01            NaN
         13   -1    0    0    0    0  0.00000000000E+00  0.00000000000E+00  0.74505805969E-08  0.10566000000E+00  0.10566000000E+00 0. -1.
     999900   -1    0    0    0    0 -0.00000000000E+00 -0.00000000000E+00 -0.74505805969E-08  0.93827000000E+00  0.93827000000E+00 0. -1.
     999902    2    1    2    0    0 -0.57624091574E-02 -0.63053572723E-02  0.10579132211E-01  0.10303329074E+01  0.10302431844E+01 0.  0.
     999903    2    3    3    0    0  0.12447470904E+00  0.15115918191E-01  0.44336815803E-01  0.13984980298E+00  0.43240837016E-01 0.  0.
         14    1    1    2    0    0  0.57624091574E-02  0.63053572723E-02 -0.10579132211E-01  0.13597092629E-01  0.00000000000E+00 0.  1.
     999901    1    3    3    0    0 -0.13023711820E+00 -0.21421275464E-01 -0.33757683592E-01  0.89048310439E+00  0.88000000000E+00 0. -1.
        -11    1    4    4    0    0  0.51609264974E-01  0.17775165880E-02  0.40576583172E-01  0.65676449503E-01  0.51100000000E-03 0. -1.
         11    1    4    4    0    0  0.72865444065E-01  0.13338401603E-01  0.37602326306E-02  0.74173353480E-01  0.51100000000E-03 0.  1.
</event>
<event>
 8    1  0.2190295E+004  0.1043930E+01  0.7957747E-01            NaN
         13   -1    0    0    0    0  0.00000000000E+00  0.00000000000E+00  0.74505805969E-08  0.10566000000E+00  0.10566000000E+00 0.  1.
     999900   -1    0    0    0    0 -0.00000000000E+00 -0.00000000000E+00 -0.74505805969E-08  0.93827000000E+00  0.93827000000E+00 0.  1.
     999902    2    1    2    0    0  0.22523145841E-02  0.14384962651E-02  0.15808936937E-01  0.10278967633E+01  0.10277717117E+01 0.  0.
     999903    2    3    3    0    0 -0.62840301456E-01  0.69972151913E-01  0.92553036292E-01  0.13951420638E+00  0.45311629033E-01 0.  0.
         14    1    1    2    0    0 -0.22523145841E-02 -0.14384962651E-02 -0.15808936937E-01  0.16033236715E-01  0.00000000000E+00 0. -1.
     999901    1    3    3    0    0  0.65092616040E-01 -0.68533655648E-01 -0.76744099355E-01  0.88838255690E+00  0.88000000000E+00 0.  1.
        -11    1    4    4    0    0 -0.35751581834E-01  0.11902637420E-01  0.19814965094E-01  0.42576312004E-01  0.51100000000E-03 0. -1.
         11    1    4    4    0    0 -0.27088719622E-01  0.58069514493E-01  0.72738071198E-01  0.96937894380E-01  0.51100000000E-03 0.  1.
</event>
<event>
 8    1  0.2190295E+004  0.1043930E+01  0.7957747E-01            NaN
         13   -1    0    0    0    0  0.00000000000E+00  0.00000000000E+00  0.74505805969E-08  0.10566000000E+00  0.10566000000E+00 0. -1.
     999900   -1    0    0    0    0 -0.00000000000E+00 -0.00000000000E+00 -0.74505805969E-08  0.93827000000E+00  0.93827000000E+00 0. -1.
     999902    2    1    2    0    0  0.70598127366E-02 -0.92922564198E-02  0.75446239377E-02  0.10300336575E+01  0.10299399144E+01 0.  0.
     999903    2    3    3    0    0  0.84285180381E-01 -0.50059863033E-01 -0.89806590334E-01  0.14036910604E+00  0.45036437964E-01 0.  0.
         14    1    1    2    0    0 -0.70598127366E-02  0.92922564198E-02 -0.75446239377E-02  0.13896342526E-01  0.00000000000E+00 0. -1.
     999901    1    3    3    0    0 -0.77225367645E-01  0.40767606613E-01  0.97351214271E-01  0.88966455143E+00  0.88000000000E+00 0.  1.
        -11    1    4    4    0    0  0.17357544076E-01  0.44129889645E-02 -0.31446325953E-01  0.36192421097E-01  0.51100000000E-03 0. -1.
         11    1    4    4    0    0  0.66927636306E-01 -0.54472851997E-01 -0.58360264381E-01  0.10417668494E+00  0.51100000000E-03 0.  1.
</event>
<event>
 8    1  0.2190295E+004  0.1043930E+01  0.7957747E-01            NaN
         13   -1    0    0    0    0  0.00000000000E+00  0.00000000000E+00  0.74505805969E-08  0.10566000000E+00  0.10566000000E+00 0. -1.
     999900   -1    0    0    0    0 -0.00000000000E+00 -0.00000000000E+00 -0.74505805969E-08  0.93827000000E+00  0.93827000000E+00 0. -1.
     999902    2    1    2    0    0 -0.25321180437E-02  0.13520465370E-01 -0.32837410882E-02  0.10297879506E+01  0.10296908398E+01 0.  0.
     999903    2    3    3    0    0 -0.48510844362E-01 -0.44852632517E-01  0.11257554030E+00  0.13908887970E+00  0.48035440228E-01 0.  0.
         14    1    1    2    0    0  0.25321180437E-02 -0.13520465370E-01  0.32837410882E-02  0.14142049397E-01  0.00000000000E+00 0. -1.
     999901    1    3    3    0    0  0.45978726319E-01  0.58373097887E-01 -0.11585928138E+00  0.89069907091E+00  0.88000000000E+00 0. -1.
        -11    1    4    4    0    0 -0.36485574211E-01 -0.12427370003E-01  0.89671235768E-01  0.97605472674E-01  0.51100000000E-03 0. -1.
         11    1    4    4    0    0 -0.12025270151E-01 -0.32425262514E-01  0.22904304528E-01  0.41483407023E-01  0.51100000000E-03 0.  1.
</event>
<event>
 8    1  0.2190295E+004  0.1043930E+01  0.7957747E-01            NaN
         13   -1    0    0    0    0  0.00000000000E+00  0.00000000000E+00  0.74505805969E-08  0.10566000000E+00  0.10566000000E+00 0.  1.
     999900   -1    0    0    0    0 -0.00000000000E+00 -0.00000000000E+00 -0.74505805969E-08  0.93827000000E+00  0.93827000000E+00 0. -1.
     999902    2    1    2    0    0  0.11841454420E-02  0.66731379320E-02 -0.10991952848E-01  0.10310165962E+01  0.10309357233E+01 0.  0.
     999903    2    3    3    0    0  0.62876587956E-01 -0.11620145461E+00  0.11215683907E-01  0.14006356596E+00  0.45119481147E-01 0.  0.
         14    1    1    2    0    0 -0.11841454420E-02 -0.66731379320E-02  0.10991952848E-01  0.12913403800E-01  0.00000000000E+00 0.  1.
     999901    1    3    3    0    0 -0.61692442514E-01  0.12287459254E+00 -0.22207636755E-01  0.89095303024E+00  0.88000000000E+00 0. -1.
        -11    1    4    4    0    0  0.47966228203E-01 -0.46396513756E-01  0.15644296873E-01  0.68544880789E-01  0.51100000000E-03 0. -1.
         11    1    4    4    0    0  0.14910359753E-01 -0.69804940854E-01 -0.44286129656E-02  0.71518685176E-01  0.51100000000E-03 0.  1.
</event>
<event>
 8    1  0.2190295E+004  0.1043930E+01  0.7957747E-01            NaN
         13   -1    0    0    0    0  0.00000000000E+00  0.00000000000E+00  0.74505805969E-08  0.10566000000E+00  0.10566000000E+00 0.  1.
     999900   -1    0    0    0    0 -0.00000000000E+00 -0.00000000000E+00 -0.74505805969E-08  0.93827000000E+00  0.93827000000E+00 0. -1.
     999902    2    1    2    0    0 -0.10142786731E-01 -0.11428653857E-02 -0.88852156991E-02  0.10303974717E+01  0.10303086044E+01 0.  0.
     999903    2    3    3    0    0  0.89299631704E-01  0.19018953285E-01  0.94232139462E-01  0.13858556191E+00  0.44610728044E-01 0.  0.
         14    1    1    2    0    0  0.10142786731E-01  0.11428653857E-02  0.88852156991E-02  0.13532528292E-01  0.00000000000E+00 0.  1.
     999901    1    3    3    0    0 -0.99442418435E-01 -0.20161818671E-01 -0.10311735516E+00  0.89181190979E+00  0.88000000000E+00 0. -1.
        -11    1    4    4    0    0  0.26405845552E-01 -0.25412463067E-02  0.45107652349E-02  0.26913467560E-01  0.51100000000E-03 0. -1.
         11    1    4    4    0    0  0.62893786152E-01  0.21560199592E-01  0.89721374227E-01  0.11167209435E+00  0.51100000000E-03 0.  1.
</event>
<event>
 8    1  0.2190295E+004  0.1043930E+01  0.7957747E-01            NaN
         13   -1    0    0    0    0  0.00000000000E+00  0.00000000000E+00  0.74505805969E-08  0.10566000000E+00  0.10566000000E+00 0.  1.
     999900   -1    0    0    0    0 -0.00000000000E+00 -0.00000000000E+00 -0.74505805969E-08  0.93827000000E+00  0.93827000000E+00 0.  1.
     999902    2    1    2    0    0 -0.87539143036E-02  0.18554722606E-02 -0.10281774269E-01  0.10302995681E+01  0.10302094017E+01 0.  0.
     999903    2    3    3    0    0 -0.15801673633E-01  0.75883925926E-01 -0.10944036127E+00  0.14161384844E+00  0.45488749087E-01 0.  0.
         14    1    1    2    0    0  0.87539143036E-02 -0.18554722606E-02  0.10281774269E-01  0.13630431947E-01  0.00000000000E+00 0.  1.
     999901    1    3    3    0    0  0.70477593290E-02 -0.74028453665E-01  0.99158586997E-01  0.88868571961E+00  0.88000000000E+00 0. -1.
        -11    1    4    4    0    0  0.11234418766E-01  0.31886029435E-01 -0.22902383266E-01  0.40837621361E-01  0.51100000000E-03 0.  1.
         11    1    4    4    0    0 -0.27036092399E-01  0.43997896491E-01 -0.86537977999E-01  0.10077622708E+00  0.51100000000E-03 0. -1.
</event>
<event>
 8    1  0.2190295E+004  0.1043930E+01  0.7957747E-01            NaN
         13   -1    0    0    0    0  0.00000000000E+00  0.00000000000E+00  0.74505805969E-08  0.10566000000E+00  0.10566000000E+00 0. -1.
     999900   -1    0    0    0    0 -0.00000000000E+00 -0.00000000000E+00 -0.74505805969E-08  0.93827000000E+00  0.93827000000E+00 0.  1.
     999902    2    1    2    0    0  0.42814020627E-02 -0.13087854204E-01 -0.41390448285E-02  0.10295510562E+01  0.10294506416E+01 0.  0.
     999903    2    3    3    0    0 -0.72573688135E-01  0.50848652876E-01 -0.97155435869E-01  0.13901939997E+00  0.45107528652E-01 0.  0.
         14    1    1    2    0    0 -0.42814020627E-02  0.13087854204E-01  0.41390448285E-02  0.14378943751E-01  0.00000000000E+00 0. -1.
     999901    1    3    3    0    0  0.76855090198E-01 -0.63936507081E-01  0.93016391041E-01  0.89053165628E+00  0.88000000000E+00 0.  1.
        -11    1    4    4    0    0 -0.49895098771E-01  0.90023653510E-02 -0.39623815522E-01  0.64349602492E-01  0.51100000000E-03 0.  1.
         11    1    4    4    0    0 -0.22678589364E-01  0.41846287525E-01 -0.57531620347E-01  0.74669797482E-01  0.51100000000E-03 0. -1.
</event>
<event>
 8    1  0.2190295E+004  0.1043930E+01  0.7957747E-01            NaN
         13   -1    0    0    0    0  0.00000000000E+00  0.00000000000E+00  0.74505805969E-08  0.10566000000E+00  0.10566000000E+00 0. -1.
     999900   -1    0    0    0    0 -0.00000000000E+00 -0.00000000000E+00 -0.74505805969E-08  0.93827000000E+00  0.93827000000E+00 0.  1.
     999902    2    1    2    0    0 -0.29315635421E-03  0.68382696065E-03  0.13633901253E-01  0.10302758130E+01  0.10301853299E+01 0.  0.
     999903    2    3    3    0    0  0.86648726590E-01 -0.11408662301E-01  0.10194029934E+00  0.14151086134E+00  0.44669227143E-01 0.  0.
         14    1    1    2    0    0  0.29315635421E-03 -0.68382696065E-03 -0.13633901253E-01  0.13654187026E-01  0.00000000000E+00 0.  1.
     999901    1    3    3    0    0 -0.86941882944E-01  0.12092489262E-01 -0.88306398085E-01  0.88876495163E+00  0.88000000000E+00 0.  1.
        -11    1    4    4    0    0  0.27842936183E-01 -0.70810642670E-03  0.66309672702E-01  0.71923322537E-01  0.51100000000E-03 0. -1.
         11    1    4    4    0    0  0.58805790407E-01 -0.10700555874E-01  0.35630626636E-01  0.69587538805E-01  0.51100000000E-03 0.  1.
</event>
<event>
 7    1  0.2763854E+004  0.1043930E+01  0.7957747E-01            NaN
         13   -1    0    0    0    0  0.00000000000E+00  0.00000000000E+00  0.74505805969E-08  0.10566000000E+00  0.10566000000E+00 0. -1.
     999900   -1    0    0    0    0 -0.00000000000E+00 -0.00000000000E+00 -0.74505805969E-08  0.93827000000E+00  0.93827000000E+00 0.  1.
     999903    2    1    2    0    0  0.47466836980E-02  0.85341441789E-01  0.67835883831E-01  0.11708602642E+00  0.42446881560E-01 0.  0.
         14    1    1    2    0    0  0.13630682089E-01 -0.12170567270E-01 -0.39087746287E-01  0.43148234166E-01  0.00000000000E+00 0.  1.
     999901    1    1    2    0    0 -0.18377365787E-01 -0.73170874519E-01 -0.28748137545E-01  0.88369573942E+00  0.88000000000E+00 0.  1.
        -11    1    3    3    0    0 -0.14030231790E-01  0.19075460375E-01  0.30891938226E-01  0.38926771776E-01  0.51100000000E-03 0.  1.
         11    1    3    3    0    0  0.18776915488E-01  0.66265981415E-01  0.36943945605E-01  0.78159254641E-01  0.51100000000E-03 0. -1.
</event>
<event>
 8    1  0.2190295E+004  0.1043930E+01  0.7957747E-01            NaN
         13   -1    0    0    0    0  0.00000000000E+00  0.00000000000E+00  0.74505805969E-08  0.10566000000E+00  0.10566000000E+00 0. -1.
     999900   -1    0    0    0    0 -0.00000000000E+00 -0.00000000000E+00 -0.74505805969E-08  0.93827000000E+00  0.93827000000E+00 0.  1.
     999902    2    1    2    0    0 -0.12621318478E-02  0.85818980259E-02  0.11322782497E-01  0.10296665027E+01  0.10295677052E+01 0.  0.
     999903    2    3    3    0    0 -0.54191188984E-01  0.67954534129E-01 -0.98036209340E-01  0.13933735905E+00  0.47426760526E-01 0.  0.
         14    1    1    2    0    0  0.12621318478E-02 -0.85818980259E-02 -0.11322782497E-01  0.14263497257E-01  0.00000000000E+00 0.  1.
     999901    1    3    3    0    0  0.52929057136E-01 -0.59372636103E-01  0.10935899184E+00  0.89032914369E+00  0.88000000000E+00 0. -1.
        -11    1    4    4    0    0 -0.56192345222E-01  0.71559854698E-01 -0.81053318619E-01  0.12185357626E+00  0.51100000000E-03 0.  1.
         11    1    4    4    0    0  0.20011562382E-02 -0.36053205695E-02 -0.16982890721E-01  0.17483782798E-01  0.51100000000E-03 0. -1.
</event>
<event>
 8    1  0.2190295E+004  0.1043930E+01  0.7957747E-01            NaN
         13   -1    0    0    0    0  0.00000000000E+00  0.00000000000E+00  0.74505805969E-08  0.10566000000E+00  0.10566000000E+00 0.  1.
     999900   -1    0    0    0    0 -0.00000000000E+00 -0.00000000000E+00 -0.74505805969E-08  0.93827000000E+00  0.93827000000E+00 0. -1.
     999902    2    1    2    0    0 -0.57246317234E-02  0.12275280908E-01  0.76357876799E-03  0.10303639769E+01  0.10302746663E+01 0.  0.
     999903    2    3    3    0    0  0.86211496286E-01 -0.92877114721E-01  0.34651819086E-01  0.13870390112E+00  0.44490932663E-01 0.  0.
         14    1    1    2    0    0  0.57246317234E-02 -0.12275280908E-01 -0.76357876799E-03  0.13566023082E-01  0.00000000000E+00 0. -1.
     999901    1    3    3    0    0 -0.91936128009E-01  0.10515239563E+00 -0.33888240318E-01  0.89166007580E+00  0.88000000000E+00 0. -1.
        -11    1    4    4    0    0  0.24238685079E-01 -0.87667806858E-02 -0.62143686339E-02  0.26518857375E-01  0.51100000000E-03 0.  1.
         11    1    4    4    0    0  0.61972811207E-01 -0.84110334035E-01  0.40866187720E-01  0.11218504375E+00  0.51100000000E-03 0. -1.
</event>
<event>
 8    1  0.2190295E+004  0.1043930E+01  0.7957747E-01            NaN
         13   -1    0    0    0    0  0.00000000000E+00  0.00000000000E+00  0.74505805969E-08  0.10566000000E+00  0.10566000000E+00 0. -1.
     999900   -1    0    0    0    0 -0.00000000000E+00 -0.00000000000E+00 -0.74505805969E-08  0.93827000000E+00  0.93827000000E+00 0. -1.
     999902    2    1    2    0    0  0.68887567585E-02 -0.91730559024E-02  0.72406101726E-02  0.10303643684E+01  0.10302750630E+01 0.  0.
     999903    2    3    3    0    0 -0.41665402963E-01 -0.73633306601E-02  0.12664252908E+00  0.14097266632E+00  0.45218779676E-01 0.  0.
         14    1    1    2    0    0 -0.68887567585E-02  0.91730559024E-02 -0.72406101726E-02  0.13565631572E-01  0.00000000000E+00 0.  1.
     999901    1    3    3    0    0  0.48554159722E-01 -0.18097252423E-02 -0.11940191891E+00  0.88939170210E+00  0.88000000000E+00 0. -1.
        -11    1    4    4    0    0  0.10067392202E-02 -0.14948120003E-01  0.57044171062E-01  0.58981000234E-01  0.51100000000E-03 0. -1.
         11    1    4    4    0    0 -0.42672142184E-01  0.75847893429E-02  0.69598358022E-01  0.81991666090E-01  0.51100000000E-03 0.  1.
</event>
<event>
 8    1  0.2190295E+004  0.1043930E+01  0.7957747E-01            NaN
         13   -1    0    0    0    0  0.00000000000E+00  0.00000000000E+00  0.74505805969E-08  0.10566000000E+00  0.10566000000E+00 0. -1.
     999900   -1    0    0    0    0 -0.00000000000E+00 -0.00000000000E+00 -0.74505805969E-08  0.93827000000E+00  0.93827000000E+00 0. -1.
     999902    2    1    2    0    0 -0.13675026927E-01 -0.20106733317E-02  0.11891926774E-02  0.10300568840E+01  0.10299634561E+01 0.  0.
     999903    2    3    3    0    0  0.32924063994E-01 -0.51932822804E-01  0.11735433564E+00  0.13979959717E+00  0.44619224571E-01 0.  0.
         14    1    1    2    0    0  0.13675026927E-01  0.20106733317E-02 -0.11891926774E-02  0.13873116013E-01  0.00000000000E+00 0. -1.
     999901    1    3    3    0    0 -0.46599090921E-01  0.49922149472E-01 -0.11616514297E+00  0.89025728681E+00  0.88000000000E+00 0. -1.
        -11    1    4    4    0    0 -0.11187249231E-01 -0.92481559411E-02  0.24783626811E-01  0.28725810912E-01  0.51100000000E-03 0.  1.
         11    1    4    4    0    0  0.44111313225E-01 -0.42684666863E-01  0.92570708834E-01  0.11107378626E+00  0.51100000000E-03 0. -1.
</event>
<event>
 8    1  0.2190295E+004  0.1043930E+01  0.7957747E-01            NaN
         13   -1    0    0    0    0  0.00000000000E+00  0.00000000000E+00  0.74505805969E-08  0.10566000000E+00  0.10566000000E+00 0.  1.
     999900   -1    0    0    0    0 -0.00000000000E+00 -0.00000000000E+00 -0.74505805969E-08  0.93827000000E+00  0.93827000000E+00 0.  1.
     999902    2    1    2    0    0 -0.34201243809E-02 -0.13598850741E-01 -0.15095561389E-02  0.10298266404E+01  0.10297300639E+01 0.  0.
     999903    2    3    3    0    0 -0.19096077232E-01  0.12607181021E+00  0.28933939704E-01  0.13815381056E+00  0.44615479501E-01 0.  0.
         14    1    1    2    0    0  0.34201243809E-02  0.13598850741E-01  0.15095561389E-02  0.14103359599E-01  0.00000000000E+00 0.  1.
     999901    1    3    3    0    0  0.15675952852E-01 -0.13967066095E+00 -0.30443495843E-01  0.89167282984E+00  0.88000000000E+00 0. -1.
        -11    1    4    4    0    0 -0.27727602530E-01  0.81927973095E-01  0.33894573955E-01  0.92898417544E-01  0.51100000000E-03 0. -1.
         11    1    4    4    0    0  0.86315252974E-02  0.44143837116E-01 -0.49606342510E-02  0.45255393021E-01  0.51100000000E-03 0.  1.
</event>
<event>
 8    1  0.2190295E+004  0.1043930E+01  0.7957747E-01            NaN
         13   -1    0    0    0    0  0.00000000000E+00  0.00000000000E+00  0.74505805969E-08  0.10566000000E+00  0.10566000000E+00 0.  1.
     999900   -1    0    0    0    0 -0.00000000000E+00 -0.00000000000E+00 -0.74505805969E-08  0.93827000000E+00  0.93827000000E+00 0.  1.
     999902    2    1    2    0    0  0.21739774633E-02  0.10384495673E-01  0.87329339468E-02  0.10301885276E+01  0.10300968762E+01 0.  0.
     999903    2    3    3    0    0 -0.15282566962E-01 -0.30554170786E-01 -0.12636721338E+00  0.13876676706E+00  0.46048114174E-01 0.  0.
         14    1    1    2    0    0 -0.21739774633E-02 -0.10384495673E-01 -0.87329339468E-02  0.13741472400E-01  0.00000000000E+00 0.  1.
     999901    1    3    3    0    0  0.17456544425E-01  0.40938666459E-01  0.13510014732E+00  0.89142176054E+00  0.88000000000E+00 0. -1.
        -11    1    4    4    0    0 -0.10243933046E-01 -0.34813940346E-01 -0.48282196449E-01  0.60401822999E-01  0.51100000000E-03 0.  1.
         11    1    4    4    0    0 -0.50386339151E-02  0.42597695599E-02 -0.78085016927E-01  0.78364944063E-01  0.51100000000E-03 0. -1.
</event>
<event>
 8    1  0.2190295E+004  0.1043930E+01  0.7957747E-01            NaN
         13   -1    0    0    0    0  0.00000000000E+00  0.00000000000E+00  0.74505805969E-08  0.10566000000E+00  0.10566000000E+00 0. -1.
     999900   -1    0    0    0    0 -0.00000000000E+00 -0.00000000000E+00 -0.74505805969E-08  0.93827000000E+00  0.93827000000E+00 0. -1.
     999902    2    1    2    0    0  0.18683540811E-02 -0.13751684738E-01 -0.21550266888E-02  0.10298856517E+01  0.10297898872E+01 0.  0.
     999903    2    3    3    0    0 -0.12357163788E+00 -0.17041133257E-01  0.44178880818E-01  0.13977731947E+00  0.45006395292E-01 0.  0.
         14    1    1    2    0    0 -0.18683540811E-02  0.13751684738E-01  0.21550266888E-02  0.14044348335E-01  0.00000000000E+00 0. -1.
     999901    1    3    3    0    0  0.12543999196E+00  0.32894485191E-02 -0.46333907507E-01  0.89010833219E+00  0.88000000000E+00 0. -1.
        -11    1    4    4    0    0 -0.72152597333E-01  0.10061867382E-01  0.35376324765E-01  0.80987554304E-01  0.51100000000E-03 0. -1.
         11    1    4    4    0    0 -0.51419040548E-01 -0.27103000640E-01  0.88025560530E-02  0.58789765169E-01  0.51100000000E-03 0.  1.
</event>
<event>
 8    1  0.2190295E+004  0.1043930E+01  0.7957747E-01            NaN
         13   -1    0    0    0    0  0.00000000000E+00  0.00000000000E+00  0.74505805969E-08  0.10566000000E+00  0.10566000000E+00 0. -1.
     999900   -1    0    0    0    0 -0.00000000000E+00 -0.00000000000E+00 -0.74505805969E-08  0.93827000000E+00  0.93827000000E+00 0. -1.
     999902    2    1    2    0    0  0.40891253848E-02  0.23539312564E-03  0.13386523140E-01  0.10299308801E+01  0.10298357356E+01 0.  0.
     999903    2    3    3    0    0  0.44682433496E-01  0.13708768554E-01  0.12606941138E+00  0.14171537595E+00  0.44780588378E-01 0.  0.
         14    1    1    2    0    0 -0.40891253848E-02 -0.23539312564E-03 -0.13386523140E-01  0.13999119905E-01  0.00000000000E+00 0.  1.
     999901    1    3    3    0    0 -0.40593308111E-01 -0.13473375428E-01 -0.11268288824E+00  0.88821550415E+00  0.88000000000E+00 0. -1.
        -11    1    4    4    0    0  0.22282390888E-01 -0.48774057423E-02  0.16013788847E-01  0.27874658468E-01  0.51100000000E-03 0.  1.
         11    1    4    4    0    0  0.22400042608E-01  0.18586174296E-01  0.11005562253E+00  0.11384071748E+00  0.51100000000E-03 0. -1.
</event>
<event>
 8    1  0.2190295E+004  0.1043930E+01  0.7957747E-01            NaN
         13   -1    0    0    0    0  0.00000000000E+00  0.00000000000E+00  0.74505805969E-08  0.10566000000E+00  0.10566000000E+00 0.  1.
     999900   -1    0    0    0    0 -0.00000000000E+00 -0.00000000000E+00 -0.74505805969E-08  0.93827000000E+00  0.93827000000E+00 0. -1.
     999902    2    1    2    0    0 -0.39091310364E-02  0.11741614663E-01 -0.79887323787E-02  0.10292002116E+01  0.10290948008E+01 0.  0.
     999903    2    3    3    0    0  0.11998810731E+00  0.17374321053E-01  0.52652689335E-01  0.13843669920E+00  0.41150954591E-01 0.  0.
         14    1    1    2    0    0  0.39091310364E-02 -0.11741614663E-01  0.79887323787E-02  0.14729788369E-01  0.00000000000E+00 0.  1.
     999901    1    3    3    0    0 -0.12389723835E+00 -0.56327063897E-02 -0.60641421714E-01  0.89076351243E+00  0.88000000000E+00 0. -1.
        -11    1    4    4    0    0  0.94486099554E-01 -0.42636000454E-02  0.38715178505E-01  0.10220042789E+00  0.51100000000E-03 0.  1.
         11    1    4    4    0    0  0.25502007755E-01  0.21637921099E-01  0.13937510830E-01  0.36236271306E-01  0.51100000000E-03 0. -1.
</event>
<event>
 8    1  0.2190295E+004  0.1043930E+01  0.7957747E-01            NaN
         13   -1    0    0    0    0  0.00000000000E+00  0.00000000000E+00  0.74505805969E-08  0.10566000000E+00  0.10566000000E+00 0.  1.
     999900   -1    0    0    0    0 -0.00000000000E+00 -0.00000000000E+00 -0.74505805969E-08  0.93827000000E+00  0.93827000000E+00 0. -1.
     999902    2    1    2    0    0 -0.44145931757E-02  0.44641089575E-02 -0.12341934492E-01  0.10300829697E+01  0.10299898952E+01 0.  0.
     999903    2    3    3    0    0  0.47271706206E-01  0.90774711995E-01 -0.86721507510E-01  0.14123353664E+00  0.44177250485E-01 0.  0.
         14    1    1    2    0    0  0.44145931757E-02 -0.44641089575E-02  0.12341934492E-01  0.13847030320E-01  0.00000000000E+00 0.  1.
     999901    1    3    3    0    0 -0.51686299382E-01 -0.86310603038E-01  0.74379573018E-01  0.88884943304E+00  0.88000000000E+00 0.  1.
        -11    1    4    4    0    0  0.11527250113E-02  0.40753269770E-01 -0.47879478363E-01  0.62887704213E-01  0.51100000000E-03 0.  1.
         11    1    4    4    0    0  0.46118981195E-01  0.50021442225E-01 -0.38842029147E-01  0.78345832423E-01  0.51100000000E-03 0. -1.
</event>
<event>
 8    1  0.2190295E+004  0.1043930E+01  0.7957747E-01            NaN
         13   -1    0    0    0    0  0.00000000000E+00  0.00000000000E+00  0.74505805969E-08  0.10566000000E+00  0.10566000000E+00 0. -1.
     999900   -1    0    0    0    0 -0.00000000000E+00 -0.00000000000E+00 -0.74505805969E-08  0.93827000000E+00  0.93827000000E+00 0. -1.
     999902    2    1    2    0    0 -0.76865547184E-02 -0.75092295689E-02 -0.85611111810E-02  0.10301908488E+01  0.10300992285E+01 0.  0.
     999903    2    3    3    0    0  0.45480819600E-02  0.11661121864E-01  0.13076044894E+00  0.13894021856E+00  0.45270547991E-01 0.  0.
         14    1    1    2    0    0  0.76865547184E-02  0.75092295689E-02  0.85611111810E-02  0.13739151241E-01  0.00000000000E+00 0.  1.
     999901    1    3    3    0    0 -0.12234636678E-01 -0.19170351433E-01 -0.13932156012E+00  0.89125063019E+00  0.88000000000E+00 0. -1.
        -11    1    4    4    0    0 -0.33634640548E-02  0.16798198225E-01  0.14944556793E-01  0.22739684536E-01  0.51100000000E-03 0.  1.
         11    1    4    4    0    0  0.79115460148E-02 -0.51370763617E-02  0.11581589215E+00  0.11620053403E+00  0.51100000000E-03 0. -1.
</event>
<event>
 8    1  0.2190295E+004  0.1043930E+01  0.7957747E-01            NaN
         13   -1    0    0    0    0  0.00000000000E+00  0.00000000000E+00  0.74505805969E-08  0.10566000000E+00  0.10566000000E+00 0. -1.
     999900   -1    0    0    0    0 -0.00000000000E+00 -0.00000000000E+00 -0.74505805969E-08  0.93827000000E+00  0.93827000000E+00 0.  1.
     999902    2    1    2    0    0  0.14173497514E-03 -0.10877463954E-01  0.93759395446E-02  0.10295686786E+01  0.10294685116E+01 0.  0.
     999903    2    3    3    0    0 -0.11323409843E+00 -0.57676824785E-01  0.39006557832E-01  0.14056798492E+00  0.45708529458E-01 0.  0.
         14    1    1    2    0    0 -0.14173497514E-03  0.10877463954E-01 -0.93759395446E-02  0.14361321430E-01  0.00000000000E+00 0.  1.
     999901    1    3    3    0    0  0.11337583341E+00  0.46799360831E-01 -0.29630618287E-01  0.88900069365E+00  0.88000000000E+00 0.  1.
        -11    1    4    4    0    0 -0.76855583313E-01 -0.24786286517E-01  0.50461760971E-02  0.80912704194E-01  0.51100000000E-03 0. -1.
         11    1    4    4    0    0 -0.36378515118E-01 -0.32890538267E-01  0.33960381735E-01  0.59655280724E-01  0.51100000000E-03 0.  1.
</event>
<event>
 8    1  0.2190295E+004  0.1043930E+01  0.7957747E-01            NaN
         13   -1    0    0    0    0  0.00000000000E+00  0.00000000000E+00  0.74505805969E-08  0.10566000000E+00  0.10566000000E+00 0.  1.
     999900   -1    0    0    0    0 -0.00000000000E+00 -0.00000000000E+00 -0.74505805969E-08  0.93827000000E+00  0.93827000000E+00 0. -1.
     999902    2    1    2    0    0  0.28303669905E-02 -0.25115504837E-02  0.13168555791E-01  0.10302285503E+01  0.10301374355E+01 0.  0.
     999903    2    3    3    0    0 -0.11353746699E+00 -0.16710203526E-01 -0.64782983445E-01  0.13903860587E+00  0.44327324142E-01 0.  0.
         14    1    1    2    0    0 -0.28303669905E-02  0.25115504837E-02 -0.13168555791E-01  0.13701449732E-01  0.00000000000E+00 0. -1.
     999901    1    3    3    0    0  0.11636783398E+00  0.14198653043E-01  0.77951539237E-01  0.89118994440E+00  0.88000000000E+00 0.  1.
        -11    1    4    4    0    0 -0.82927868896E-01  0.73123565534E-02 -0.36334517496E-01  0.90834796640E-01  0.51100000000E-03 0. -1.
         11    1    4    4    0    0 -0.30609598090E-01 -0.24022560080E-01 -0.28448465950E-01  0.48203809226E-01  0.51100000000E-03 0.  1.
</event>
<event>
 8    1  0.2190295E+004  0.1043930E+01  0.7957747E-01            NaN
         13   -1    0    0    0    0  0.00000000000E+00  0.00000000000E+00  0.74505805969E-08  0.10566000000E+00  0.10566000000E+00 0.  1.
     999900   -1    0    0    0    0 -0.00000000000E+00 -0.00000000000E+00 -0.74505805969E-08  0.93827000000E+00  0.93827000000E+00 0.  1.
     999902    2    1    2    0    0  0.54563742786E-02 -0.21221034771E-02  0.10962428026E-01  0.10315022017E+01  0.10314273323E+01 0.  0.
     999903    2    3    3    0    0  0.16096694433E-01 -0.80007672749E-01  0.10788329193E+00  0.14269793064E+00  0.45426462125E-01 0.  0.
         14    1    1    2    0    0 -0.54563742786E-02  0.21221034771E-02 -0.10962428026E-01  0.12427798343E-01  0.00000000000E+00 0. -1.
     999901    1    3    3    0    0 -0.10640320154E-01  0.77885569272E-01 -0.96920863905E-01  0.88880427101E+00  0.88000000000E+00 0.  1.
        -11    1    4    4    0    0  0.20177620049E-01 -0.77244968027E-01  0.75320829711E-01  0.10976069399E+00  0.51100000000E-03 0. -1.
         11    1    4    4    0    0 -0.40809256162E-02 -0.27627047223E-02  0.32562462221E-01  0.32937236650E-01  0.51100000000E-03 0.  1.
</event>
<event>
 8    1  0.2190295E+004  0.1043930E+01  0.7957747E-01            NaN
         13   -1    0    0    0    0  0.00000000000E+00  0.00000000000E+00  0.74505805969E-08  0.10566000000E+00  0.10566000000E+00 0.  1.
     999900   -1    0    0    0    0 -0.00000000000E+00 -0.00000000000E+00 -0.74505805969E-08  0.93827000000E+00  0.93827000000E+00 0. -1.
     999902    2    1    2    0    0  0.50745482699E-02  0.36191285033E-02 -0.12341011825E-01  0.10301043100E+01  0.10300115241E+01 0.  0.
     999903    2    3    3    0    0  0.55754299262E-01 -0.11899606243E+00 -0.23096451528E-01  0.14009385967E+00  0.42711107263E-01 0.  0.
         14    1    1    2    0    0 -0.50745482699E-02 -0.36191285033E-02  0.12341011825E-01  0.13825690005E-01  0.00000000000E+00 0.  1.
     999901    1    3    3    0    0 -0.50679750993E-01  0.12261519093E+00  0.10755439703E-01  0.89001045033E+00  0.88000000000E+00 0. -1.
        -11    1    4    4    0    0  0.62457564077E-02 -0.21363405866E-01 -0.20999478746E-01  0.30604637098E-01  0.51100000000E-03 0. -1.
         11    1    4    4    0    0  0.49508542855E-01 -0.97632656563E-01 -0.20969727819E-02  0.10948922257E+00  0.51100000000E-03 0.  1.
</event>
<event>
 8    1  0.2190295E+004  0.1043930E+01  0.7957747E-01            NaN
         13   -1    0    0    0    0  0.00000000000E+00  0.00000000000E+00  0.74505805969E-08  0.10566000000E+00  0.10566000000E+00 0.  1.
     999900   -1    0    0    0    0 -0.00000000000E+00 -0.00000000000E+00 -0.74505805969E-08  0.93827000000E+00  0.93827000000E+00 0.  1.
     999902    2    1    2    0    0  0.10900089417E-01 -0.61005829539E-02  0.62135536533E-02  0.10299787524E+01  0.10298842619E+01 0.  0.
     999903    2    3    3    0    0  0.87721597678E-01 -0.97241384153E-01 -0.26883478748E-01  0.14132606243E+00  0.45818871659E-01 0.  0.
         14    1    1    2    0    0 -0.10900089417E-01  0.61005829539E-02 -0.62135536533E-02  0.13951247639E-01  0.00000000000E+00 0. -1.
     999901    1    3    3    0    0 -0.76821508260E-01  0.91140801199E-01  0.33097032401E-01  0.88865268993E+00  0.88000000000E+00 0. -1.
        -11    1    4    4    0    0  0.31816516609E-01 -0.20172040920E-01 -0.26589524619E-01  0.46113619512E-01  0.51100000000E-03 0.  1.
         11    1    4    4    0    0  0.55905081069E-01 -0.77069343233E-01 -0.29395412881E-03  0.95212442914E-01  0.51100000000E-03 0. -1.
</event>
<event>
 8    1  0.2190295E+004  0.1043930E+01  0.7957747E-01            NaN
         13   -1    0    0    0    0  0.00000000000E+00  0.00000000000E+00  0.74505805969E-08  0.10566000000E+00  0.10566000000E+00 0. -1.
     999900   -1    0    0    0    0 -0.00000000000E+00 -0.00000000000E+00 -0.74505805969E-08  0.93827000000E+00  0.93827000000E+00 0. -1.
     999902    2    1    2    0    0 -0.10359771365E-01 -0.71022905526E-02  0.72575125309E-02  0.10294234883E+01  0.10293212712E+01 0.  0.
     999903    2    3    3    0    0 -0.22277988870E-01  0.12698746996E+00 -0.20232269727E-01  0.13876205098E+00  0.47153321599E-01 0.  0.
         14    1    1    2    0    0  0.10359771365E-01  0.71022905526E-02 -0.72575125309E-02  0.14506511709E-01  0.00000000000E+00 0.  1.
     999901    1    3    3    0    0  0.11918217505E-01 -0.13408976052E+00  0.27489782257E-01  0.89066143731E+00  0.88000000000E+00 0. -1.
        -11    1    4    4    0    0  0.13474696872E-01  0.54590796793E-01 -0.37851998089E-02  0.56358774018E-01  0.51100000000E-03 0.  1.
         11    1    4    4    0    0 -0.35752685742E-01  0.72396673172E-01 -0.16447069918E-01  0.82403276962E-01  0.51100000000E-03 0. -1.
</event>
<event>
 8    1  0.2190295E+004  0.1043930E+01  0.7957747E-01            NaN
         13   -1    0    0    0    0  0.00000000000E+00  0.00000000000E+00  0.74505805969E-08  0.10566000000E+00  0.10566000000E+00 0.  1.
     999900   -1    0    0    0    0 -0.00000000000E+00 -0.00000000000E+00 -0.74505805969E-08  0.93827000000E+00  0.93827000000E+00 0. -1.
     999902    2    1    2    0    0  0.17386809138E-02 -0.19299855094E-02 -0.13344024739E-01  0.10303354845E+01  0.10302457958E+01 0.  0.
     999903    2    3    3    0    0 -0.11603368520E+00 -0.61450090947E-01 -0.21835855999E-01  0.14045623181E+00  0.44846612680E-01 0.  0.
         14    1    1    2    0    0 -0.17386809138E-02  0.19299855094E-02  0.13344024739E-01  0.13594515498E-01  0.00000000000E+00 0.  1.
     999901    1    3    3    0    0  0.11777236611E+00  0.59520105438E-01  0.84918312604E-02  0.88987925269E+00  0.88000000000E+00 0.  1.
        -11    1    4    4    0    0 -0.22594749732E-02 -0.98475672100E-02 -0.11171538472E-01  0.15071303857E-01  0.51100000000E-03 0. -1.
         11    1    4    4    0    0 -0.11377421023E+00 -0.51602523737E-01 -0.10664317527E-01  0.12538492795E+00  0.51100000000E-03 0.  1.
</event>
<event>
 8    1  0.2190295E+004  0.1043930E+01  0.7957747E-01            NaN
         13   -1    0    0    0    0  0.00000000000E+00  0.00000000000E+00  0.74505805969E-08  0.10566000000E+00  0.10566000000E+00 0. -1.
     999900   -1    0    0    0    0 -0.00000000000E+00 -0.00000000000E+00 -0.74505805969E-08  0.93827000000E+00  0.93827000000E+00 0.  1.
     999902    2    1    2    0    0  0.64619642943E-02  0.11812662543E-01 -0.36540855270E-02  0.10299783578E+01  0.10298838620E+01 0.  0.
     999903    2    3    3    0    0  0.11671962801E+00  0.45440788207E-01 -0.47860067101E-01  0.14136045789E+00  0.44764452804E-01 0.  0.
         14    1    1    2    0    0 -0.64619642943E-02 -0.11812662543E-01  0.36540855270E-02  0.13951642195E-01  0.00000000000E+00 0. -1.
     999901    1    3    3    0    0 -0.11025766372E+00 -0.33628125664E-01  0.44205981574E-01  0.88861789992E+00  0.88000000000E+00 0. -1.
        -11    1    4    4    0    0  0.90196853853E-01  0.53579987850E-01 -0.41959333459E-01  0.11299174451E+00  0.51100000000E-03 0. -1.
         11    1    4    4    0    0  0.26522774162E-01 -0.81391996421E-02 -0.59007336416E-02  0.28368713375E-01  0.51100000000E-03 0.  1.
</event>
<event>
 7    1  0.2190295E+004  0.1043930E+01  0.7957747E-01            NaN
         13   -1    0    0    0    0  0.00000000000E+00  0.00000000000E+00  0.74505805969E-08  0.10566000000E+00  0.10566000000E+00 0.  1.
     999900   -1    0    0    0    0 -0.00000000000E+00 -0.00000000000E+00 -0.74505805969E-08  0.93827000000E+00  0.93827000000E+00 0.  1.
     999902    2    1    2    0    0  0.34818995647E-02  0.11817857162E-01  0.59073015103E-02  0.10302668531E+01  0.10301762504E+01 0.  0.
         14    1    1    2    0    0 -0.34818995647E-02 -0.11817857162E-01 -0.59073015103E-02  0.13663146915E-01  0.00000000000E+00 0.  1.
     999901    1    3    3    0    0 -0.23719363994E-01 -0.56139761893E-01 -0.10052305499E+00  0.88781707895E+00  0.88000000000E+00 0.  1.
        -11    1    3    3    0    0  0.84709847777E-02  0.43787629244E-01  0.16658609379E-01  0.47611809936E-01  0.51100000000E-03 0. -1.
         11    1    3    3    0    0  0.18730278781E-01  0.24169989811E-01  0.89771747122E-01  0.94837964197E-01  0.51100000000E-03 0.  1.
</event>
<event>
 8    1  0.2190295E+004  0.1043930E+01  0.7957747E-01            NaN
         13   -1    0    0    0    0  0.00000000000E+00  0.00000000000E+00  0.74505805969E-08  0.10566000000E+00  0.10566000000E+00 0.  1.
     999900   -1    0    0    0    0 -0.00000000000E+00 -0.00000000000E+00 -0.74505805969E-08  0.93827000000E+00  0.93827000000E+00 0.  1.
     999902    2    1    2    0    0  0.97460172180E-02 -0.52780233973E-02 -0.78291012556E-02  0.10303602834E+01  0.10302709238E+01 0.  0.
     999903    2    3    3    0    0  0.39609727837E-01  0.23168568124E-01  0.12203672722E+00  0.13987379658E+00  0.50655731072E-01 0.  0.
         14    1    1    2    0    0 -0.97460172180E-02  0.52780233973E-02  0.78291012556E-02  0.13569716617E-01  0.00000000000E+00 0.  1.
     999901    1    3    3    0    0 -0.29863710619E-01 -0.28446591522E-01 -0.12986582847E+00  0.89048648681E+00  0.88000000000E+00 0.  1.
        -11    1    4    4    0    0  0.21250524491E-01 -0.40251284409E-02  0.94772613482E-01  0.97210574720E-01  0.51100000000E-03 0. -1.
         11    1    4    4    0    0  0.18359203346E-01  0.27193696565E-01  0.27264113735E-01  0.42663221856E-01  0.51100000000E-03 0.  1.
</event>
<event>
 8    1  0.2190295E+004  0.1043930E+01  0.7957747E-01            NaN
         13   -1    0    0    0    0  0.00000000000E+00  0.00000000000E+00  0.74505805969E-08  0.10566000000E+00  0.10566000000E+00 0.  1.
     999900   -1    0    0    0    0 -0.00000000000E+00 -0.00000000000E+00 -0.74505805969E-08  0.93827000000E+00  0.93827000000E+00 0. -1.
     999902    2    1    2    0    0  0.24225329886E-02 -0.13328173557E-01 -0.15220142062E-02  0.10302982208E+01  0.10302080365E+01 0.  0.
     999903    2    3    3    0    0 -0.12947563708E+00 -0.22708070516E-01 -0.17113038791E-01  0.14028238400E+00  0.45898737452E-01 0.  0.
         14    1    1    2    0    0 -0.24225329886E-02  0.13328173557E-01  0.15220142062E-02  0.13631779183E-01  0.00000000000E+00 0.  1.
     999901    1    3    3    0    0  0.13189817007E+00  0.93798969582E-02  0.15591024585E-01  0.89001583682E+00  0.88000000000E+00 0.  1.
        -11    1    4    4    0    0 -0.90211475363E-01 -0.12408334089E-01  0.97813536567E-02  0.91586096338E-01  0.51100000000E-03 0.  1.
         11    1    4    4    0    0 -0.39264161720E-01 -0.10299736427E-01 -0.26894392448E-01  0.48696287663E-01  0.51100000000E-03 0. -1.
</event>
<event>
 8    1  0.2190295E+004  0.1043930E+01  0.7957747E-01            NaN
         13   -1    0    0    0    0  0.00000000000E+00  0.00000000000E+00  0.74505805969E-08  0.10566000000E+00  0.10566000000E+00 0. -1.
     999900   -1    0    0    0    0 -0.00000000000E+00 -0.00000000000E+00 -0.74505805969E-08  0.93827000000E+00  0.93827000000E+00 0.  1.
     999902    2    1    2    0    0 -0.14945295387E-01 -0.30320126840E-02  0.10807173753E-02  0.10286420013E+01  0.10285283875E+01 0.  0.
     999903    2    3    3    0    0 -0.79921800116E-01  0.10049938998E+00  0.31690616866E-01  0.13966637537E+00  0.44886297367E-01 0.  0.
         14    1    1    2    0    0  0.14945295387E-01  0.30320126840E-02 -0.10807173753E-02  0.15287998730E-01  0.00000000000E+00 0.  1.
     999901    1    3    3    0    0  0.64976504729E-01 -0.10353140266E+00 -0.30609899491E-01  0.88897562590E+00  0.88000000000E+00 0.  1.
        -11    1    4    4    0    0 -0.13819669322E-01  0.42465866613E-01 -0.37790954395E-02  0.44820483829E-01  0.51100000000E-03 0.  1.
         11    1    4    4    0    0 -0.66102130794E-01  0.58033523363E-01  0.35469712305E-01  0.94845891537E-01  0.51100000000E-03 0. -1.
</event>
<event>
 8    1  0.2190295E+004  0.1043930E+01  0.7957747E-01            NaN
         13   -1    0    0    0    0  0.00000000000E+00  0.00000000000E+00  0.74505805969E-08  0.10566000000E+00  0.10566000000E+00 0. -1.
     999900   -1    0    0    0    0 -0.00000000000E+00 -0.00000000000E+00 -0.74505805969E-08  0.93827000000E+00  0.93827000000E+00 0.  1.
     999902    2    1    2    0    0  0.97516972223E-02  0.34459484685E-02 -0.52633155306E-02  0.10323251454E+01  0.10322599155E+01 0.  0.
     999903    2    3    3    0    0  0.11957827371E+00  0.56159639986E-01  0.32858129535E-01  0.14311546556E+00  0.44153268270E-01 0.  0.
         14    1    1    2    0    0 -0.97516972223E-02 -0.34459484685E-02  0.52633155306E-02  0.11604854585E-01  0.00000000000E+00 0.  1.
     999901    1    3    3    0    0 -0.10982657649E+00 -0.52713691517E-01 -0.38121445065E-01  0.88920967986E+00  0.88000000000E+00 0.  1.
        -11    1    4    4    0    0  0.49292950115E-01  0.16223456361E-01 -0.80443349266E-02  0.52516358525E-01  0.51100000000E-03 0. -1.
         11    1    4    4    0    0  0.70285323594E-01  0.39936183624E-01  0.40902464461E-01  0.90599107033E-01  0.51100000000E-03 0.  1.
</event>
<event>
 8    1  0.2190295E+004  0.1043930E+01  0.7957747E-01            NaN
         13   -1    0    0    0    0  0.00000000000E+00  0.00000000000E+00  0.74505805969E-08  0.10566000000E+00  0.10566000000E+00 0.  1.
     999900   -1    0    0    0    0 -0.00000000000E+00 -0.00000000000E+00 -0.74505805969E-08  0.93827000000E+00  0.93827000000E+00 0.  1.
     999902    2    1    2    0    0  0.47813763686E-02  0.40594897092E-02 -0.11196872343E-01  0.10310960229E+01  0.10310161481E+01 0.  0.
     999903    2    3    3    0    0  0.47563792153E-01 -0.38247005993E-01 -0.12066337222E+00  0.14227484337E+00  0.44241766092E-01 0.  0.
         14    1    1    2    0    0 -0.47813763686E-02 -0.40594897092E-02  0.11196872343E-01  0.12833977051E-01  0.00000000000E+00 0.  1.
     999901    1    3    3    0    0 -0.42782415785E-01  0.42306495702E-01  0.10946649988E+00  0.88882117958E+00  0.88000000000E+00 0. -1.
        -11    1    4    4    0    0  0.31431069158E-01 -0.14713445095E-01 -0.25896544073E-01  0.43304615123E-01  0.51100000000E-03 0.  1.
         11    1    4    4    0    0  0.16132722995E-01 -0.23533560898E-01 -0.94766828151E-01  0.98970228243E-01  0.51100000000E-03 0. -1.
</event>
<event>
 8    1  0.2190295E+004  0.1043930E+01  0.7957747E-01            NaN
         13   -1    0    0    0    0  0.00000000000E+00  0.00000000000E+00  0.74505805969E-08  0.10566000000E+00  0.10566000000E+00 0. -1.
     999900   -1    0    0    0    0 -0.00000000000E+00 -0.00000000000E+00 -0.74505805969E-08  0.93827000000E+00  0.93827000000E+00 0. -1.
     999902    2    1    2    0    0  0.89078729958E-02 -0.98532708458E-02 -0.34053907602E-02  0.10302174571E+01  0.10301261937E+01 0.  0.
     999903    2    3    3    0    0 -0.52697953255E-01  0.11309861236E+00 -0.40427252522E-01  0.13876747997E+00  0.45317550179E-01 0.  0.
         14    1    1    2    0    0 -0.89078729958E-02  0.98532708458E-02  0.34053907602E-02  0.13712542941E-01  0.00000000000E+00 0. -1.
     999901    1    3    3    0    0  0.61605826251E-01 -0.12295188321E+00  0.37021861762E-01  0.89144997709E+00  0.88000000000E+00 0. -1.
        -11    1    4    4    0    0 -0.46971748057E-01  0.81531598187E-01 -0.48244352965E-01  0.10574273182E+00  0.51100000000E-03 0. -1.
         11    1    4    4    0    0 -0.57262051982E-02  0.31567014174E-01  0.78171004427E-02  0.33024748147E-01  0.51100000000E-03 0.  1.
</event>
<event>
 8    1  0.2190295E+004  0.1043930E+01  0.7957747E-01            NaN
         13   -1    0    0    0    0  0.00000000000E+00  0.00000000000E+00  0.74505805969E-08  0.10566000000E+00  0.10566000000E+00 0.  1.
     999900   -1    0    0    0    0 -0.00000000000E+00 -0.00000000000E+00 -0.74505805969E-08  0.93827000000E+00  0.93827000000E+00 0.  1.
     999902    2    1    2    0    0 -0.99490637640E-02  0.10159812959E-01  0.34546958982E-02  0.10292964566E+01  0.10291924285E+01 0.  0.
     999903    2    3    3    0    0 -0.48247454538E-01 -0.13507879345E-01 -0.12190208877E+00  0.13927328281E+00  0.45018311645E-01 0.  0.
         14    1    1    2    0    0  0.99490637640E-02 -0.10159812959E-01 -0.34546958982E-02  0.14633543416E-01  0.00000000000E+00 0. -1.
     999901    1    3    3    0    0  0.38298390774E-01  0.23667692304E-01  0.12535678467E+00  0.89002317378E+00  0.88000000000E+00 0. -1.
        -11    1    4    4    0    0 -0.19609145255E-01  0.12025563610E-01 -0.76204098657E-01  0.79601875172E-01  0.51100000000E-03 0.  1.
         11    1    4    4    0    0 -0.28638309283E-01 -0.25533442955E-01 -0.45697990115E-01  0.59671407636E-01  0.51100000000E-03 0. -1.
</event>
<event>
 8    1  0.2190295E+004  0.1043930E+01  0.7957747E-01            NaN
         13   -1    0    0    0    0  0.00000000000E+00  0.00000000000E+00  0.74505805969E-08  0.10566000000E+00  0.10566000000E+00 0.  1.
     999900   -1    0    0    0    0 -0.00000000000E+00 -0.00000000000E+00 -0.74505805969E-08  0.93827000000E+00  0.93827000000E+00 0.  1.
     999902    2    1    2    0    0  0.10125105941E-01 -0.44285551821E-02  0.98304036542E-02  0.10291392357E+01  0.10290329440E+01 0.  0.
     999903    2    3    3    0    0  0.93436043529E-01  0.32317835813E-02 -0.92805887202E-01  0.13923272306E+00  0.45078595988E-01 0.  0.
         14    1    1    2    0    0 -0.10125105941E-01  0.44285551821E-02 -0.98304036542E-02  0.14790764257E-01  0.00000000000E+00 0. -1.
     999901    1    3    3    0    0 -0.83310937588E-01 -0.76603387634E-02  0.10263629086E+00  0.88990651268E+00  0.88000000000E+00 0. -1.
        -11    1    4    4    0    0  0.21076845081E-01 -0.13527765477E-01 -0.75574051521E-02  0.26165040245E-01  0.51100000000E-03 0.  1.
         11    1    4    4    0    0  0.72359198447E-01  0.16759549059E-01 -0.85248482050E-01  0.11306768282E+00  0.51100000000E-03 0. -1.
</event>
<event>
 8    1  0.2190295E+004  0.1043930E+01  0.7957747E-01            NaN
         13   -1    0    0    0    0  0.00000000000E+00  0.00000000000E+00  0.74505805969E-08  0.10566000000E+00  0.10566000000E+00 0. -1.
     999900   -1    0    0    0    0 -0.00000000000E+00 -0.00000000000E+00 -0.74505805969E-08  0.93827000000E+00  0.93827000000E+00 0.  1.
     999902    2    1    2    0    0 -0.27251801044E-02  0.12578969981E-01 -0.62688181743E-02  0.10296137444E+01  0.10295142095E+01 0.  0.
     999903    2    3    3    0    0 -0.54811237574E-01  0.67825792015E-01  0.10009979676E+00  0.13996243578E+00  0.44327240967E-01 0.  0.
         14    1    1    2    0    0  0.27251801044E-02 -0.12578969981E-01  0.62688181743E-02  0.14316255575E-01  0.00000000000E+00 0. -1.
     999901    1    3    3    0    0  0.52086057470E-01 -0.55246822034E-01 -0.10636861493E+00  0.88965130864E+00  0.88000000000E+00 0.  1.
        -11    1    4    4    0    0 -0.51169631901E-02  0.88199913464E-02  0.42437457345E-01  0.43648304280E-01  0.51100000000E-03 0. -1.
         11    1    4    4    0    0 -0.49694274384E-01  0.59005800669E-01  0.57662339415E-01  0.96314131502E-01  0.51100000000E-03 0.  1.
</event>
<event>
 8    1  0.2190295E+004  0.1043930E+01  0.7957747E-01            NaN
         13   -1    0    0    0    0  0.00000000000E+00  0.00000000000E+00  0.74505805969E-08  0.10566000000E+00  0.10566000000E+00 0.  1.
     999900   -1    0    0    0    0 -0.00000000000E+00 -0.00000000000E+00 -0.74505805969E-08  0.93827000000E+00  0.93827000000E+00 0.  1.
     999902    2    1    2    0    0  0.91491135883E-02 -0.78919025617E-02  0.12604471511E-01  0.10264697277E+01  0.10263212172E+01 0.  0.
     999903    2    3    3    0    0  0.11094796334E+00  0.12829226073E-01  0.68993958730E-01  0.13856649807E+00  0.44344880581E-01 0.  0.
         14    1    1    2    0    0 -0.91491135883E-02  0.78919025617E-02 -0.12604471511E-01  0.17460272265E-01  0.00000000000E+00 0.  1.
     999901    1    3    3    0    0 -0.10179884976E+00 -0.20721128634E-01 -0.56389487219E-01  0.88790322967E+00  0.88000000000E+00 0.  1.
        -11    1    4    4    0    0  0.14389265198E-01  0.80225195686E-03 -0.60957791765E-02  0.15656123592E-01  0.51100000000E-03 0. -1.
         11    1    4    4    0    0  0.96558698146E-01  0.12026974116E-01  0.75089737907E-01  0.12291037448E+00  0.51100000000E-03 0.  1.
</event>
<event>
 8    1  0.2190295E+004  0.1043930E+01  0.7957747E-01            NaN
         13   -1    0    0    0    0  0.00000000000E+00  0.00000000000E+00  0.74505805969E-08  0.10566000000E+00  0.10566000000E+00 0.  1.
     999900   -1    0    0    0    0 -0.00000000000E+00 -0.00000000000E+00 -0.74505805969E-08  0.93827000000E+00  0.93827000000E+00 0.  1.
     999902    2    1    2    0    0  0.10753012021E-01 -0.12302998090E-01 -0.32226292476E-02  0.10272753800E+01  0.10271403652E+01 0.  0.
     999903    2    3    3    0    0 -0.10063066398E-01 -0.64754100110E-01 -0.11336368640E+00  0.13861600782E+00  0.45483111627E-01 0.  0.
         14    1    1    2    0    0 -0.10753012021E-01  0.12302998090E-01  0.32226292476E-02  0.16654620044E-01  0.00000000000E+00 0. -1.
     999901    1    3    3    0    0  0.20816078419E-01  0.52451102021E-01  0.11014105715E+00  0.88865937214E+00  0.88000000000E+00 0. -1.
        -11    1    4    4    0    0 -0.12358858396E-01 -0.59863162978E-01 -0.62356314882E-01  0.87320735162E-01  0.51100000000E-03 0. -1.
         11    1    4    4    0    0  0.22957919981E-02 -0.48909371326E-02 -0.51007371513E-01  0.51295272654E-01  0.51100000000E-03 0.  1.
</event>
<event>
 8    1  0.2190295E+004  0.1043930E+01  0.7957747E-01            NaN
         13   -1    0    0    0    0  0.00000000000E+00  0.00000000000E+00  0.74505805969E-08  0.10566000000E+00  0.10566000000E+00 0. -1.
     999900   -1    0    0    0    0 -0.00000000000E+00 -0.00000000000E+00 -0.74505805969E-08  0.93827000000E+00  0.93827000000E+00 0. -1.
     999902    2    1    2    0    0  0.12684491635E-01 -0.16375436871E-02 -0.38934117593E-02  0.10305607617E+01  0.10304740400E+01 0.  0.
     999903    2    3    3    0    0  0.39923863821E-02 -0.70522085694E-01  0.11224628367E+00  0.14021865798E+00  0.45527355816E-01 0.  0.
         14    1    1    2    0    0 -0.12684491635E-01  0.16375436871E-02  0.38934117593E-02  0.13369238292E-01  0.00000000000E+00 0.  1.
     999901    1    3    3    0    0  0.86921052533E-02  0.68884542007E-01 -0.11613969543E+00  0.89034210373E+00  0.88000000000E+00 0. -1.
        -11    1    4    4    0    0  0.18066687027E-01 -0.29982581039E-01  0.25096391225E-01  0.43074938415E-01  0.51100000000E-03 0.  1.
         11    1    4    4    0    0 -0.14074300645E-01 -0.40539504654E-01  0.87149892445E-01  0.97143719563E-01  0.51100000000E-03 0. -1.
</event>
<event>
 8    1  0.2190295E+004  0.1043930E+01  0.7957747E-01            NaN
         13   -1    0    0    0    0  0.00000000000E+00  0.00000000000E+00  0.74505805969E-08  0.10566000000E+00  0.10566000000E+00 0.  1.
     999900   -1    0    0    0    0 -0.00000000000E+00 -0.00000000000E+00 -0.74505805969E-08  0.93827000000E+00  0.93827000000E+00 0. -1.
     999902    2    1    2    0    0  0.50613188104E-02 -0.89573400488E-02  0.11730013348E-01  0.10283273047E+01  0.10282089289E+01 0.  0.
     999903    2    3    3    0    0 -0.92592255693E-01 -0.43888477440E-01  0.82998399214E-01  0.13937534431E+00  0.45135662885E-01 0.  0.
         14    1    1    2    0    0 -0.50613188104E-02  0.89573400488E-02 -0.11730013348E-01  0.15602695344E-01  0.00000000000E+00 0. -1.
     999901    1    3    3    0    0  0.97653574503E-01  0.34931137392E-01 -0.71268385866E-01  0.88895196034E+00  0.88000000000E+00 0. -1.
        -11    1    4    4    0    0 -0.59956861630E-01 -0.48914568526E-01  0.47055124105E-01  0.90564375425E-01  0.51100000000E-03 0.  1.
         11    1    4    4    0    0 -0.32635394063E-01  0.50260910857E-02  0.35943275109E-01  0.48810968888E-01  0.51100000000E-03 0. -1.
</event>
<event>
 8    1  0.2190295E+004  0.1043930E+01  0.7957747E-01            NaN
         13   -1    0    0    0    0  0.00000000000E+00  0.00000000000E+00  0.74505805969E-08  0.10566000000E+00  0.10566000000E+00 0.  1.
     999900   -1    0    0    0    0 -0.00000000000E+00 -0.00000000000E+00 -0.74505805969E-08  0.93827000000E+00  0.93827000000E+00 0. -1.
     999902    2    1    2    0    0  0.65667316099E-02  0.48400137469E-02  0.10235476087E-01  0.10308413535E+01  0.10307582565E+01 0.  0.
     999903    2    3    3    0    0  0.66283093468E-01 -0.11063868544E+00  0.34239795207E-01  0.14096631664E+00  0.45439758538E-01 0.  0.
         14    1    1    2    0    0 -0.65667316099E-02 -0.48400137469E-02 -0.10235476087E-01  0.13088646524E-01  0.00000000000E+00 0. -1.
     999901    1    3    3    0    0 -0.59716361859E-01  0.11547869919E+00 -0.24004319120E-01  0.88987503683E+00  0.88000000000E+00 0.  1.
        -11    1    4    4    0    0  0.20199684287E-01 -0.74408987781E-01  0.27926745381E-01  0.82005420165E-01  0.51100000000E-03 0. -1.
         11    1    4    4    0    0  0.46083409181E-01 -0.36229697663E-01  0.63130498256E-02  0.58960896479E-01  0.51100000000E-03 0.  1.
</event>
<event>
 8    1  0.2190295E+004  0.1043930E+01  0.7957747E-01            NaN
         13   -1    0    0    0    0  0.00000000000E+00  0.00000000000E+00  0.74505805969E-08  0.10566000000E+00  0.10566000000E+00 0. -1.
     999900   -1    0    0    0    0 -0.00000000000E+00 -0.00000000000E+00 -0.74505805969E-08  0.93827000000E+00  0.93827000000E+00 0.  1.
     999902    2    1    2    0    0  0.12306360399E-01  0.11168931820E-02  0.62103167358E-02  0.10301002498E+01  0.10300074090E+01 0.  0.
     999903    2    3    3    0    0 -0.12414727478E+00 -0.24369652438E-01 -0.33959675952E-01  0.13831395989E+00  0.44396690357E-01 0.  0.
         14    1    1    2    0    0 -0.12306360399E-01 -0.11168931820E-02 -0.62103167358E-02  0.13829750201E-01  0.00000000000E+00 0.  1.
     999901    1    3    3    0    0  0.13645363518E+00  0.25486545620E-01  0.40169992688E-01  0.89178628991E+00  0.88000000000E+00 0.  1.
        -11    1    4    4    0    0 -0.21693310091E-01 -0.18987414572E-01 -0.19248152198E-01  0.34668055886E-01  0.51100000000E-03 0. -1.
         11    1    4    4    0    0 -0.10245396469E+00 -0.53822378654E-02 -0.14711523753E-01  0.10364590400E+00  0.51100000000E-03 0.  1.
</event>
<event>
 8    1  0.2190295E+004  0.1043930E+01  0.7957747E-01            NaN
         13   -1    0    0    0    0  0.00000000000E+00  0.00000000000E+00  0.74505805969E-08  0.10566000000E+00  0.10566000000E+00 0. -1.
     999900   -1    0    0    0    0 -0.00000000000E+00 -0.00000000000E+00 -0.74505805969E-08  0.93827000000E+00  0.93827000000E+00 0.  1.
     999902    2    1    2    0    0  0.68715867504E-02  0.60840177338E-02 -0.10809945198E-01  0.10297494185E+01  0.10296517742E+01 0.  0.
     999903    2    3    3    0    0 -0.89561698835E-02 -0.97159161655E-02  0.12946926478E+00  0.13835813936E+00  0.46968842831E-01 0.  0.
         14    1    1    2    0    0 -0.68715867504E-02 -0.60840177338E-02  0.10809945198E-01  0.14180581492E-01  0.00000000000E+00 0. -1.
     999901    1    3    3    0    0  0.15827756634E-01  0.15799933899E-01 -0.14027920998E+00  0.89139127915E+00  0.88000000000E+00 0.  1.
        -11    1    4    4    0    0 -0.16679265362E-01 -0.24067946903E-01  0.57077909503E-01  0.64153042293E-01  0.51100000000E-03 0. -1.
         11    1    4    4    0    0  0.77230954783E-02  0.14352030737E-01  0.72391355281E-01  0.74205097066E-01  0.51100000000E-03 0.  1.
</event>
<event>
 8    1  0.2190295E+004  0.1043930E+01  0.7957747E-01            NaN
         13   -1    0    0    0    0  0.00000000000E+00  0.00000000000E+00  0.74505805969E-08  0.10566000000E+00  0.10566000000E+00 0.  1.
     999900   -1    0    0    0    0 -0.00000000000E+00 -0.00000000000E+00 -0.74505805969E-08  0.93827000000E+00  0.93827000000E+00 0.  1.
     999902    2    1    2    0    0 -0.50283228609E-02  0.44290467007E-02 -0.11621628966E-01  0.10305149806E+01  0.10304276600E+01 0.  0.
     999903    2    3    3    0    0 -0.11187694594E+00 -0.70732301236E-01  0.13887839309E-01  0.14050566074E+00  0.45049518837E-01 0.  0.
         14    1    1    2    0    0  0.50283228609E-02 -0.44290467007E-02  0.11621628966E-01  0.13415019392E-01  0.00000000000E+00 0.  1.
     999901    1    3    3    0    0  0.10684862308E+00  0.75161347937E-01 -0.25509468275E-01  0.89000931987E+00  0.88000000000E+00 0. -1.
        -11    1    4    4    0    0 -0.83559114897E-01 -0.27621828474E-01  0.12623865153E-01  0.88908459569E-01  0.51100000000E-03 0.  1.
         11    1    4    4    0    0 -0.28317831048E-01 -0.43110472762E-01  0.12639741565E-02  0.51597201171E-01  0.51100000000E-03 0. -1.
</event>
<event>
 8    1  0.2190295E+004  0.1043930E+01  0.7957747E-01            NaN
         13   -1    0    0    0    0  0.00000000000E+00  0.00000000000E+00  0.74505805969E-08  0.10566000000E+00  0.10566000000E+00 0.  1.
     999900   -1    0    0    0    0 -0.00000000000E+00 -0.00000000000E+00 -0.74505805969E-08  0.93827000000E+00  0.93827000000E+00 0.  1.
     999902    2    1    2    0    0 -0.33551358073E-02 -0.11976108349E-01 -0.75780459281E-02  0.10293659728E+01  0.10292629378E+01 0.  0.
     999903    2    3    3    0    0  0.42933361432E-01  0.94113233171E-01 -0.81048277201E-01  0.13875076509E+00  0.44523896892E-01 0.  0.
         14    1    1    2    0    0  0.33551358073E-02  0.11976108349E-01  0.75780459281E-02  0.14564027176E-01  0.00000000000E+00 0.  1.
     999901    1    3    3    0    0 -0.46288497240E-01 -0.10608934152E+00  0.73470231273E-01  0.89061520773E+00  0.88000000000E+00 0. -1.
        -11    1    4    4    0    0  0.39258146189E-01  0.40330088290E-01 -0.27050243600E-01  0.62447536888E-01  0.51100000000E-03 0.  1.
         11    1    4    4    0    0  0.36752152436E-02  0.53783144882E-01 -0.53998033601E-01  0.76303228204E-01  0.51100000000E-03 0. -1.
</event>
<event>
 8    1  0.2190295E+004  0.1043930E+01  0.7957747E-01            NaN
         13   -1    0    0    0    0  0.00000000000E+00  0.00000000000E+00  0.74505805969E-08  0.10566000000E+00  0.10566000000E+00 0. -1.
     999900   -1    0    0    0    0 -0.00000000000E+00 -0.00000000000E+00 -0.74505805969E-08  0.93827000000E+00  0.93827000000E+00 0.  1.
     999902    2    1    2    0    0 -0.63501342641E-02  0.10618048213E-01 -0.44031590718E-02  0.10307977891E+01  0.10307141345E+01 0.  0.
     999903    2    3    3    0    0 -0.56462796815E-02 -0.64363727065E-01 -0.11724887023E+00  0.14042881135E+00  0.42407353726E-01 0.  0.
         14    1    1    2    0    0  0.63501342641E-02 -0.10618048213E-01  0.44031590718E-02  0.13132210889E-01  0.00000000000E+00 0.  1.
     999901    1    3    3    0    0 -0.70385458258E-03  0.74981775279E-01  0.11284571116E+00  0.89036897776E+00  0.88000000000E+00 0. -1.
        -11    1    4    4    0    0 -0.10476599092E-01 -0.16177633025E-01 -0.70601994555E-01  0.73187278232E-01  0.51100000000E-03 0.  1.
         11    1    4    4    0    0  0.48303194100E-02 -0.48186094040E-01 -0.46646875676E-01  0.67241533116E-01  0.51100000000E-03 0. -1.
</event>
<event>
 8    1  0.2190295E+004  0.1043930E+01  0.7957747E-01            NaN
         13   -1    0    0    0    0  0.00000000000E+00  0.00000000000E+00  0.74505805969E-08  0.10566000000E+00  0.10566000000E+00 0. -1.
     999900   -1    0    0    0    0 -0.00000000000E+00 -0.00000000000E+00 -0.74505805969E-08  0.93827000000E+00  0.93827000000E+00 0. -1.
     999902    2    1    2    0    0 -0.12117578526E-01 -0.55733973876E-02  0.62352839743E-03  0.10305775749E+01  0.10304910726E+01 0.  0.
     999903    2    3    3    0    0  0.28664623371E-01 -0.12989602212E+00  0.12946846234E-01  0.14081852486E+00  0.44357625278E-01 0.  0.
         14    1    1    2    0    0  0.12117578526E-01  0.55733973876E-02 -0.62352839743E-03  0.13352425077E-01  0.00000000000E+00 0. -1.
     999901    1    3    3    0    0 -0.40782201898E-01  0.12432262473E+00 -0.12323317836E-01  0.88975905007E+00  0.88000000000E+00 0.  1.
        -11    1    4    4    0    0 -0.57648868827E-02 -0.90969615746E-02 -0.80622921614E-02  0.13462923403E-01  0.51100000000E-03 0.  1.
         11    1    4    4    0    0  0.34429510254E-01 -0.12079906054E+00  0.21009138395E-01  0.12735560145E+00  0.51100000000E-03 0. -1.
</event>
<event>
 8    1  0.2190295E+004  0.1043930E+01  0.7957747E-01            NaN
         13   -1    0    0    0    0  0.00000000000E+00  0.00000000000E+00  0.74505805969E-08  0.10566000000E+00  0.10566000000E+00 0.  1.
     999900   -1    0    0    0    0 -0.00000000000E+00 -0.00000000000E+00 -0.74505805969E-08  0.93827000000E+00  0.93827000000E+00 0. -1.
     999902    2    1    2    0    0  0.90161803456E-02  0.11101632020E-01  0.21489199919E-02  0.10294677872E+01  0.10293661979E+01 0.  0.
     999903    2    3    3    0    0 -0.64433359375E-01 -0.10591813896E+00 -0.38986577484E-01  0.13773879764E+00  0.45625795241E-01 0.  0.
         14    1    1    2    0    0 -0.90161803456E-02 -0.11101632020E-01 -0.21489199919E-02  0.14462212786E-01  0.00000000000E+00 0. -1.
     999901    1    3    3    0    0  0.73449539721E-01  0.11701977098E+00  0.41135497476E-01  0.89172898957E+00  0.88000000000E+00 0. -1.
        -11    1    4    4    0    0 -0.40230181336E-01 -0.73192770196E-01 -0.32721219432E-02  0.83585985681E-01  0.51100000000E-03 0.  1.
         11    1    4    4    0    0 -0.24203178039E-01 -0.32725368765E-01 -0.35714455541E-01  0.54152811964E-01  0.51100000000E-03 0. -1.
</event>
<event>
 8    1  0.2190295E+004  0.1043930E+01  0.7957747E-01            NaN
         13   -1    0    0    0    0  0.00000000000E+00  0.00000000000E+00  0.74505805969E-08  0.10566000000E+00  0.10566000000E+00 0.  1.
     999900   -1    0    0    0    0 -0.00000000000E+00 -0.00000000000E+00 -0.74505805969E-08  0.93827000000E+00  0.93827000000E+00 0. -1.
     999902    2    1    2    0    0  0.12162828654E-02 -0.25840590638E-02 -0.13676570718E-01  0.10299584113E+01  0.10298636432E+01 0.  0.
     999903    2    3    3    0    0  0.84166369852E-01 -0.10255991948E+00 -0.93930515472E-02  0.14041120165E+00  0.44995124532E-01 0.  0.
         14    1    1    2    0    0 -0.12162828654E-02  0.25840590638E-02  0.13676570718E-01  0.13971588738E-01  0.00000000000E+00 0.  1.
     999901    1    3    3    0    0 -0.82950086986E-01  0.99975860421E-01 -0.42835191709E-02  0.88954720962E+00  0.88000000000E+00 0. -1.
        -11    1    4    4    0    0  0.27147062770E-01 -0.58489126077E-01 -0.20119613747E-01  0.67549987895E-01  0.51100000000E-03 0. -1.
         11    1    4    4    0    0  0.57019307082E-01 -0.44070793408E-01  0.10726562200E-01  0.72861213752E-01  0.51100000000E-03 0.  1.
</event>
<event>
 8    1  0.2190295E+004  0.1043930E+01  0.7957747E-01            NaN
         13   -1    0    0    0    0  0.00000000000E+00  0.00000000000E+00  0.74505805969E-08  0.10566000000E+00  0.10566000000E+00 0. -1.
     999900   -1    0    0    0    0 -0.00000000000E+00 -0.00000000000E+00 -0.74505805969E-08  0.93827000000E+00  0.93827000000E+00 0.  1.
     999902    2    1    2    0    0 -0.46503093386E-02 -0.66893189363E-02  0.12174408917E-01  0.10292811571E+01  0.10291769099E+01 0.  0.
     999903    2    3    3    0    0  0.11185669547E+00  0.14566098948E-01 -0.65445192890E-01  0.13796164229E+00  0.45013885746E-01 0.  0.
         14    1    1    2    0    0  0.46503093386E-02  0.66893189363E-02 -0.12174408917E-01  0.14648842864E-01  0.00000000000E+00 0.  1.
     999901    1    3    3    0    0 -0.11650700481E+00 -0.21255417884E-01  0.77619601808E-01  0.89131951485E+00  0.88000000000E+00 0. -1.
        -11    1    4    4    0    0  0.86652039670E-01 -0.37665984534E-02 -0.61967526368E-01  0.10659736717E+00  0.51100000000E-03 0. -1.
         11    1    4    4    0    0  0.25204655804E-01  0.18332697401E-01 -0.34776665220E-02  0.31364275118E-01  0.51100000000E-03 0.  1.
</event>
<event>
 8    1  0.2190295E+004  0.1043930E+01  0.7957747E-01            NaN
         13   -1    0    0    0    0  0.00000000000E+00  0.00000000000E+00  0.74505805969E-08  0.10566000000E+00  0.10566000000E+00 0.  1.
     999900   -1    0    0    0    0 -0.00000000000E+00 -0.00000000000E+00 -0.74505805969E-08  0.93827000000E+00  0.93827000000E+00 0.  1.
     999902    2    1    2    0    0 -0.36251665905E-02  0.94866333464E-02 -0.99794203579E-02  0.10296917812E+01  0.10295933359E+01 0.  0.
     999903    2    3    3    0    0  0.10537485484E+00  0.77616414231E-01  0.20787078120E-01  0.13982142592E+00  0.44606734230E-01 0.  0.
         14    1    1    2    0    0  0.36251665905E-02 -0.94866333464E-02  0.99794203579E-02  0.14238218840E-01  0.00000000000E+00 0.  1.
     999901    1    3    3    0    0 -0.10900002143E+00 -0.68129780885E-01 -0.30766498478E-01  0.88987035524E+00  0.88000000000E+00 0.  1.
        -11    1    4    4    0    0  0.49390718617E-01  0.17202012132E-01  0.23656216993E-01  0.57404094195E-01  0.51100000000E-03 0. -1.
         11    1    4    4    0    0  0.55984136218E-01  0.60414402099E-01 -0.28691388733E-02  0.82417331721E-01  0.51100000000E-03 0.  1.
</event>
<event>
 8    1  0.2190295E+004  0.1043930E+01  0.7957747E-01            NaN
         13   -1    0    0    0    0  0.00000000000E+00  0.00000000000E+00  0.74505805969E-08  0.10566000000E+00  0.10566000000E+00 0.  1.
     999900   -1    0    0    0    0 -0.00000000000E+00 -0.00000000000E+00 -0.74505805969E-08  0.93827000000E+00  0.93827000000E+00 0. -1.
     999902    2    1    2    0    0  0.59177290462E-02 -0.22743994946E-02 -0.13030058192E-01  0.10294394918E+01  0.10293375018E+01 0.  0.
     999903    2    3    3    0    0 -0.11412971283E+00 -0.61561884159E-01  0.23271544985E-01  0.13857238586E+00  0.42956773430E-01 0.  0.
         14    1    1    2    0    0 -0.59177290462E-02  0.22743994946E-02  0.13030058192E-01  0.14490508156E-01  0.00000000000E+00 0.  1.
     999901    1    3    3    0    0  0.12004744188E+00  0.59287484665E-01 -0.36301603177E-01  0.89086710599E+00  0.88000000000E+00 0. -1.
        -11    1    4    4    0    0 -0.23019166385E-01  0.45377721208E-02  0.88841205310E-02  0.25093069073E-01  0.51100000000E-03 0. -1.
         11    1    4    4    0    0 -0.91110546447E-01 -0.66099656280E-01  0.14387424454E-01  0.11347931678E+00  0.51100000000E-03 0.  1.
</event>
<event>
 8    1  0.2190295E+004  0.1043930E+01  0.7957747E-01            NaN
         13   -1    0    0    0    0  0.00000000000E+00  0.00000000000E+00  0.74505805969E-08  0.10566000000E+00  0.10566000000E+00 0.  1.
     999900   -1    0    0    0    0 -0.00000000000E+00 -0.00000000000E+00 -0.74505805969E-08  0.93827000000E+00  0.93827000000E+00 0.  1.
     999902    2    1    2    0    0  0.10550136054E-01  0.63495584898E-02  0.54407075298E-02  0.10304680699E+01  0.10303801335E+01 0.  0.
     999903    2    3    3    0    0  0.91823647418E-01  0.38703310472E-01  0.90284584059E-01  0.14207028044E+00  0.45859895331E-01 0.  0.
         14    1    1    2    0    0 -0.10550136054E-01 -0.63495584898E-02 -0.54407075298E-02  0.13461930107E-01  0.00000000000E+00 0. -1.
     999901    1    3    3    0    0 -0.81273511363E-01 -0.32353751982E-01 -0.84843876529E-01  0.88839778945E+00  0.88000000000E+00 0.  1.
        -11    1    4    4    0    0  0.57479604632E-01  0.47089056473E-01  0.62712176730E-01  0.97233545751E-01  0.51100000000E-03 0.  1.
         11    1    4    4    0    0  0.34344042785E-01 -0.83857460011E-02  0.27572407329E-01  0.44836734691E-01  0.51100000000E-03 0. -1.
</event>
<event>
 8    1  0.2190295E+004  0.1043930E+01  0.7957747E-01            NaN
         13   -1    0    0    0    0  0.00000000000E+00  0.00000000000E+00  0.74505805969E-08  0.10566000000E+00  0.10566000000E+00 0.  1.
     999900   -1    0    0    0    0 -0.00000000000E+00 -0.00000000000E+00 -0.74505805969E-08  0.93827000000E+00  0.93827000000E+00 0.  1.
     999902    2    1    2    0    0 -0.11697984024E-01 -0.63383200006E-02 -0.33157968601E-02  0.10302182664E+01  0.10301270139E+01 0.  0.
     999903    2    3    3    0    0  0.73994627487E-01  0.18018667825E-01 -0.10765427841E+00  0.13958758799E+00  0.45775252849E-01 0.  0.
         14    1    1    2    0    0  0.11697984024E-01  0.63383200006E-02  0.33157968601E-02  0.13711733642E-01  0.00000000000E+00 0.  1.
     999901    1    3    3    0    0 -0.85692611511E-01 -0.24356987825E-01  0.10433848155E+00  0.89063067837E+00  0.88000000000E+00 0. -1.
        -11    1    4    4    0    0  0.48643507409E-01 -0.95138296868E-02 -0.46962247718E-01  0.68281898041E-01  0.51100000000E-03 0. -1.
         11    1    4    4    0    0  0.25351120078E-01  0.27532497512E-01 -0.60692030689E-01  0.71305689946E-01  0.51100000000E-03 0.  1.
</event>
<event>
 8    1  0.2190295E+004  0.1043930E+01  0.7957747E-01            NaN
         13   -1    0    0    0    0  0.00000000000E+00  0.00000000000E+00  0.74505805969E-08  0.10566000000E+00  0.10566000000E+00 0. -1.
     999900   -1    0    0    0    0 -0.00000000000E+00 -0.00000000000E+00 -0.74505805969E-08  0.93827000000E+00  0.93827000000E+00 0.  1.
     999902    2    1    2    0    0 -0.11186914358E-01  0.50353353439E-02 -0.50154172340E-02  0.10306764697E+01  0.10305912522E+01 0.  0.
     999903    2    3    3    0    0 -0.64832723946E-01  0.11746022963E+00  0.10103267467E-01  0.14177501041E+00  0.44697761937E-01 0.  0.
         14    1    1    2    0    0  0.11186914358E-01 -0.50353353439E-02  0.50154172340E-02  0.13253530281E-01  0.00000000000E+00 0. -1.
     999901    1    3    3    0    0  0.53645809588E-01 -0.11242489429E+00 -0.15118684701E-01  0.88890145931E+00  0.88000000000E+00 0. -1.
        -11    1    4    4    0    0 -0.46400729136E-01  0.65086835598E-01 -0.14162199000E-01  0.81179756307E-01  0.51100000000E-03 0.  1.
         11    1    4    4    0    0 -0.18431994810E-01  0.52373394036E-01  0.24265466466E-01  0.60595254099E-01  0.51100000000E-03 0. -1.
</event>
<event>
 8    1  0.2190295E+004  0.1043930E+01  0.7957747E-01            NaN
         13   -1    0    0    0    0  0.00000000000E+00  0.00000000000E+00  0.74505805969E-08  0.10566000000E+00  0.10566000000E+00 0.  1.
     999900   -1    0    0    0    0 -0.00000000000E+00 -0.00000000000E+00 -0.74505805969E-08  0.93827000000E+00  0.93827000000E+00 0.  1.
     999902    2    1    2    0    0  0.12348080694E-01  0.46659991636E-02  0.29136423241E-02  0.10304120136E+01  0.10303233385E+01 0.  0.
     999903    2    3    3    0    0  0.10812736218E+00  0.35435581266E-01  0.73793845738E-01  0.14184888067E+00  0.41573626351E-01 0.  0.
         14    1    1    2    0    0 -0.12348080694E-01 -0.46659991636E-02 -0.29136423241E-02  0.13517986411E-01  0.00000000000E+00 0. -1.
     999901    1    3    3    0    0 -0.95779281484E-01 -0.30769582103E-01 -0.70880203414E-01  0.88856313292E+00  0.88000000000E+00 0.  1.
        -11    1    4    4    0    0  0.61256171511E-01  0.14012538655E-01  0.63414252348E-01  0.89276527204E-01  0.51100000000E-03 0. -1.
         11    1    4    4    0    0  0.46871190666E-01  0.21423042611E-01  0.10379593389E-01  0.52572353467E-01  0.51100000000E-03 0.  1.
</event>
<event>
 8    1  0.2190295E+004  0.1043930E+01  0.7957747E-01            NaN
         13   -1    0    0    0    0  0.00000000000E+00  0.00000000000E+00  0.74505805969E-08  0.10566000000E+00  0.10566000000E+00 0. -1.
     999900   -1    0    0    0    0 -0.00000000000E+00 -0.00000000000E+00 -0.74505805969E-08  0.93827000000E+00  0.93827000000E+00 0.  1.
     999902    2    1    2    0    0 -0.77719547095E-02 -0.46986572996E-02  0.11279354898E-01  0.10294488223E+01  0.10293469645E+01 0.  0.
     999903    2    3    3    0    0 -0.24019820858E-01 -0.10746877518E+00 -0.72316988431E-01  0.13938475782E+00  0.45517847727E-01 0.  0.
         14    1    1    2    0    0  0.77719547095E-02  0.46986572996E-02 -0.11279354898E-01  0.14481177692E-01  0.00000000000E+00 0.  1.
     999901    1    3    3    0    0  0.16247866149E-01  0.10277011788E+00  0.83596343329E-01  0.89006406449E+00  0.88000000000E+00 0. -1.
        -11    1    4    4    0    0 -0.35882396143E-01 -0.70965798592E-01 -0.39069153948E-01  0.88602205582E-01  0.51100000000E-03 0.  1.
         11    1    4    4    0    0  0.11862575285E-01 -0.36502976592E-01 -0.33247834483E-01  0.50782552233E-01  0.51100000000E-03 0. -1.
</event>
<event>
 8    1  0.2190295E+004  0.1043930E+01  0.7957747E-01            NaN
         13   -1    0    0    0    0  0.00000000000E+00  0.00000000000E+00  0.74505805969E-08  0.10566000000E+00  0.10566000000E+00 0.  1.
     999900   -1    0    0    0    0 -0.00000000000E+00 -0.00000000000E+00 -0.74505805969E-08  0.93827000000E+00  0.93827000000E+00 0. -1.
     999902    2    1    2    0    0  0.90961410499E-02 -0.72374147990E-02  0.79178581771E-02  0.10298654192E+01  0.10297693767E+01 0.  0.
     999903    2    3    3    0    0  0.12746335554E+00  0.39357363949E-01 -0.33560546792E-02  0.14064723901E+00  0.44435049626E-01 0.  0.
         14    1    1    2    0    0 -0.90961410499E-02  0.72374147990E-02 -0.79178581771E-02  0.14064580800E-01  0.00000000000E+00 0.  1.
     999901    1    3    3    0    0 -0.11836721449E+00 -0.46594778748E-01  0.11273912856E-01  0.88921818019E+00  0.88000000000E+00 0.  1.
        -11    1    4    4    0    0  0.34765695058E-01 -0.85890491255E-02 -0.56492440372E-02  0.36257418509E-01  0.51100000000E-03 0.  1.
         11    1    4    4    0    0  0.92697660481E-01  0.47946413074E-01  0.22931893580E-02  0.10438982050E+00  0.51100000000E-03 0. -1.
</event>
<event>
 8    1  0.2190295E+004  0.1043930E+01  0.7957747E-01            NaN
         13   -1    0    0    0    0  0.00000000000E+00  0.00000000000E+00  0.74505805969E-08  0.10566000000E+00  0.10566000000E+00 0.  1.
     999900   -1    0    0    0    0 -0.00000000000E+00 -0.00000000000E+00 -0.74505805969E-08  0.93827000000E+00  0.93827000000E+00 0.  1.
     999902    2    1    2    0    0 -0.13627810543E-03  0.14087961842E-01 -0.17993325265E-02  0.10297269426E+01  0.10296289864E+01 0.  0.
     999903    2    3    3    0    0  0.77531928303E-01  0.67091313684E-01 -0.85454490980E-01  0.14077256186E+00  0.44743713131E-01 0.  0.
         14    1    1    2    0    0  0.13627810543E-03 -0.14087961842E-01  0.17993325265E-02  0.14203057352E-01  0.00000000000E+00 0. -1.
     999901    1    3    3    0    0 -0.77668206408E-01 -0.53003351841E-01  0.83655158454E-01  0.88895438079E+00  0.88000000000E+00 0. -1.
        -11    1    4    4    0    0  0.74206199088E-01  0.44887647963E-01 -0.54144795563E-01  0.10224177683E+00  0.51100000000E-03 0. -1.
         11    1    4    4    0    0  0.33257292147E-02  0.22203665721E-01 -0.31309695417E-01  0.38530785022E-01  0.51100000000E-03 0.  1.
</event>
<event>
 8    1  0.2190295E+004  0.1043930E+01  0.7957747E-01            NaN
         13   -1    0    0    0    0  0.00000000000E+00  0.00000000000E+00  0.74505805969E-08  0.10566000000E+00  0.10566000000E+00 0. -1.
     999900   -1    0    0    0    0 -0.00000000000E+00 -0.00000000000E+00 -0.74505805969E-08  0.93827000000E+00  0.93827000000E+00 0.  1.
     999902    2    1    2    0    0  0.96708966069E-02 -0.85922502974E-02 -0.61735861926E-02  0.10295959087E+01  0.10294961239E+01 0.  0.
     999903    2    3    3    0    0  0.10173930514E-01 -0.13311615053E+00  0.23419458061E-02  0.14078829790E+00  0.44636775425E-01 0.  0.
         14    1    1    2    0    0 -0.96708966069E-02  0.85922502974E-02  0.61735861926E-02  0.14334091280E-01  0.00000000000E+00 0. -1.
     999901    1    3    3    0    0 -0.50303390665E-03  0.12452390023E+00 -0.85155319987E-02  0.88880761082E+00  0.88000000000E+00 0.  1.
        -11    1    4    4    0    0  0.22093313791E-01 -0.83147779086E-01  0.16273317678E-01  0.87559977561E-01  0.51100000000E-03 0. -1.
         11    1    4    4    0    0 -0.11919383278E-01 -0.49968371444E-01 -0.13931371872E-01  0.53228320335E-01  0.51100000000E-03 0.  1.
</event>
<event>
 8    1  0.2190295E+004  0.1043930E+01  0.7957747E-01            NaN
         13   -1    0    0    0    0  0.00000000000E+00  0.00000000000E+00  0.74505805969E-08  0.10566000000E+00  0.10566000000E+00 0.  1.
     999900   -1    0    0    0    0 -0.00000000000E+00 -0.00000000000E+00 -0.74505805969E-08  0.93827000000E+00  0.93827000000E+00 0.  1.
     999902    2    1    2    0    0 -0.10873556476E-01 -0.26162155749E-02 -0.88730590155E-02  0.10296537963E+01  0.10295548214E+01 0.  0.
     999903    2    3    3    0    0  0.12750150962E-01  0.36880989435E-01  0.12458251304E+00  0.13840271025E+00  0.45953606143E-01 0.  0.
         14    1    1    2    0    0  0.10873556476E-01  0.26162155749E-02  0.88730590155E-02  0.14276203651E-01  0.00000000000E+00 0.  1.
     999901    1    3    3    0    0 -0.23623707439E-01 -0.39497205010E-01 -0.13345557206E+00  0.89125108610E+00  0.88000000000E+00 0.  1.
        -11    1    4    4    0    0  0.24929640877E-01  0.42099232805E-02  0.47961945892E-01  0.54220105340E-01  0.51100000000E-03 0. -1.
         11    1    4    4    0    0 -0.12179489914E-01  0.32671066155E-01  0.76620567151E-01  0.84182604912E-01  0.51100000000E-03 0.  1.
</event>
<event>
 8    1  0.2190295E+004  0.1043930E+01  0.7957747E-01            NaN
         13   -1    0    0    0    0  0.00000000000E+00  0.00000000000E+00  0.74505805969E-08  0.10566000000E+00  0.10566000000E+00 0.  1.
     999900   -1    0    0    0    0 -0.00000000000E+00 -0.00000000000E+00 -0.74505805969E-08  0.93827000000E+00  0.93827000000E+00 0.  1.
     999902    2    1    2    0    0 -0.20009172831E-02 -0.82531718656E-02  0.15146995812E-01  0.10265648050E+01  0.10264179211E+01 0.  0.
     999903    2    3    3    0    0 -0.60028721269E-01 -0.89562335718E-01  0.74818788770E-01  0.13890545082E+00  0.45519377826E-01 0.  0.
         14    1    1    2    0    0  0.20009172831E-02  0.82531718656E-02 -0.15146995812E-01  0.17365195016E-01  0.00000000000E+00 0. -1.
     999901    1    3    3    0    0  0.58027803986E-01  0.81309163852E-01 -0.59671792958E-01  0.88765935416E+00  0.88000000000E+00 0.  1.
        -11    1    4    4    0    0 -0.49785633829E-01 -0.73336703621E-01  0.36138555854E-01  0.95724279961E-01  0.51100000000E-03 0. -1.
         11    1    4    4    0    0 -0.10243087440E-01 -0.16225632097E-01  0.38680232916E-01  0.43181170858E-01  0.51100000000E-03 0.  1.
</event>
<event>
 8    1  0.2190295E+004  0.1043930E+01  0.7957747E-01            NaN
         13   -1    0    0    0    0  0.00000000000E+00  0.00000000000E+00  0.74505805969E-08  0.10566000000E+00  0.10566000000E+00 0. -1.
     999900   -1    0    0    0    0 -0.00000000000E+00 -0.00000000000E+00 -0.74505805969E-08  0.93827000000E+00  0.93827000000E+00 0. -1.
     999902    2    1    2    0    0 -0.12541116724E-03 -0.14031140292E-01 -0.41123544629E-02  0.10293080957E+01  0.10292042343E+01 0.  0.
     999903    2    3    3    0    0  0.11158387331E+00 -0.64154482119E-03 -0.71223995760E-01  0.13961027178E+00  0.44348596963E-01 0.  0.
         14    1    1    2    0    0  0.12541116724E-03  0.14031140292E-01  0.41123544629E-02  0.14621904290E-01  0.00000000000E+00 0.  1.
     999901    1    3    3    0    0 -0.11170928448E+00 -0.13389595470E-01  0.67111641297E-01  0.88969782393E+00  0.88000000000E+00 0.  1.
        -11    1    4    4    0    0  0.39494808154E-01 -0.91830144901E-02 -0.41347415409E-02  0.40761806079E-01  0.51100000000E-03 0.  1.
         11    1    4    4    0    0  0.72089065155E-01  0.85414696689E-02 -0.67089254219E-01  0.98848465702E-01  0.51100000000E-03 0. -1.
</event>
<event>
 8    1  0.2190295E+004  0.1043930E+01  0.7957747E-01            NaN
         13   -1    0    0    0    0  0.00000000000E+00  0.00000000000E+00  0.74505805969E-08  0.10566000000E+00  0.10566000000E+00 0. -1.
     999900   -1    0    0    0    0 -0.00000000000E+00 -0.00000000000E+00 -0.74505805969E-08  0.93827000000E+00  0.93827000000E+00 0. -1.
     999902    2    1    2    0    0 -0.31962135517E-02  0.80152851356E-02  0.10858928799E-01  0.10300599996E+01  0.10299666139E+01 0.  0.
     999903    2    3    3    0    0 -0.88853080648E-01  0.99675299932E-01  0.34597794269E-02  0.14113176592E+00  0.45565007638E-01 0.  0.
         14    1    1    2    0    0  0.31962135517E-02 -0.80152851356E-02 -0.10858928799E-01  0.13870000416E-01  0.00000000000E+00 0. -1.
     999901    1    3    3    0    0  0.85656867096E-01 -0.91660014796E-01  0.73991493718E-02  0.88892823366E+00  0.88000000000E+00 0.  1.
        -11    1    4    4    0    0 -0.47011225359E-01  0.43379610480E-01  0.23550728131E-01  0.68167028919E-01  0.51100000000E-03 0.  1.
         11    1    4    4    0    0 -0.41841855289E-01  0.56295689452E-01 -0.20090948704E-01  0.72964737002E-01  0.51100000000E-03 0. -1.
</event>
<event>
 8    1  0.2190295E+004  0.1043930E+01  0.7957747E-01            NaN
         13   -1    0    0    0    0  0.00000000000E+00  0.00000000000E+00  0.74505805969E-08  0.10566000000E+00  0.10566000000E+00 0. -1.
     999900   -1    0    0    0    0 -0.00000000000E+00 -0.00000000000E+00 -0.74505805969E-08  0.93827000000E+00  0.93827000000E+00 0. -1.
     999902    2    1    2    0    0  0.11441740480E-01  0.79368137946E-02  0.20646155671E-02  0.10298527462E+01  0.10297565293E+01 0.  0.
     999903    2    3    3    0    0 -0.92724489123E-02  0.47827799728E-01  0.12357208486E+00  0.14036725808E+00  0.45380945875E-01 0.  0.
         14    1    1    2    0    0 -0.11441740480E-01 -0.79368137946E-02 -0.20646155671E-02  0.14077253847E-01  0.00000000000E+00 0. -1.
     999901    1    3    3    0    0  0.20714189393E-01 -0.39890985934E-01 -0.12150746929E+00  0.88948548807E+00  0.88000000000E+00 0. -1.
        -11    1    4    4    0    0  0.77905482465E-02 -0.11199573805E-02  0.48494238836E-01  0.49131448868E-01  0.51100000000E-03 0. -1.
         11    1    4    4    0    0 -0.17062997159E-01  0.48947757109E-01  0.75077846023E-01  0.91235809211E-01  0.51100000000E-03 0.  1.
</event>
<event>
 8    1  0.2190295E+004  0.1043930E+01  0.7957747E-01            NaN
         13   -1    0    0    0    0  0.00000000000E+00  0.00000000000E+00  0.74505805969E-08  0.10566000000E+00  0.10566000000E+00 0.  1.
     999900   -1    0    0    0    0 -0.00000000000E+00 -0.00000000000E+00 -0.74505805969E-08  0.93827000000E+00  0.93827000000E+00 0. -1.
     999902    2    1    2    0    0  0.84763452195E-02  0.60979020923E-02  0.88383847383E-02  0.10302497265E+01  0.10301588951E+01 0.  0.
     999903    2    3    3    0    0  0.12290089132E+00 -0.47973936901E-01  0.97164619865E-02  0.14119544720E+00  0.49351970254E-01 0.  0.
         14    1    1    2    0    0 -0.84763452195E-02 -0.60979020923E-02 -0.88383847383E-02  0.13680273498E-01  0.00000000000E+00 0. -1.
     999901    1    3    3    0    0 -0.11442454610E+00  0.54071838993E-01 -0.87807724810E-03  0.88905427930E+00  0.88000000000E+00 0. -1.
        -11    1    4    4    0    0  0.59047651983E-01 -0.18187315557E-01 -0.19683700017E-01  0.64846841244E-01  0.51100000000E-03 0. -1.
         11    1    4    4    0    0  0.63853239337E-01 -0.29786621344E-01  0.29400162004E-01  0.76348605958E-01  0.51100000000E-03 0.  1.
</event>
<event>
 8    1  0.2190295E+004  0.1043930E+01  0.7957747E-01            NaN
         13   -1    0    0    0    0  0.00000000000E+00  0.00000000000E+00  0.74505805969E-08  0.10566000000E+00  0.10566000000E+00 0.  1.
     999900   -1    0    0    0    0 -0.00000000000E+00 -0.00000000000E+00 -0.74505805969E-08  0.93827000000E+00  0.93827000000E+00 0.  1.
     999902    2    1    2    0    0 -0.18412588843E-02 -0.88105732813E-02 -0.10040050081E-01  0.10304459709E+01  0.10303577436E+01 0.  0.
     999903    2    3    3    0    0  0.40681418671E-02  0.12258355175E+00 -0.49312032212E-01  0.13980483905E+00  0.45502083074E-01 0.  0.
         14    1    1    2    0    0  0.18412588843E-02  0.88105732813E-02  0.10040050081E-01  0.13484029126E-01  0.00000000000E+00 0.  1.
     999901    1    3    3    0    0 -0.59094007514E-02 -0.13139412503E+00  0.39271982131E-01  0.89064113182E+00  0.88000000000E+00 0.  1.
        -11    1    4    4    0    0 -0.51271327723E-02  0.33742893898E-01  0.61294459675E-02  0.34679988581E-01  0.51100000000E-03 0. -1.
         11    1    4    4    0    0  0.91952746394E-02  0.88840657852E-01 -0.55441478180E-01  0.10512485047E+00  0.51100000000E-03 0.  1.
</event>
<event>
 8    1  0.2190295E+004  0.1043930E+01  0.7957747E-01            NaN
         13   -1    0    0    0    0  0.00000000000E+00  0.00000000000E+00  0.74505805969E-08  0.10566000000E+00  0.10566000000E+00 0. -1.
     999900   -1    0    0    0    0 -0.00000000000E+00 -0.00000000000E+00 -0.74505805969E-08  0.93827000000E+00  0.93827000000E+00 0. -1.
     999902    2    1    2    0    0 -0.90280113635E-02  0.96098908583E-02  0.15780536368E-02  0.10306504953E+01  0.10305649413E+01 0.  0.
     999903    2    3    3    0    0 -0.47641883220E-01 -0.13825589694E-01 -0.12330066487E+00  0.14068704259E+00  0.46139939616E-01 0.  0.
         14    1    1    2    0    0  0.90280113635E-02 -0.96098908583E-02 -0.15780536368E-02  0.13279504688E-01  0.00000000000E+00 0.  1.
     999901    1    3    3    0    0  0.38613871857E-01  0.23435480552E-01  0.12487871851E+00  0.88996345272E+00  0.88000000000E+00 0.  1.
        -11    1    4    4    0    0 -0.10896233330E-01  0.16686171764E-01 -0.38755104706E-01  0.43581825233E-01  0.51100000000E-03 0. -1.
         11    1    4    4    0    0 -0.36745649890E-01 -0.30511761458E-01 -0.84545560163E-01  0.97105217354E-01  0.51100000000E-03 0.  1.
</event>
<event>
 8    1  0.2190295E+004  0.1043930E+01  0.7957747E-01            NaN
         13   -1    0    0    0    0  0.00000000000E+00  0.00000000000E+00  0.74505805969E-08  0.10566000000E+00  0.10566000000E+00 0. -1.
     999900   -1    0    0    0    0 -0.00000000000E+00 -0.00000000000E+00 -0.74505805969E-08  0.93827000000E+00  0.93827000000E+00 0. -1.
     999902    2    1    2    0    0  0.11254655827E-01 -0.65105507715E-02 -0.33774685564E-02  0.10304963913E+01  0.10304088269E+01 0.  0.
     999903    2    3    3    0    0  0.35200791041E-01  0.78026054646E-01  0.10122162398E+00  0.13995676544E+00  0.44887839530E-01 0.  0.
         14    1    1    2    0    0 -0.11254655827E-01  0.65105507715E-02  0.33774685564E-02  0.13433608710E-01  0.00000000000E+00 0. -1.
     999901    1    3    3    0    0 -0.23946135214E-01 -0.84536605417E-01 -0.10459909254E+00  0.89053962585E+00  0.88000000000E+00 0. -1.
        -11    1    4    4    0    0  0.39265134481E-01  0.32649217041E-01  0.55071635771E-01  0.75105714474E-01  0.51100000000E-03 0.  1.
         11    1    4    4    0    0 -0.40643434400E-02  0.45376837605E-01  0.46149988211E-01  0.64851050966E-01  0.51100000000E-03 0. -1.
</event>
<event>
 8    1  0.2190295E+004  0.1043930E+01  0.7957747E-01            NaN
         13   -1    0    0    0    0  0.00000000000E+00  0.00000000000E+00  0.74505805969E-08  0.10566000000E+00  0.10566000000E+00 0.  1.
     999900   -1    0    0    0    0 -0.00000000000E+00 -0.00000000000E+00 -0.74505805969E-08  0.93827000000E+00  0.93827000000E+00 0. -1.
     999902    2    1    2    0    0 -0.30751782755E-02 -0.59382612897E-02  0.15008269352E-01  0.10274993026E+01  0.10273679229E+01 0.  0.
     999903    2    3    3    0    0  0.17012088703E-01 -0.12651515068E+00 -0.27471326308E-01  0.13803496907E+00  0.44760299423E-01 0.  0.
         14    1    1    2    0    0  0.30751782755E-02  0.59382612897E-02 -0.15008269352E-01  0.16430697414E-01  0.00000000000E+00 0. -1.
     999901    1    3    3    0    0 -0.20087266979E-01  0.12057688939E+00  0.42479595660E-01  0.88946433352E+00  0.88000000000E+00 0.  1.
        -11    1    4    4    0    0  0.17453686601E-01 -0.55722961258E-01 -0.32911849266E-01  0.67030817767E-01  0.51100000000E-03 0.  1.
         11    1    4    4    0    0 -0.44159789761E-03 -0.70792189418E-01  0.54405229581E-02  0.71004151304E-01  0.51100000000E-03 0. -1.
</event>
<event>
 8    1  0.2190295E+004  0.1043930E+01  0.7957747E-01            NaN
         13   -1    0    0    0    0  0.00000000000E+00  0.00000000000E+00  0.74505805969E-08  0.10566000000E+00  0.10566000000E+00 0.  1.
     999900   -1    0    0    0    0 -0.00000000000E+00 -0.00000000000E+00 -0.74505805969E-08  0.93827000000E+00  0.93827000000E+00 0.  1.
     999902    2    1    2    0    0  0.13575980913E-01 -0.10197648164E-02 -0.33994600658E-02  0.10298977690E+01  0.10298021709E+01 0.  0.
     999903    2    3    3    0    0 -0.13114924292E-01  0.84362901650E-01  0.10029376938E+00  0.13930533136E+00  0.45365567942E-01 0.  0.
         14    1    1    2    0    0 -0.13575980913E-01  0.10197648164E-02  0.33994600658E-02  0.14032230998E-01  0.00000000000E+00 0. -1.
     999901    1    3    3    0    0  0.26690905206E-01 -0.85382666466E-01 -0.10369322945E+00  0.89059243764E+00  0.88000000000E+00 0.  1.
        -11    1    4    4    0    0  0.93478629794E-02  0.56256616709E-01  0.79194998124E-01  0.97592511571E-01  0.51100000000E-03 0.  1.
         11    1    4    4    0    0 -0.22462787272E-01  0.28106284941E-01  0.21098771256E-01  0.41712819788E-01  0.51100000000E-03 0. -1.
</event>
<event>
 8    1  0.2190295E+004  0.1043930E+01  0.7957747E-01            NaN
         13   -1    0    0    0    0  0.00000000000E+00  0.00000000000E+00  0.74505805969E-08  0.10566000000E+00  0.10566000000E+00 0.  1.
     999900   -1    0    0    0    0 -0.00000000000E+00 -0.00000000000E+00 -0.74505805969E-08  0.93827000000E+00  0.93827000000E+00 0. -1.
     999902    2    1    2    0    0  0.92109312897E-02  0.21651824660E-03  0.10269314871E-01  0.10301333713E+01  0.10300409777E+01 0.  0.
     999903    2    3    3    0    0 -0.57451671938E-03  0.11570224493E+00  0.64272797815E-01  0.14089263662E+00  0.48294957947E-01 0.  0.
         14    1    1    2    0    0 -0.92109312897E-02 -0.21651824660E-03 -0.10269314871E-01  0.13796628693E-01  0.00000000000E+00 0. -1.
     999901    1    3    3    0    0  0.97854480091E-02 -0.11548572668E+00 -0.54003482944E-01  0.88924073469E+00  0.88000000000E+00 0.  1.
        -11    1    4    4    0    0 -0.21940929145E-01  0.57072121833E-01  0.19834428381E-01  0.64282945891E-01  0.51100000000E-03 0.  1.
         11    1    4    4    0    0  0.21366412426E-01  0.58630123096E-01  0.44438369435E-01  0.76609690727E-01  0.51100000000E-03 0. -1.
</event>
<event>
 8    1  0.2190295E+004  0.1043930E+01  0.7957747E-01            NaN
         13   -1    0    0    0    0  0.00000000000E+00  0.00000000000E+00  0.74505805969E-08  0.10566000000E+00  0.10566000000E+00 0. -1.
     999900   -1    0    0    0    0 -0.00000000000E+00 -0.00000000000E+00 -0.74505805969E-08  0.93827000000E+00  0.93827000000E+00 0. -1.
     999902    2    1    2    0    0  0.12005559485E-01 -0.64529460231E-02 -0.29837247375E-02  0.10299773449E+01  0.10298828353E+01 0.  0.
     999903    2    3    3    0    0  0.12619253356E+00  0.35963385117E-02 -0.47105084952E-01  0.14144690221E+00  0.43021482294E-01 0.  0.
         14    1    1    2    0    0 -0.12005559485E-01  0.64529460231E-02  0.29837247375E-02  0.13952655097E-01  0.00000000000E+00 0. -1.
     999901    1    3    3    0    0 -0.11418697408E+00 -0.10049284535E-01  0.44121360214E-01  0.88853044269E+00  0.88000000000E+00 0. -1.
        -11    1    4    4    0    0  0.22500032503E-01 -0.57031836426E-03 -0.27995474001E-01  0.35924704748E-01  0.51100000000E-03 0. -1.
         11    1    4    4    0    0  0.10369250106E+00  0.41666568760E-02 -0.19109610951E-01  0.10552219746E+00  0.51100000000E-03 0.  1.
</event>
<event>
 8    1  0.2190295E+004  0.1043930E+01  0.7957747E-01            NaN
         13   -1    0    0    0    0  0.00000000000E+00  0.00000000000E+00  0.74505805969E-08  0.10566000000E+00  0.10566000000E+00 0.  1.
     999900   -1    0    0    0    0 -0.00000000000E+00 -0.00000000000E+00 -0.74505805969E-08  0.93827000000E+00  0.93827000000E+00 0. -1.
     999902    2    1    2    0    0  0.17421596946E-02  0.69839147590E-02  0.12581231829E-01  0.10294352568E+01  0.10293332067E+01 0.  0.
     999903    2    3    3    0    0  0.66880277857E-01 -0.11195975998E+00  0.18677801312E-01  0.13902650778E+00  0.44402141638E-01 0.  0.
         14    1    1    2    0    0 -0.17421596946E-02 -0.69839147590E-02 -0.12581231829E-01  0.14494743188E-01  0.00000000000E+00 0. -1.
     999901    1    3    3    0    0 -0.65138118162E-01  0.11894367474E+00 -0.60965694827E-02  0.89040874903E+00  0.88000000000E+00 0. -1.
        -11    1    4    4    0    0  0.15149552377E-01 -0.64586538064E-01 -0.35956945515E-03  0.66342446801E-01  0.51100000000E-03 0.  1.
         11    1    4    4    0    0  0.51730725479E-01 -0.47373221915E-01  0.19037370767E-01  0.72684060976E-01  0.51100000000E-03 0. -1.
</event>
<event>
 8    1  0.2190295E+004  0.1043930E+01  0.7957747E-01            NaN
         13   -1    0    0    0    0  0.00000000000E+00  0.00000000000E+00  0.74505805969E-08  0.10566000000E+00  0.10566000000E+00 0.  1.
     999900   -1    0    0    0    0 -0.00000000000E+00 -0.00000000000E+00 -0.74505805969E-08  0.93827000000E+00  0.93827000000E+00 0.  1.
     999902    2    1    2    0    0 -0.11274092126E-01  0.66889695734E-02  0.13142929221E-02  0.10307552198E+01  0.10306710185E+01 0.  0.
     999903    2    3    3    0    0  0.44291473038E-01  0.23592624624E-01  0.12301018422E+00  0.14048382549E+00  0.45671142760E-01 0.  0.
         14    1    1    2    0    0  0.11274092126E-01 -0.66889695734E-02 -0.13142929221E-02  0.13174780192E-01  0.00000000000E+00 0. -1.
     999901    1    3    3    0    0 -0.55565565164E-01 -0.16903655051E-01 -0.12169589130E+00  0.89027139432E+00  0.88000000000E+00 0.  1.
        -11    1    4    4    0    0  0.57395103739E-02  0.10856679598E-01  0.15162198624E-02  0.12384244624E-01  0.51100000000E-03 0. -1.
         11    1    4    4    0    0  0.38551962665E-01  0.12735945026E-01  0.12149396436E+00  0.12809958086E+00  0.51100000000E-03 0.  1.
</event>
<event>
 8    1  0.2190295E+004  0.1043930E+01  0.7957747E-01            NaN
         13   -1    0    0    0    0  0.00000000000E+00  0.00000000000E+00  0.74505805969E-08  0.10566000000E+00  0.10566000000E+00 0. -1.
     999900   -1    0    0    0    0 -0.00000000000E+00 -0.00000000000E+00 -0.74505805969E-08  0.93827000000E+00  0.93827000000E+00 0. -1.
     999902    2    1    2    0    0  0.81683882155E-02  0.10829584248E-01  0.29195379949E-02  0.10300546203E+01  0.10299611617E+01 0.  0.
     999903    2    3    3    0    0  0.83844651846E-01 -0.63660869403E-01  0.79448598003E-01  0.14037354167E+00  0.48062662640E-01 0.  0.
         14    1    1    2    0    0 -0.81683882155E-02 -0.10829584248E-01 -0.29195379949E-02  0.13875379747E-01  0.00000000000E+00 0. -1.
     999901    1    3    3    0    0 -0.75676263631E-01  0.74490453651E-01 -0.76529060008E-01  0.88968107858E+00  0.88000000000E+00 0. -1.
        -11    1    4    4    0    0  0.21029608958E-01 -0.39929074278E-01  0.15704203625E-01  0.47785547586E-01  0.51100000000E-03 0. -1.
         11    1    4    4    0    0  0.62815042888E-01 -0.23731795125E-01  0.63744394378E-01  0.92587994084E-01  0.51100000000E-03 0.  1.
</event>
<event>
 8    1  0.2190295E+004  0.1043930E+01  0.7957747E-01            NaN
         13   -1    0    0    0    0  0.00000000000E+00  0.00000000000E+00  0.74505805969E-08  0.10566000000E+00  0.10566000000E+00 0.  1.
     999900   -1    0    0    0    0 -0.00000000000E+00 -0.00000000000E+00 -0.74505805969E-08  0.93827000000E+00  0.93827000000E+00 0.  1.
     999902    2    1    2    0    0 -0.37384378297E-03 -0.62426808578E-02  0.10880276612E-01  0.10313804485E+01  0.10313040960E+01 0.  0.
     999903    2    3    3    0    0  0.10406649656E+00 -0.82397465437E-01 -0.18731688625E-01  0.14144550460E+00  0.45130661377E-01 0.  0.
         14    1    1    2    0    0  0.37384378297E-03  0.62426808578E-02 -0.10880276612E-01  0.12549551490E-01  0.00000000000E+00 0. -1.
     999901    1    3    3    0    0 -0.10444034034E+00  0.76154784579E-01  0.29611965237E-01  0.88993494391E+00  0.88000000000E+00 0. -1.
        -11    1    4    4    0    0  0.95848643531E-01 -0.52701242107E-01 -0.14535987202E-01  0.11034463934E+00  0.51100000000E-03 0.  1.
         11    1    4    4    0    0  0.82178530286E-02 -0.29696223330E-01 -0.41957014228E-02  0.31100865259E-01  0.51100000000E-03 0. -1.
</event>
<event>
 8    1  0.2190295E+004  0.1043930E+01  0.7957747E-01            NaN
         13   -1    0    0    0    0  0.00000000000E+00  0.00000000000E+00  0.74505805969E-08  0.10566000000E+00  0.10566000000E+00 0. -1.
     999900   -1    0    0    0    0 -0.00000000000E+00 -0.00000000000E+00 -0.74505805969E-08  0.93827000000E+00  0.93827000000E+00 0.  1.
     999902    2    1    2    0    0  0.91705655936E-02 -0.78015233211E-02 -0.52901345778E-02  0.10307790090E+01  0.10306951135E+01 0.  0.
     999903    2    3    3    0    0 -0.75196334921E-01  0.88690941666E-01 -0.63065397334E-01  0.13961878176E+00  0.44672004196E-01 0.  0.
         14    1    1    2    0    0 -0.91705655936E-02  0.78015233211E-02  0.52901345778E-02  0.13150990962E-01  0.00000000000E+00 0.  1.
     999901    1    3    3    0    0  0.84366900515E-01 -0.96492464988E-01  0.57775262757E-01  0.89116022728E+00  0.88000000000E+00 0. -1.
        -11    1    4    4    0    0 -0.46875619259E-01  0.51410328570E-01 -0.61360737732E-01  0.92767164561E-01  0.51100000000E-03 0. -1.
         11    1    4    4    0    0 -0.28320715662E-01  0.37280613096E-01 -0.17046596020E-02  0.46851617195E-01  0.51100000000E-03 0.  1.
</event>
<event>
 8    1  0.2190295E+004  0.1043930E+01  0.7957747E-01            NaN
         13   -1    0    0    0    0  0.00000000000E+00  0.00000000000E+00  0.74505805969E-08  0.10566000000E+00  0.10566000000E+00 0. -1.
     999900   -1    0    0    0    0 -0.00000000000E+00 -0.00000000000E+00 -0.74505805969E-08  0.93827000000E+00  0.93827000000E+00 0. -1.
     999902    2    1    2    0    0  0.51391082111E-02  0.63041928324E-02  0.12084158098E-01  0.10293635949E+01  0.10292605260E+01 0.  0.
     999903    2    3    3    0    0  0.32341231315E-01 -0.10393348436E+00  0.75471447573E-01  0.13980738564E+00  0.44744175776E-01 0.  0.
         14    1    1    2    0    0 -0.51391082111E-02 -0.63041928324E-02 -0.12084158098E-01  0.14566405096E-01  0.00000000000E+00 0.  1.
     999901    1    3    3    0    0 -0.27202123104E-01  0.11023767719E+00 -0.63387289475E-01  0.88955620926E+00  0.88000000000E+00 0. -1.
        -11    1    4    4    0    0  0.89930470546E-02 -0.29382244492E-01  0.47998725022E-01  0.56994121728E-01  0.51100000000E-03 0. -1.
         11    1    4    4    0    0  0.23348184261E-01 -0.74551239869E-01  0.27472722551E-01  0.82813263912E-01  0.51100000000E-03 0.  1.
</event>
<event>
 8    1  0.3967026E+004  0.1043930E+01  0.7957747E-01            NaN
         13   -1    0    0    0    0  0.00000000000E+00  0.00000000000E+00  0.74505805969E-08  0.10566000000E+00  0.10566000000E+00 0. -1.
     999900   -1    0    0    0    0 -0.00000000000E+00 -0.00000000000E+00 -0.74505805969E-08  0.93827000000E+00  0.93827000000E+00 0. -1.
     999902    2    1    2    0    0 -0.57174987450E-02  0.15648315211E-01  0.26076328989E-02  0.10270670433E+01  0.10269286012E+01 0.  0.
     999903    2    3    3    0    0  0.91717797263E-01 -0.57239331273E-01 -0.68994938040E-01  0.13581333410E+00  0.44681818057E-01 0.  0.
         14    1    1    2    0    0  0.57174987450E-02 -0.15648315211E-01 -0.26076328989E-02  0.16862956745E-01  0.00000000000E+00 0. -1.
     999901    1    3    3    0    0 -0.97435296008E-01  0.72887646484E-01  0.71602570939E-01  0.89125370916E+00  0.88000000000E+00 0. -1.
        -11    1    4    4    0    0  0.56162750159E-01 -0.28168539088E-01 -0.14388618816E-01  0.64459402512E-01  0.51100000000E-03 0.  1.
         11    1    4    4    0    0  0.35555047103E-01 -0.29070792185E-01 -0.54606319224E-01  0.71353931587E-01  0.51100000000E-03 0. -1.
</event>
<event>
 8    1  0.2190295E+004  0.1043930E+01  0.7957747E-01            NaN
         13   -1    0    0    0    0  0.00000000000E+00  0.00000000000E+00  0.74505805969E-08  0.10566000000E+00  0.10566000000E+00 0. -1.
     999900   -1    0    0    0    0 -0.00000000000E+00 -0.00000000000E+00 -0.74505805969E-08  0.93827000000E+00  0.93827000000E+00 0. -1.
     999902    2    1    2    0    0  0.13889952046E-01 -0.66009183988E-02  0.94624137452E-02  0.10258734177E+01  0.10257144968E+01 0.  0.
     999903    2    3    3    0    0 -0.10486782575E+00 -0.17248122675E-02  0.74190797086E-01  0.13552688412E+00  0.43162785971E-01 0.  0.
         14    1    1    2    0    0 -0.13889952046E-01  0.66009183988E-02 -0.94624137452E-02  0.18056582330E-01  0.00000000000E+00 0.  1.
     999901    1    3    3    0    0  0.11875777779E+00 -0.48761061313E-02 -0.64728383341E-01  0.89034653355E+00  0.88000000000E+00 0. -1.
        -11    1    4    4    0    0 -0.40549284281E-01 -0.43376037814E-02  0.51116898397E-02  0.41102916639E-01  0.51100000000E-03 0. -1.
         11    1    4    4    0    0 -0.64318541464E-01  0.26127915139E-02  0.69079107246E-01  0.94423967479E-01  0.51100000000E-03 0.  1.
</event>
<event>
 8    1  0.2190295E+004  0.1043930E+01  0.7957747E-01            NaN
         13   -1    0    0    0    0  0.00000000000E+00  0.00000000000E+00  0.74505805969E-08  0.10566000000E+00  0.10566000000E+00 0.  1.
     999900   -1    0    0    0    0 -0.00000000000E+00 -0.00000000000E+00 -0.74505805969E-08  0.93827000000E+00  0.93827000000E+00 0.  1.
     999902    2    1    2    0    0  0.12763971876E-01 -0.57594083176E-02 -0.54227975870E-02  0.10289134593E+01  0.10288038735E+01 0.  0.
     999903    2    3    3    0    0 -0.12665925717E+00  0.53302937509E-02  0.28968791989E-01  0.13720465044E+00  0.43760092944E-01 0.  0.
         14    1    1    2    0    0 -0.12763971876E-01  0.57594083176E-02  0.54227975870E-02  0.15016540743E-01  0.00000000000E+00 0.  1.
     999901    1    3    3    0    0  0.13942322905E+00 -0.11089702068E-01 -0.34391589576E-01  0.89170880882E+00  0.88000000000E+00 0.  1.
        -11    1    4    4    0    0 -0.65990146321E-01  0.18668825921E-01 -0.18801414192E-03  0.68582220313E-01  0.51100000000E-03 0. -1.
         11    1    4    4    0    0 -0.60669110850E-01 -0.13338532170E-01  0.29156806131E-01  0.68622430127E-01  0.51100000000E-03 0.  1.
</event>
<event>
 8    1  0.2190295E+004  0.1043930E+01  0.7957747E-01            NaN
         13   -1    0    0    0    0  0.00000000000E+00  0.00000000000E+00  0.74505805969E-08  0.10566000000E+00  0.10566000000E+00 0.  1.
     999900   -1    0    0    0    0 -0.00000000000E+00 -0.00000000000E+00 -0.74505805969E-08  0.93827000000E+00  0.93827000000E+00 0. -1.
     999902    2    1    2    0    0  0.11302736282E-02 -0.47040715612E-02  0.13875469100E-01  0.10292352918E+01  0.10291303860E+01 0.  0.
     999903    2    3    3    0    0  0.45295795843E-01 -0.10331575001E+00 -0.67374419835E-01  0.13891152989E+00  0.45069361741E-01 0.  0.
         14    1    1    2    0    0 -0.11302736282E-02  0.47040715612E-02 -0.13875469100E-01  0.14694708247E-01  0.00000000000E+00 0. -1.
     999901    1    3    3    0    0 -0.44165522215E-01  0.98611678451E-01  0.81249888935E-01  0.89032376186E+00  0.88000000000E+00 0.  1.
        -11    1    4    4    0    0  0.48224995052E-01 -0.70396854275E-01 -0.33757293209E-01  0.91767004993E-01  0.51100000000E-03 0.  1.
         11    1    4    4    0    0 -0.29291992087E-02 -0.32918895737E-01 -0.33617126626E-01  0.47144524901E-01  0.51100000000E-03 0. -1.
</event>
<event>
 8    1  0.2190295E+004  0.1043930E+01  0.7957747E-01            NaN
         13   -1    0    0    0    0  0.00000000000E+00  0.00000000000E+00  0.74505805969E-08  0.10566000000E+00  0.10566000000E+00 0. -1.
     999900   -1    0    0    0    0 -0.00000000000E+00 -0.00000000000E+00 -0.74505805969E-08  0.93827000000E+00  0.93827000000E+00 0.  1.
     999902    2    1    2    0    0 -0.11111671700E-01 -0.54741059559E-02 -0.65310420862E-02  0.10299268006E+01  0.10298316003E+01 0.  0.
     999903    2    3    3    0    0 -0.12956866287E+00 -0.32142918037E-01 -0.14871600369E-01  0.14155027610E+00  0.44655465385E-01 0.  0.
         14    1    1    2    0    0  0.11111671700E-01  0.54741059559E-02  0.65310420862E-02  0.14003199446E-01  0.00000000000E+00 0. -1.
     999901    1    3    3    0    0  0.11845699117E+00  0.26668812081E-01  0.83405582824E-02  0.88837652446E+00  0.88000000000E+00 0. -1.
        -11    1    4    4    0    0 -0.10739456175E+00 -0.26309805321E-01 -0.29385117882E-01  0.11440954515E+00  0.51100000000E-03 0. -1.
         11    1    4    4    0    0 -0.22174101122E-01 -0.58331127158E-02  0.14513517514E-01  0.27140730943E-01  0.51100000000E-03 0.  1.
</event>
<event>
 8    1  0.2190295E+004  0.1043930E+01  0.7957747E-01            NaN
         13   -1    0    0    0    0  0.00000000000E+00  0.00000000000E+00  0.74505805969E-08  0.10566000000E+00  0.10566000000E+00 0. -1.
     999900   -1    0    0    0    0 -0.00000000000E+00 -0.00000000000E+00 -0.74505805969E-08  0.93827000000E+00  0.93827000000E+00 0. -1.
     999902    2    1    2    0    0  0.66649398867E-02  0.22982807456E-02  0.11693916682E-01  0.10302752863E+01  0.10301847962E+01 0.  0.
     999903    2    3    3    0    0  0.10811574131E+00  0.77512123542E-01 -0.70697051262E-02  0.14106132965E+00  0.46380762990E-01 0.  0.
         14    1    1    2    0    0 -0.66649398867E-02 -0.22982807456E-02 -0.11693916682E-01  0.13654713671E-01  0.00000000000E+00 0.  1.
     999901    1    3    3    0    0 -0.10145080142E+00 -0.75213842796E-01  0.18763621808E-01  0.88921395668E+00  0.88000000000E+00 0. -1.
        -11    1    4    4    0    0  0.76411922368E-01  0.37343704106E-01 -0.21816007623E-01  0.87803948806E-01  0.51100000000E-03 0. -1.
         11    1    4    4    0    0  0.31703818943E-01  0.40168419436E-01  0.14746302497E-01  0.53257380840E-01  0.51100000000E-03 0.  1.
</event>
<event>
 8    1  0.2190295E+004  0.1043930E+01  0.7957747E-01            NaN
         13   -1    0    0    0    0  0.00000000000E+00  0.00000000000E+00  0.74505805969E-08  0.10566000000E+00  0.10566000000E+00 0.  1.
     999900   -1    0    0    0    0 -0.00000000000E+00 -0.00000000000E+00 -0.74505805969E-08  0.93827000000E+00  0.93827000000E+00 0. -1.
     999902    2    1    2    0    0 -0.14670488294E-01  0.41631873432E-02 -0.35063844140E-02  0.10282823137E+01  0.10281632490E+01 0.  0.
     999903    2    3    3    0    0  0.10912170930E+00 -0.31741553920E-01  0.61383231351E-01  0.13652880465E+00  0.44239571910E-01 0.  0.
         14    1    1    2    0    0  0.14670488294E-01 -0.41631873432E-02  0.35063844140E-02  0.15647686324E-01  0.00000000000E+00 0. -1.
     999901    1    3    3    0    0 -0.12379219759E+00  0.35904741263E-01 -0.64889615765E-01  0.89175350903E+00  0.88000000000E+00 0. -1.
        -11    1    4    4    0    0  0.34805526455E-01 -0.32328965107E-01  0.20934287330E-01  0.51914277070E-01  0.51100000000E-03 0.  1.
         11    1    4    4    0    0  0.74316182841E-01  0.58741118694E-03  0.40448944021E-01  0.84614527578E-01  0.51100000000E-03 0. -1.
</event>
<event>
 8    1  0.2190295E+004  0.1043930E+01  0.7957747E-01            NaN
         13   -1    0    0    0    0  0.00000000000E+00  0.00000000000E+00  0.74505805969E-08  0.10566000000E+00  0.10566000000E+00 0. -1.
     999900   -1    0    0    0    0 -0.00000000000E+00 -0.00000000000E+00 -0.74505805969E-08  0.93827000000E+00  0.93827000000E+00 0. -1.
     999902    2    1    2    0    0 -0.86295118072E-02 -0.89908399161E-02  0.25682982658E-02  0.10312060135E+01  0.10311275103E+01 0.  0.
     999903    2    3    3    0    0 -0.61117416188E-01 -0.43216857640E-01 -0.11158639361E+00  0.14162313705E+00  0.44749909078E-01 0.  0.
         14    1    1    2    0    0  0.86295118072E-02  0.89908399161E-02 -0.25682982658E-02  0.12723986498E-01  0.00000000000E+00 0.  1.
     999901    1    3    3    0    0  0.52487904381E-01  0.34226017724E-01  0.11415469188E+00  0.88958287645E+00  0.88000000000E+00 0.  1.
        -11    1    4    4    0    0 -0.55469141243E-01 -0.16360859714E-01 -0.60924154604E-01  0.84003077896E-01  0.51100000000E-03 0. -1.
         11    1    4    4    0    0 -0.56482749454E-02 -0.26855997926E-01 -0.50662239010E-01  0.57620059155E-01  0.51100000000E-03 0.  1.
</event>
<event>
 8    1  0.2190295E+004  0.1043930E+01  0.7957747E-01            NaN
         13   -1    0    0    0    0  0.00000000000E+00  0.00000000000E+00  0.74505805969E-08  0.10566000000E+00  0.10566000000E+00 0. -1.
     999900   -1    0    0    0    0 -0.00000000000E+00 -0.00000000000E+00 -0.74505805969E-08  0.93827000000E+00  0.93827000000E+00 0. -1.
     999902    2    1    2    0    0  0.94006029471E-02 -0.80482786849E-02  0.49138431194E-02  0.10306148966E+01  0.10305288802E+01 0.  0.
     999903    2    3    3    0    0 -0.83998514629E-01 -0.48473840498E-01  0.90305250564E-01  0.14064337247E+00  0.47117473070E-01 0.  0.
         14    1    1    2    0    0 -0.94006029471E-02  0.80482786849E-02 -0.49138431194E-02  0.13315103445E-01  0.00000000000E+00 0.  1.
     999901    1    3    3    0    0  0.93399117576E-01  0.40425561813E-01 -0.85391407444E-01  0.88997152408E+00  0.88000000000E+00 0. -1.
        -11    1    4    4    0    0  0.13716631161E-02 -0.12500607122E-01  0.22706010433E-01  0.25960945069E-01  0.51100000000E-03 0. -1.
         11    1    4    4    0    0 -0.85370177745E-01 -0.35973233376E-01  0.67599240131E-01  0.11468242740E+00  0.51100000000E-03 0.  1.
</event>
<event>
 8    1  0.2190295E+004  0.1043930E+01  0.7957747E-01            NaN
         13   -1    0    0    0    0  0.00000000000E+00  0.00000000000E+00  0.74505805969E-08  0.10566000000E+00  0.10566000000E+00 0.  1.
     999900   -1    0    0    0    0 -0.00000000000E+00 -0.00000000000E+00 -0.74505805969E-08  0.93827000000E+00  0.93827000000E+00 0. -1.
     999902    2    1    2    0    0  0.33423973071E-02 -0.69480651755E-02  0.11057122377E-01  0.10304501193E+01  0.10303619466E+01 0.  0.
     999903    2    3    3    0    0 -0.62275640033E-01  0.44586902135E-01 -0.10651850874E+00  0.13871831613E+00  0.45059198198E-01 0.  0.
         14    1    1    2    0    0 -0.33423973071E-02  0.69480651755E-02 -0.11057122377E-01  0.13479880737E-01  0.00000000000E+00 0. -1.
     999901    1    3    3    0    0  0.65618037340E-01 -0.51534967311E-01  0.11757563112E+00  0.89173180313E+00  0.88000000000E+00 0.  1.
        -11    1    4    4    0    0 -0.10361208357E-01  0.33901832906E-01 -0.36310668485E-01  0.50748543623E-01  0.51100000000E-03 0. -1.
         11    1    4    4    0    0 -0.51914431676E-01  0.10685069229E-01 -0.70207840259E-01  0.87969772510E-01  0.51100000000E-03 0.  1.
</event>
<event>
 8    1  0.2190295E+004  0.1043930E+01  0.7957747E-01            NaN
         13   -1    0    0    0    0  0.00000000000E+00  0.00000000000E+00  0.74505805969E-08  0.10566000000E+00  0.10566000000E+00 0. -1.
     999900   -1    0    0    0    0 -0.00000000000E+00 -0.00000000000E+00 -0.74505805969E-08  0.93827000000E+00  0.93827000000E+00 0.  1.
     999902    2    1    2    0    0  0.12228274116E-01 -0.30426192218E-02  0.38860856628E-02  0.10307432687E+01  0.10306589136E+01 0.  0.
     999903    2    3    3    0    0 -0.64852033864E-02  0.11592374046E+00 -0.64579846025E-01  0.13990614963E+00  0.43849774533E-01 0.  0.
         14    1    1    2    0    0 -0.12228274116E-01  0.30426192218E-02 -0.38860856628E-02  0.13186731262E-01  0.00000000000E+00 0. -1.
     999901    1    3    3    0    0  0.18713477503E-01 -0.11896635968E+00  0.68465931688E-01  0.89083711911E+00  0.88000000000E+00 0. -1.
        -11    1    4    4    0    0  0.23420224120E-02  0.59770810917E-01 -0.91590343475E-02  0.60515980847E-01  0.51100000000E-03 0. -1.
         11    1    4    4    0    0 -0.88272257984E-02  0.56152929544E-01 -0.55420811677E-01  0.79390168785E-01  0.51100000000E-03 0.  1.
</event>
<event>
 8    1  0.2190295E+004  0.1043930E+01  0.7957747E-01            NaN
         13   -1    0    0    0    0  0.00000000000E+00  0.00000000000E+00  0.74505805969E-08  0.10566000000E+00  0.10566000000E+00 0.  1.
     999900   -1    0    0    0    0 -0.00000000000E+00 -0.00000000000E+00 -0.74505805969E-08  0.93827000000E+00  0.93827000000E+00 0. -1.
     999902    2    1    2    0    0  0.50009801861E-02  0.50465039879E-02 -0.12420524645E-01  0.10296210365E+01  0.10295216036E+01 0.  0.
     999903    2    3    3    0    0 -0.77972228983E-01  0.96283918197E-01 -0.48600018530E-01  0.14028545583E+00  0.44359733085E-01 0.  0.
         14    1    1    2    0    0 -0.50009801861E-02 -0.50465039879E-02  0.12420524645E-01  0.14308963547E-01  0.00000000000E+00 0.  1.
     999901    1    3    3    0    0  0.82973209169E-01 -0.91237414209E-01  0.36179493885E-01  0.88933558063E+00  0.88000000000E+00 0.  1.
        -11    1    4    4    0    0 -0.63842093921E-01  0.44453107743E-01 -0.31110916892E-01  0.83785690992E-01  0.51100000000E-03 0. -1.
         11    1    4    4    0    0 -0.14130135062E-01  0.51830810454E-01 -0.17489101638E-01  0.56499764834E-01  0.51100000000E-03 0.  1.
</event>
<event>
 8    1  0.2190295E+004  0.1043930E+01  0.7957747E-01            NaN
         13   -1    0    0    0    0  0.00000000000E+00  0.00000000000E+00  0.74505805969E-08  0.10566000000E+00  0.10566000000E+00 0.  1.
     999900   -1    0    0    0    0 -0.00000000000E+00 -0.00000000000E+00 -0.74505805969E-08  0.93827000000E+00  0.93827000000E+00 0. -1.
     999902    2    1    2    0    0  0.70377583094E-02  0.11948294421E-01 -0.63675141185E-02  0.10286710021E+01  0.10285578221E+01 0.  0.
     999903    2    3    3    0    0  0.60337741368E-01  0.11411146208E+00 -0.26282680696E-01  0.14093522220E+00  0.50098789808E-01 0.  0.
         14    1    1    2    0    0 -0.70377583094E-02 -0.11948294421E-01  0.63675141185E-02  0.15258997924E-01  0.00000000000E+00 0.  1.
     999901    1    3    3    0    0 -0.53299983059E-01 -0.10216316765E+00  0.19915166578E-01  0.88773577988E+00  0.88000000000E+00 0.  1.
        -11    1    4    4    0    0  0.14474365811E-01  0.56948050472E-01 -0.32905454982E-01  0.67346995529E-01  0.51100000000E-03 0. -1.
         11    1    4    4    0    0  0.45863375557E-01  0.57163411604E-01  0.66227742859E-02  0.73588226667E-01  0.51100000000E-03 0.  1.
</event>
<event>
 8    1  0.2190295E+004  0.1043930E+01  0.7957747E-01            NaN
         13   -1    0    0    0    0  0.00000000000E+00  0.00000000000E+00  0.74505805969E-08  0.10566000000E+00  0.10566000000E+00 0.  1.
     999900   -1    0    0    0    0 -0.00000000000E+00 -0.00000000000E+00 -0.74505805969E-08  0.93827000000E+00  0.93827000000E+00 0.  1.
     999902    2    1    2    0    0 -0.38503098625E-02 -0.34377555625E-02  0.12506849925E-01  0.10303998727E+01  0.10303110372E+01 0.  0.
     999903    2    3    3    0    0  0.62768486514E-02 -0.88174051955E-01  0.97164210757E-01  0.14222777902E+00  0.54532513299E-01 0.  0.
         14    1    1    2    0    0  0.38503098625E-02  0.34377555625E-02 -0.12506849925E-01  0.13530127287E-01  0.00000000000E+00 0. -1.
     999901    1    3    3    0    0 -0.10127158514E-01  0.84736296393E-01 -0.84657360832E-01  0.88817209369E+00  0.88000000000E+00 0.  1.
        -11    1    4    4    0    0 -0.92593726498E-02 -0.87824393000E-01  0.83027957332E-01  0.12121370718E+00  0.51100000000E-03 0.  1.
         11    1    4    4    0    0  0.15536221301E-01 -0.34965895521E-03  0.14136253425E-01  0.21014071847E-01  0.51100000000E-03 0. -1.
</event>
<event>
 8    1  0.2190295E+004  0.1043930E+01  0.7957747E-01            NaN
         13   -1    0    0    0    0  0.00000000000E+00  0.00000000000E+00  0.74505805969E-08  0.10566000000E+00  0.10566000000E+00 0. -1.
     999900   -1    0    0    0    0 -0.00000000000E+00 -0.00000000000E+00 -0.74505805969E-08  0.93827000000E+00  0.93827000000E+00 0. -1.
     999902    2    1    2    0    0  0.53443005254E-02  0.96925203439E-02 -0.89677900324E-02  0.10296847286E+01  0.10295861851E+01 0.  0.
     999903    2    3    3    0    0  0.72108365327E-01 -0.73098869006E-01  0.81497002738E-01  0.13867646085E+00  0.45236471328E-01 0.  0.
         14    1    1    2    0    0 -0.53443005254E-02 -0.96925203439E-02  0.89677900324E-02  0.14245271383E-01  0.00000000000E+00 0. -1.
     999901    1    3    3    0    0 -0.66764064802E-01  0.82791389350E-01 -0.90464792770E-01  0.89100826777E+00  0.88000000000E+00 0.  1.
        -11    1    4    4    0    0  0.60850296682E-01 -0.77088584621E-01  0.63098952292E-01  0.11673537333E+00  0.51100000000E-03 0. -1.
         11    1    4    4    0    0  0.11258068645E-01  0.39897156149E-02  0.18398050445E-01  0.21941087519E-01  0.51100000000E-03 0.  1.
</event>
<event>
 8    1  0.2190295E+004  0.1043930E+01  0.7957747E-01            NaN
         13   -1    0    0    0    0  0.00000000000E+00  0.00000000000E+00  0.74505805969E-08  0.10566000000E+00  0.10566000000E+00 0. -1.
     999900   -1    0    0    0    0 -0.00000000000E+00 -0.00000000000E+00 -0.74505805969E-08  0.93827000000E+00  0.93827000000E+00 0.  1.
     999902    2    1    2    0    0 -0.47794725760E-02 -0.30646504029E-02 -0.14386045754E-01  0.10284641100E+01  0.10283478166E+01 0.  0.
     999903    2    3    3    0    0 -0.83919731551E-01  0.15841977259E-01 -0.99938906497E-01  0.14057901997E+00  0.49811507082E-01 0.  0.
         14    1    1    2    0    0  0.47794725760E-02  0.30646504029E-02  0.14386045754E-01  0.15465889972E-01  0.00000000000E+00 0. -1.
     999901    1    3    3    0    0  0.79140258975E-01 -0.18906627662E-01  0.85552860743E-01  0.88788509005E+00  0.88000000000E+00 0. -1.
        -11    1    4    4    0    0 -0.70344739436E-01 -0.52980698526E-02 -0.87921025566E-01  0.11272453046E+00  0.51100000000E-03 0. -1.
         11    1    4    4    0    0 -0.13574992115E-01  0.21140047112E-01 -0.12017880930E-01  0.27854489510E-01  0.51100000000E-03 0.  1.
</event>
<event>
 8    1  0.2190295E+004  0.1043930E+01  0.7957747E-01            NaN
         13   -1    0    0    0    0  0.00000000000E+00  0.00000000000E+00  0.74505805969E-08  0.10566000000E+00  0.10566000000E+00 0.  1.
     999900   -1    0    0    0    0 -0.00000000000E+00 -0.00000000000E+00 -0.74505805969E-08  0.93827000000E+00  0.93827000000E+00 0. -1.
     999902    2    1    2    0    0 -0.56380843130E-02 -0.26630292611E-02  0.12530529507E-01  0.10299337902E+01  0.10298386856E+01 0.  0.
     999903    2    3    3    0    0  0.45594582772E-01  0.70346474097E-01 -0.10000807599E+00  0.13829478729E+00  0.45785811463E-01 0.  0.
         14    1    1    2    0    0  0.56380843130E-02  0.26630292611E-02 -0.12530529507E-01  0.13996209818E-01  0.00000000000E+00 0. -1.
     999901    1    3    3    0    0 -0.51232667085E-01 -0.73009503358E-01  0.11253860550E+00  0.89163900290E+00  0.88000000000E+00 0.  1.
        -11    1    4    4    0    0  0.31876600937E-01  0.23192424501E-01 -0.19484678128E-01  0.43976357788E-01  0.51100000000E-03 0. -1.
         11    1    4    4    0    0  0.13717981836E-01  0.47154049596E-01 -0.80523397861E-01  0.94318429498E-01  0.51100000000E-03 0.  1.
</event>
<event>
 8    1  0.2190295E+004  0.1043930E+01  0.7957747E-01            NaN
         13   -1    0    0    0    0  0.00000000000E+00  0.00000000000E+00  0.74505805969E-08  0.10566000000E+00  0.10566000000E+00 0. -1.
     999900   -1    0    0    0    0 -0.00000000000E+00 -0.00000000000E+00 -0.74505805969E-08  0.93827000000E+00  0.93827000000E+00 0.  1.
     999902    2    1    2    0    0 -0.95464586399E-02  0.32371633835E-02  0.90862581443E-02  0.10303589210E+01  0.10302695433E+01 0.  0.
     999903    2    3    3    0    0  0.13268840086E-01 -0.78197494741E-01  0.10842776829E+00  0.14074053252E+00  0.41957195550E-01 0.  0.
         14    1    1    2    0    0  0.95464586399E-02 -0.32371633835E-02 -0.90862581443E-02  0.13571079043E-01  0.00000000000E+00 0.  1.
     999901    1    3    3    0    0 -0.22815298726E-01  0.81434658125E-01 -0.99341510143E-01  0.88961838843E+00  0.88000000000E+00 0.  1.
        -11    1    4    4    0    0 -0.98130514943E-02 -0.43379702337E-01  0.75164167410E-01  0.87338466542E-01  0.51100000000E-03 0.  1.
         11    1    4    4    0    0  0.23081891580E-01 -0.34817792405E-01  0.33263600877E-01  0.53402065982E-01  0.51100000000E-03 0. -1.
</event>
<event>
 8    1  0.2190295E+004  0.1043930E+01  0.7957747E-01            NaN
         13   -1    0    0    0    0  0.00000000000E+00  0.00000000000E+00  0.74505805969E-08  0.10566000000E+00  0.10566000000E+00 0.  1.
     999900   -1    0    0    0    0 -0.00000000000E+00 -0.00000000000E+00 -0.74505805969E-08  0.93827000000E+00  0.93827000000E+00 0. -1.
     999902    2    1    2    0    0  0.55519594447E-02 -0.84314621056E-02 -0.93281381625E-02  0.10301848929E+01  0.10300931927E+01 0.  0.
     999903    2    3    3    0    0  0.12898684910E+00  0.25184237981E-01 -0.23428421847E-01  0.14082275899E+00  0.44836429554E-01 0.  0.
         14    1    1    2    0    0 -0.55519594447E-02  0.84314621056E-02  0.93281381625E-02  0.13745107075E-01  0.00000000000E+00 0. -1.
     999901    1    3    3    0    0 -0.12343488966E+00 -0.33615700087E-01  0.14100283684E-01  0.88936213393E+00  0.88000000000E+00 0.  1.
        -11    1    4    4    0    0  0.10168454586E+00  0.36730995687E-03 -0.21082377597E-01  0.10384897472E+00  0.51100000000E-03 0. -1.
         11    1    4    4    0    0  0.27302303242E-01  0.24816928024E-01 -0.23460442492E-02  0.36973784274E-01  0.51100000000E-03 0.  1.
</event>
<event>
 8    1  0.2190295E+004  0.1043930E+01  0.7957747E-01            NaN
         13   -1    0    0    0    0  0.00000000000E+00  0.00000000000E+00  0.74505805969E-08  0.10566000000E+00  0.10566000000E+00 0.  1.
     999900   -1    0    0    0    0 -0.00000000000E+00 -0.00000000000E+00 -0.74505805969E-08  0.93827000000E+00  0.93827000000E+00 0.  1.
     999902    2    1    2    0    0 -0.68139971390E-02  0.31619608827E-02 -0.12590369088E-01  0.10292689650E+01  0.10291645429E+01 0.  0.
     999903    2    3    3    0    0 -0.47015523425E-01  0.12408188037E+00  0.30331415502E-02  0.13995356328E+00  0.44396254896E-01 0.  0.
         14    1    1    2    0    0  0.68139971390E-02 -0.31619608827E-02  0.12590369088E-01  0.14661035004E-01  0.00000000000E+00 0.  1.
     999901    1    3    3    0    0  0.40201526286E-01 -0.12091991948E+00 -0.15623510638E-01  0.88931540172E+00  0.88000000000E+00 0.  1.
        -11    1    4    4    0    0 -0.41124755264E-01  0.46469123128E-01  0.27244332315E-02  0.62115284409E-01  0.51100000000E-03 0.  1.
         11    1    4    4    0    0 -0.58907681610E-02  0.77612757239E-01  0.30870831870E-03  0.77838278871E-01  0.51100000000E-03 0. -1.
</event>
<event>
 8    1  0.2190295E+004  0.1043930E+01  0.7957747E-01            NaN
         13   -1    0    0    0    0  0.00000000000E+00  0.00000000000E+00  0.74505805969E-08  0.10566000000E+00  0.10566000000E+00 0. -1.
     999900   -1    0    0    0    0 -0.00000000000E+00 -0.00000000000E+00 -0.74505805969E-08  0.93827000000E+00  0.93827000000E+00 0.  1.
     999902    2    1    2    0    0 -0.84227809318E-02 -0.10325795537E-01 -0.41962152228E-02  0.10299595485E+01  0.10298647960E+01 0.  0.
     999903    2    3    3    0    0  0.13137787501E+00 -0.12996154574E-02 -0.54339727305E-02  0.13887749430E+00  0.44672086606E-01 0.  0.
         14    1    1    2    0    0  0.84227809318E-02  0.10325795537E-01  0.41962152228E-02  0.13970451471E-01  0.00000000000E+00 0.  1.
     999901    1    3    3    0    0 -0.13980065594E+00 -0.90261800796E-02  0.12377575077E-02  0.89108205423E+00  0.88000000000E+00 0. -1.
        -11    1    4    4    0    0  0.83019631418E-01  0.20807217956E-01 -0.26237453616E-02  0.85629111175E-01  0.51100000000E-03 0. -1.
         11    1    4    4    0    0  0.48358243588E-01 -0.22106833414E-01 -0.28102273689E-02  0.53248383125E-01  0.51100000000E-03 0.  1.
</event>
<event>
 8    1  0.2190295E+004  0.1043930E+01  0.7957747E-01            NaN
         13   -1    0    0    0    0  0.00000000000E+00  0.00000000000E+00  0.74505805969E-08  0.10566000000E+00  0.10566000000E+00 0.  1.
     999900   -1    0    0    0    0 -0.00000000000E+00 -0.00000000000E+00 -0.74505805969E-08  0.93827000000E+00  0.93827000000E+00 0. -1.
     999902    2    1    2    0    0 -0.86159180277E-02 -0.35639187368E-02 -0.11869347866E-01  0.10288363928E+01  0.10287256710E+01 0.  0.
     999903    2    3    3    0    0 -0.45954785192E-01 -0.99044884003E-01  0.72884633035E-01  0.13883973941E+00  0.45194824671E-01 0.  0.
         14    1    1    2    0    0  0.86159180277E-02  0.35639187368E-02  0.11869347866E-01  0.15093607223E-01  0.00000000000E+00 0.  1.
     999901    1    3    3    0    0  0.37338867165E-01  0.95480965266E-01 -0.84753980902E-01  0.88999665337E+00  0.88000000000E+00 0. -1.
        -11    1    4    4    0    0 -0.15823870097E-01 -0.24146696653E-01 -0.17042453072E-02  0.28924442901E-01  0.51100000000E-03 0.  1.
         11    1    4    4    0    0 -0.30130915096E-01 -0.74898187350E-01  0.74588878342E-01  0.10991529651E+00  0.51100000000E-03 0. -1.
</event>
<event>
 8    1  0.2190295E+004  0.1043930E+01  0.7957747E-01            NaN
         13   -1    0    0    0    0  0.00000000000E+00  0.00000000000E+00  0.74505805969E-08  0.10566000000E+00  0.10566000000E+00 0.  1.
     999900   -1    0    0    0    0 -0.00000000000E+00 -0.00000000000E+00 -0.74505805969E-08  0.93827000000E+00  0.93827000000E+00 0. -1.
     999902    2    1    2    0    0 -0.11988594989E-01 -0.17288061599E-02  0.67839400598E-02  0.10300470240E+01  0.10299534623E+01 0.  0.
     999903    2    3    3    0    0  0.28035330248E-02  0.12315417978E+00 -0.46994596073E-01  0.13948164278E+00  0.45517302409E-01 0.  0.
         14    1    1    2    0    0  0.11988594989E-01  0.17288061599E-02 -0.67839400598E-02  0.13882976024E-01  0.00000000000E+00 0.  1.
     999901    1    3    3    0    0 -0.14792128014E-01 -0.12488298594E+00  0.53778536133E-01  0.89056538119E+00  0.88000000000E+00 0.  1.
        -11    1    4    4    0    0 -0.56796354331E-02  0.80976376164E-01 -0.82725225156E-02  0.81597349866E-01  0.51100000000E-03 0. -1.
         11    1    4    4    0    0  0.84831684580E-02  0.42177803617E-01 -0.38722073557E-01  0.57884292918E-01  0.51100000000E-03 0.  1.
</event>
<event>
 8    1  0.2190295E+004  0.1043930E+01  0.7957747E-01            NaN
         13   -1    0    0    0    0  0.00000000000E+00  0.00000000000E+00  0.74505805969E-08  0.10566000000E+00  0.10566000000E+00 0. -1.
     999900   -1    0    0    0    0 -0.00000000000E+00 -0.00000000000E+00 -0.74505805969E-08  0.93827000000E+00  0.93827000000E+00 0. -1.
     999902    2    1    2    0    0 -0.75474959374E-02  0.90819873482E-02 -0.87072129837E-02  0.10292581648E+01  0.10291535877E+01 0.  0.
     999903    2    3    3    0    0  0.61904751244E-01 -0.11521259671E+00  0.97734366946E-03  0.13776136232E+00  0.43256179667E-01 0.  0.
         14    1    1    2    0    0  0.75474959374E-02 -0.90819873482E-02  0.87072129837E-02  0.14671835163E-01  0.00000000000E+00 0. -1.
     999901    1    3    3    0    0 -0.69452247182E-01  0.12429458406E+00 -0.96845566532E-02  0.89149680252E+00  0.88000000000E+00 0. -1.
        -11    1    4    4    0    0  0.46216480549E-01 -0.94020130146E-01 -0.16592443656E-01  0.10607223131E+00  0.51100000000E-03 0.  1.
         11    1    4    4    0    0  0.15688270695E-01 -0.21192466564E-01  0.17569787325E-01  0.31689131009E-01  0.51100000000E-03 0. -1.
</event>
<event>
 8    1  0.2190295E+004  0.1043930E+01  0.7957747E-01            NaN
         13   -1    0    0    0    0  0.00000000000E+00  0.00000000000E+00  0.74505805969E-08  0.10566000000E+00  0.10566000000E+00 0. -1.
     999900   -1    0    0    0    0 -0.00000000000E+00 -0.00000000000E+00 -0.74505805969E-08  0.93827000000E+00  0.93827000000E+00 0. -1.
     999902    2    1    2    0    0 -0.70985526361E-02  0.45245736670E-02  0.10490255520E-01  0.10304798447E+01  0.10303920631E+01 0.  0.
     999903    2    3    3    0    0 -0.49876394067E-01  0.93909229108E-01 -0.80638240827E-01  0.14024169501E+00  0.43111589367E-01 0.  0.
         14    1    1    2    0    0  0.70985526361E-02 -0.45245736670E-02 -0.10490255520E-01  0.13450155288E-01  0.00000000000E+00 0.  1.
     999901    1    3    3    0    0  0.42777841431E-01 -0.89384655441E-01  0.91128496347E-01  0.89023814971E+00  0.88000000000E+00 0. -1.
        -11    1    4    4    0    0 -0.60219600153E-02  0.53465416623E-01 -0.27874430337E-01  0.60597522760E-01  0.51100000000E-03 0. -1.
         11    1    4    4    0    0 -0.43854434052E-01  0.40443812485E-01 -0.52763810489E-01  0.79644172245E-01  0.51100000000E-03 0.  1.
</event>
<event>
 8    1  0.2190295E+004  0.1043930E+01  0.7957747E-01            NaN
         13   -1    0    0    0    0  0.00000000000E+00  0.00000000000E+00  0.74505805969E-08  0.10566000000E+00  0.10566000000E+00 0. -1.
     999900   -1    0    0    0    0 -0.00000000000E+00 -0.00000000000E+00 -0.74505805969E-08  0.93827000000E+00  0.93827000000E+00 0.  1.
     999902    2    1    2    0    0 -0.27274848710E-02  0.12516809660E-01  0.48946043673E-02  0.10302162533E+01  0.10301249738E+01 0.  0.
     999903    2    3    3    0    0  0.65411124973E-02 -0.20957713357E-01  0.13122792446E+00  0.14051599005E+00  0.45188089138E-01 0.  0.
         14    1    1    2    0    0  0.27274848710E-02 -0.12516809660E-01 -0.48946043673E-02  0.13713746742E-01  0.00000000000E+00 0. -1.
     999901    1    3    3    0    0 -0.92685973683E-02  0.33474523017E-01 -0.12633332009E+00  0.88970026321E+00  0.88000000000E+00 0.  1.
        -11    1    4    4    0    0  0.17709019672E-01 -0.18414602347E-02  0.18683350450E-01  0.25813350394E-01  0.51100000000E-03 0.  1.
         11    1    4    4    0    0 -0.11167907174E-01 -0.19116253123E-01  0.11254457401E+00  0.11470263966E+00  0.51100000000E-03 0. -1.
</event>
<event>
 8    1  0.2190295E+004  0.1043930E+01  0.7957747E-01            NaN
         13   -1    0    0    0    0  0.00000000000E+00  0.00000000000E+00  0.74505805969E-08  0.10566000000E+00  0.10566000000E+00 0.  1.
     999900   -1    0    0    0    0 -0.00000000000E+00 -0.00000000000E+00 -0.74505805969E-08  0.93827000000E+00  0.93827000000E+00 0.  1.
     999902    2    1    2    0    0  0.10433369433E-01 -0.19642115253E-02 -0.91513087508E-02  0.10299135890E+01  0.10298182078E+01 0.  0.
     999903    2    3    3    0    0  0.12200486875E+00  0.35871571448E-01  0.38514273397E-01  0.14078381579E+00  0.46527152267E-01 0.  0.
         14    1    1    2    0    0 -0.10433369433E-01  0.19642115253E-02  0.91513087508E-02  0.14016410970E-01  0.00000000000E+00 0.  1.
     999901    1    3    3    0    0 -0.11157149931E+00 -0.37835782973E-01 -0.47665582148E-01  0.88912977324E+00  0.88000000000E+00 0.  1.
        -11    1    4    4    0    0  0.26993761463E-01  0.13978456007E-01  0.30320711401E-01  0.42937944188E-01  0.51100000000E-03 0. -1.
         11    1    4    4    0    0  0.95011107285E-01  0.21893115441E-01  0.81935619965E-02  0.97845871606E-01  0.51100000000E-03 0.  1.
</event>
<event>
 8    1  0.2190295E+004  0.1043930E+01  0.7957747E-01            NaN
         13   -1    0    0    0    0  0.00000000000E+00  0.00000000000E+00  0.74505805969E-08  0.10566000000E+00  0.10566000000E+00 0. -1.
     999900   -1    0    0    0    0 -0.00000000000E+00 -0.00000000000E+00 -0.74505805969E-08  0.93827000000E+00  0.93827000000E+00 0.  1.
     999902    2    1    2    0    0 -0.12288292360E-01 -0.13800681879E-03 -0.71763134829E-02  0.10296990250E+01  0.10296006805E+01 0.  0.
     999903    2    3    3    0    0 -0.78054042137E-01  0.10430121446E+00 -0.28945168032E-01  0.14081963618E+00  0.44957428197E-01 0.  0.
         14    1    1    2    0    0  0.12288292360E-01  0.13800681879E-03  0.71763134829E-02  0.14230975027E-01  0.00000000000E+00 0. -1.
     999901    1    3    3    0    0  0.65765749778E-01 -0.10443922128E+00  0.21768854549E-01  0.88887938879E+00  0.88000000000E+00 0. -1.
        -11    1    4    4    0    0 -0.30272873977E-01  0.73668444368E-01 -0.69613481562E-02  0.79951285691E-01  0.51100000000E-03 0.  1.
         11    1    4    4    0    0 -0.47781168160E-01  0.30632770096E-01 -0.21983819876E-01  0.60868350493E-01  0.51100000000E-03 0. -1.
</event>
<event>
 8    1  0.2190295E+004  0.1043930E+01  0.7957747E-01            NaN
         13   -1    0    0    0    0  0.00000000000E+00  0.00000000000E+00  0.74505805969E-08  0.10566000000E+00  0.10566000000E+00 0. -1.
     999900   -1    0    0    0    0 -0.00000000000E+00 -0.00000000000E+00 -0.74505805969E-08  0.93827000000E+00  0.93827000000E+00 0.  1.
     999902    2    1    2    0    0  0.78906482056E-03  0.21239852039E-02  0.13096453672E-01  0.10306389867E+01  0.10305532833E+01 0.  0.
     999903    2    3    3    0    0  0.56972479450E-01 -0.11455027208E+00  0.38574355983E-01  0.14079710078E+00  0.44364562413E-01 0.  0.
         14    1    1    2    0    0 -0.78906482056E-03 -0.21239852039E-02 -0.13096453672E-01  0.13291013325E-01  0.00000000000E+00 0.  1.
     999901    1    3    3    0    0 -0.56183414629E-01  0.11667425729E+00 -0.25477902312E-01  0.88984188590E+00  0.88000000000E+00 0. -1.
        -11    1    4    4    0    0  0.12911249900E-01 -0.19590381176E-01  0.26531540259E-01  0.35421281148E-01  0.51100000000E-03 0. -1.
         11    1    4    4    0    0  0.44061229550E-01 -0.94959890908E-01  0.12042815724E-01  0.10537581963E+00  0.51100000000E-03 0.  1.
</event>
<event>
 8    1  0.2190295E+004  0.1043930E+01  0.7957747E-01            NaN
         13   -1    0    0    0    0  0.00000000000E+00  0.00000000000E+00  0.74505805969E-08  0.10566000000E+00  0.10566000000E+00 0.  1.
     999900   -1    0    0    0    0 -0.00000000000E+00 -0.00000000000E+00 -0.74505805969E-08  0.93827000000E+00  0.93827000000E+00 0. -1.
     999902    2    1    2    0    0  0.12310458599E-01 -0.63705740455E-02 -0.16622688875E-02  0.10299695293E+01  0.10298749130E+01 0.  0.
     999903    2    3    3    0    0 -0.27472279083E-01  0.12806794390E+00  0.87659306697E-02  0.13881009986E+00  0.45114054453E-01 0.  0.
         14    1    1    2    0    0 -0.12310458599E-01  0.63705740455E-02  0.16622688875E-02  0.13960470709E-01  0.00000000000E+00 0. -1.
     999901    1    3    3    0    0  0.39782737681E-01 -0.13443851794E+00 -0.10428199557E-01  0.89115942943E+00  0.88000000000E+00 0.  1.
        -11    1    4    4    0    0 -0.16023403113E-01  0.32480329968E-01  0.20832194618E-01  0.41784718926E-01  0.51100000000E-03 0. -1.
         11    1    4    4    0    0 -0.11448875970E-01  0.95587613930E-01 -0.12066263948E-01  0.97025380930E-01  0.51100000000E-03 0.  1.
</event>
<event>
 8    1  0.2190295E+004  0.1043930E+01  0.7957747E-01            NaN
         13   -1    0    0    0    0  0.00000000000E+00  0.00000000000E+00  0.74505805969E-08  0.10566000000E+00  0.10566000000E+00 0. -1.
     999900   -1    0    0    0    0 -0.00000000000E+00 -0.00000000000E+00 -0.74505805969E-08  0.93827000000E+00  0.93827000000E+00 0. -1.
     999902    2    1    2    0    0  0.54649990932E-02  0.13584564701E-01 -0.22569410159E-02  0.10291144542E+01  0.10290078034E+01 0.  0.
     999903    2    3    3    0    0  0.13123511605E+00  0.41323195691E-02  0.17277643745E-01  0.13990746639E+00  0.45120399245E-01 0.  0.
         14    1    1    2    0    0 -0.54649990932E-02 -0.13584564701E-01  0.22569410159E-02  0.14815545753E-01  0.00000000000E+00 0.  1.
     999901    1    3    3    0    0 -0.12577011696E+00  0.94522451319E-02 -0.19534584761E-01  0.88920698786E+00  0.88000000000E+00 0.  1.
        -11    1    4    4    0    0  0.82684143176E-01  0.47189940622E-02  0.32577107759E-01  0.88996997189E-01  0.51100000000E-03 0. -1.
         11    1    4    4    0    0  0.48550972873E-01 -0.58667449307E-03 -0.15299464014E-01  0.50910469198E-01  0.51100000000E-03 0.  1.
</event>
<event>
 8    1  0.2190295E+004  0.1043930E+01  0.7957747E-01            NaN
         13   -1    0    0    0    0  0.00000000000E+00  0.00000000000E+00  0.74505805969E-08  0.10566000000E+00  0.10566000000E+00 0. -1.
     999900   -1    0    0    0    0 -0.00000000000E+00 -0.00000000000E+00 -0.74505805969E-08  0.93827000000E+00  0.93827000000E+00 0.  1.
     999902    2    1    2    0    0 -0.98436731103E-02 -0.14305822003E-01 -0.99028913612E-02  0.10239394597E+01  0.10237443018E+01 0.  0.
     999903    2    3    3    0    0 -0.88420300017E-01 -0.30369414167E-01 -0.89557699194E-01  0.13670938037E+00  0.43913806757E-01 0.  0.
         14    1    1    2    0    0  0.98436731103E-02  0.14305822003E-01  0.99028913612E-02  0.19990540283E-01  0.00000000000E+00 0. -1.
     999901    1    3    3    0    0  0.78576626907E-01  0.16063592164E-01  0.79654807833E-01  0.88723007935E+00  0.88000000000E+00 0. -1.
        -11    1    4    4    0    0 -0.16846671470E-01 -0.73118103762E-02 -0.46635954746E-01  0.50124308541E-01  0.51100000000E-03 0. -1.
         11    1    4    4    0    0 -0.71573628548E-01 -0.23057603791E-01 -0.42921744448E-01  0.86585071828E-01  0.51100000000E-03 0.  1.
</event>
<event>
 8    1  0.2190295E+004  0.1043930E+01  0.7957747E-01            NaN
         13   -1    0    0    0    0  0.00000000000E+00  0.00000000000E+00  0.74505805969E-08  0.10566000000E+00  0.10566000000E+00 0.  1.
     999900   -1    0    0    0    0 -0.00000000000E+00 -0.00000000000E+00 -0.74505805969E-08  0.93827000000E+00  0.93827000000E+00 0.  1.
     999902    2    1    2    0    0  0.35973431795E-02 -0.22209488181E-01 -0.78161992258E-03  0.10214174885E+01  0.10211693653E+01 0.  0.
     999903    2    3    3    0    0 -0.94102039274E-01 -0.80409487134E-01  0.11897861122E-01  0.13400936458E+00  0.49960697336E-01 0.  0.
         14    1    1    2    0    0 -0.35973431795E-02  0.22209488181E-01  0.78161992258E-03  0.22512511475E-01  0.00000000000E+00 0. -1.
     999901    1    3    3    0    0  0.97699382453E-01  0.58199998953E-01 -0.12679481044E-01  0.88740812395E+00  0.88000000000E+00 0.  1.
        -11    1    4    4    0    0 -0.66764003938E-01 -0.57313810520E-01  0.31181673235E-01  0.93353430386E-01  0.51100000000E-03 0. -1.
         11    1    4    4    0    0 -0.27338035335E-01 -0.23095676614E-01 -0.19283812113E-01  0.40655934190E-01  0.51100000000E-03 0.  1.
</event>
<event>
 8    1  0.2190295E+004  0.1043930E+01  0.7957747E-01            NaN
         13   -1    0    0    0    0  0.00000000000E+00  0.00000000000E+00  0.74505805969E-08  0.10566000000E+00  0.10566000000E+00 0. -1.
     999900   -1    0    0    0    0 -0.00000000000E+00 -0.00000000000E+00 -0.74505805969E-08  0.93827000000E+00  0.93827000000E+00 0. -1.
     999902    2    1    2    0    0 -0.10645485967E-01 -0.10188448314E-01 -0.17611568877E-02  0.10290897667E+01  0.10289827576E+01 0.  0.
     999903    2    3    3    0    0  0.26537322077E-01  0.26144260329E-01 -0.12426024502E+00  0.13908490519E+00  0.50162242252E-01 0.  0.
         14    1    1    2    0    0  0.10645485967E-01  0.10188448314E-01  0.17611568877E-02  0.14840233290E-01  0.00000000000E+00 0.  1.
     999901    1    3    3    0    0 -0.37182808044E-01 -0.36332708643E-01  0.12249908814E+00  0.89000486152E+00  0.88000000000E+00 0.  1.
        -11    1    4    4    0    0 -0.84956512799E-02  0.42496588983E-02 -0.15911297540E-02  0.96451286313E-02  0.51100000000E-03 0. -1.
         11    1    4    4    0    0  0.35032973357E-01  0.21894601430E-01 -0.12266911527E+00  0.12943977656E+00  0.51100000000E-03 0.  1.
</event>
<event>
 8    1  0.2190295E+004  0.1043930E+01  0.7957747E-01            NaN
         13   -1    0    0    0    0  0.00000000000E+00  0.00000000000E+00  0.74505805969E-08  0.10566000000E+00  0.10566000000E+00 0. -1.
     999900   -1    0    0    0    0 -0.00000000000E+00 -0.00000000000E+00 -0.74505805969E-08  0.93827000000E+00  0.93827000000E+00 0. -1.
     999902    2    1    2    0    0 -0.10724575583E-01  0.89259975691E-03 -0.71065876668E-02  0.10310336112E+01  0.10309529527E+01 0.  0.
     999903    2    3    3    0    0  0.82668494613E-01  0.36623216545E-01 -0.98523728885E-01  0.14066512779E+00  0.43639581028E-01 0.  0.
         14    1    1    2    0    0  0.10724575583E-01 -0.89259975691E-03  0.71065876668E-02  0.12896388798E-01  0.00000000000E+00 0.  1.
     999901    1    3    3    0    0 -0.93393070196E-01 -0.35730616788E-01  0.91417141219E-01  0.89036848341E+00  0.88000000000E+00 0.  1.
        -11    1    4    4    0    0  0.35174820494E-01  0.17793936629E-01 -0.13876880780E-01  0.41793792825E-01  0.51100000000E-03 0.  1.
         11    1    4    4    0    0  0.47493674119E-01  0.18829279916E-01 -0.84646848105E-01  0.98871334969E-01  0.51100000000E-03 0. -1.
</event>
<event>
 8    1  0.2190295E+004  0.1043930E+01  0.7957747E-01            NaN
         13   -1    0    0    0    0  0.00000000000E+00  0.00000000000E+00  0.74505805969E-08  0.10566000000E+00  0.10566000000E+00 0.  1.
     999900   -1    0    0    0    0 -0.00000000000E+00 -0.00000000000E+00 -0.74505805969E-08  0.93827000000E+00  0.93827000000E+00 0.  1.
     999902    2    1    2    0    0 -0.19432076541E-02 -0.34950539244E-02  0.14017958657E-01  0.10293528047E+01  0.10292495819E+01 0.  0.
     999903    2    3    3    0    0 -0.31490304686E-01 -0.12824076204E+00 -0.33546986613E-02  0.13989435606E+00  0.46063483532E-01 0.  0.
         14    1    1    2    0    0  0.19432076541E-02  0.34950539244E-02 -0.14017958657E-01  0.14577195301E-01  0.00000000000E+00 0. -1.
     999901    1    3    3    0    0  0.29547097032E-01  0.12474570812E+00  0.17372657319E-01  0.88945844864E+00  0.88000000000E+00 0.  1.
        -11    1    4    4    0    0 -0.21594309053E-01 -0.98497083346E-01  0.17355714614E-01  0.10232043570E+00  0.51100000000E-03 0. -1.
         11    1    4    4    0    0 -0.98959956329E-02 -0.29743678697E-01 -0.20710413275E-01  0.37573920357E-01  0.51100000000E-03 0.  1.
</event>
<event>
 8    1  0.2190295E+004  0.1043930E+01  0.7957747E-01            NaN
         13   -1    0    0    0    0  0.00000000000E+00  0.00000000000E+00  0.74505805969E-08  0.10566000000E+00  0.10566000000E+00 0.  1.
     999900   -1    0    0    0    0 -0.00000000000E+00 -0.00000000000E+00 -0.74505805969E-08  0.93827000000E+00  0.93827000000E+00 0.  1.
     999902    2    1    2    0    0 -0.10246037505E-01  0.22511826393E-02  0.82100046195E-02  0.10306088408E+01  0.10305227457E+01 0.  0.
     999903    2    3    3    0    0  0.54549006020E-01  0.29372777978E-03 -0.12013032923E+00  0.13893991644E+00  0.43558283301E-01 0.  0.
         14    1    1    2    0    0  0.10246037505E-01 -0.22511826393E-02 -0.82100046195E-02  0.13321159247E-01  0.00000000000E+00 0. -1.
     999901    1    3    3    0    0 -0.64795043526E-01  0.19574548595E-02  0.12834033385E+00  0.89166892431E+00  0.88000000000E+00 0. -1.
        -11    1    4    4    0    0 -0.42695527500E-02 -0.48069315676E-02 -0.33423513577E-01  0.34040094780E-01  0.51100000000E-03 0.  1.
         11    1    4    4    0    0  0.58818558770E-01  0.51006593474E-02 -0.86706815657E-01  0.10489982166E+00  0.51100000000E-03 0. -1.
</event>
<event>
 8    1  0.2190295E+004  0.1043930E+01  0.7957747E-01            NaN
         13   -1    0    0    0    0  0.00000000000E+00  0.00000000000E+00  0.74505805969E-08  0.10566000000E+00  0.10566000000E+00 0.  1.
     999900   -1    0    0    0    0 -0.00000000000E+00 -0.00000000000E+00 -0.74505805969E-08  0.93827000000E+00  0.93827000000E+00 0. -1.
     999902    2    1    2    0    0  0.60917889358E-02  0.13728435423E-01  0.55696148323E-02  0.10279112472E+01  0.10277864232E+01 0.  0.
     999903    2    3    3    0    0  0.44656387737E-01  0.12249321487E+00 -0.23191115890E-01  0.13991114295E+00  0.45149965783E-01 0.  0.
         14    1    1    2    0    0 -0.60917889358E-02 -0.13728435423E-01 -0.55696148323E-02  0.16018752791E-01  0.00000000000E+00 0.  1.
     999901    1    3    3    0    0 -0.38564598802E-01 -0.10876477945E+00  0.28760730722E-01  0.88800010426E+00  0.88000000000E+00 0.  1.
        -11    1    4    4    0    0  0.50225277595E-01  0.11131589840E+00 -0.11274781807E-01  0.12264252758E+00  0.51100000000E-03 0. -1.
         11    1    4    4    0    0 -0.55688898578E-02  0.11177316471E-01 -0.11916334082E-01  0.17268615367E-01  0.51100000000E-03 0.  1.
</event>
<event>
 8    1  0.2190295E+004  0.1043930E+01  0.7957747E-01            NaN
         13   -1    0    0    0    0  0.00000000000E+00  0.00000000000E+00  0.74505805969E-08  0.10566000000E+00  0.10566000000E+00 0. -1.
     999900   -1    0    0    0    0 -0.00000000000E+00 -0.00000000000E+00 -0.74505805969E-08  0.93827000000E+00  0.93827000000E+00 0.  1.
     999902    2    1    2    0    0  0.30656859801E-02 -0.11533775082E-01 -0.67786027810E-02  0.10302049917E+01  0.10301135612E+01 0.  0.
     999903    2    3    3    0    0  0.51651120584E-01  0.38866194581E-01 -0.11709822791E+00  0.14055836458E+00  0.43199994605E-01 0.  0.
         14    1    1    2    0    0 -0.30656859801E-02  0.11533775082E-01  0.67786027810E-02  0.13725008337E-01  0.00000000000E+00 0. -1.
     999901    1    3    3    0    0 -0.48585434604E-01 -0.50399969663E-01  0.11031962513E+00  0.88964662709E+00  0.88000000000E+00 0. -1.
        -11    1    4    4    0    0  0.24631852173E-01  0.41497613779E-01 -0.90421219000E-01  0.10249408791E+00  0.51100000000E-03 0.  1.
         11    1    4    4    0    0  0.27019268411E-01 -0.26314191983E-02 -0.26677008911E-01  0.38064276663E-01  0.51100000000E-03 0. -1.
</event>
<event>
 8    1  0.2190295E+004  0.1043930E+01  0.7957747E-01            NaN
         13   -1    0    0    0    0  0.00000000000E+00  0.00000000000E+00  0.74505805969E-08  0.10566000000E+00  0.10566000000E+00 0. -1.
     999900   -1    0    0    0    0 -0.00000000000E+00 -0.00000000000E+00 -0.74505805969E-08  0.93827000000E+00  0.93827000000E+00 0. -1.
     999902    2    1    2    0    0 -0.10963826398E-01  0.31367601786E-02 -0.58816171574E-02  0.10310988592E+01  0.10310190198E+01 0.  0.
     999903    2    3    3    0    0  0.74181920447E-01  0.68233063761E-01 -0.88672936468E-01  0.14073841001E+00  0.42257568289E-01 0.  0.
         14    1    1    2    0    0  0.10963826398E-01 -0.31367601786E-02  0.58816171574E-02  0.12831140794E-01  0.00000000000E+00 0. -1.
     999901    1    3    3    0    0 -0.85145746845E-01 -0.65096303582E-01  0.82791319311E-01  0.89036044920E+00  0.88000000000E+00 0.  1.
        -11    1    4    4    0    0  0.19696076754E-01  0.16581616006E-01 -0.16500879869E-02  0.25804444195E-01  0.51100000000E-03 0. -1.
         11    1    4    4    0    0  0.54485843693E-01  0.51651447754E-01 -0.87022848482E-01  0.11493396581E+00  0.51100000000E-03 0.  1.
</event>
<event>
 8    1  0.2568867E+004  0.1043930E+01  0.7957747E-01            NaN
         13   -1    0    0    0    0  0.00000000000E+00  0.00000000000E+00  0.74505805969E-08  0.10566000000E+00  0.10566000000E+00 0.  1.
     999900   -1    0    0    0    0 -0.00000000000E+00 -0.00000000000E+00 -0.74505805969E-08  0.93827000000E+00  0.93827000000E+00 0. -1.
     999902    2    1    2    0    0  0.12064829892E-01  0.22836101921E-02  0.15134562860E-02  0.10315580339E+01  0.10314838398E+01 0.  0.
     999903    2    3    3    0    0  0.80495561290E-01 -0.79720190320E-01 -0.77362979075E-01  0.14159798963E+00  0.35073009623E-01 0.  0.
         14    1    1    2    0    0 -0.12064829892E-01 -0.22836101921E-02 -0.15134562860E-02  0.12371966124E-01  0.00000000000E+00 0. -1.
     999901    1    3    3    0    0 -0.68430731397E-01  0.82003800512E-01  0.78876435361E-01  0.88996004425E+00  0.88000000000E+00 0. -1.
        -11    1    4    4    0    0  0.56625585235E-01 -0.60502875228E-01 -0.36583441131E-01  0.90585120743E-01  0.51100000000E-03 0. -1.
         11    1    4    4    0    0  0.23869976055E-01 -0.19217315092E-01 -0.40779537944E-01  0.51012868888E-01  0.51100000000E-03 0.  1.
</event>
<event>
 8    1  0.2190295E+004  0.1043930E+01  0.7957747E-01            NaN
         13   -1    0    0    0    0  0.00000000000E+00  0.00000000000E+00  0.74505805969E-08  0.10566000000E+00  0.10566000000E+00 0.  1.
     999900   -1    0    0    0    0 -0.00000000000E+00 -0.00000000000E+00 -0.74505805969E-08  0.93827000000E+00  0.93827000000E+00 0.  1.
     999902    2    1    2    0    0 -0.12423652825E-01  0.16113623676E-02  0.42403819628E-02  0.10307040982E+01  0.10306192380E+01 0.  0.
     999903    2    3    3    0    0  0.10187327785E+00 -0.71743881489E-01  0.40915854985E-01  0.13953078710E+00  0.47638052949E-01 0.  0.
         14    1    1    2    0    0  0.12423652825E-01 -0.16113623676E-02 -0.42403819628E-02  0.13225901761E-01  0.00000000000E+00 0. -1.
     999901    1    3    3    0    0 -0.11429693068E+00  0.73355243857E-01 -0.36675473022E-01  0.89117331114E+00  0.88000000000E+00 0.  1.
        -11    1    4    4    0    0  0.58916272377E-01 -0.13967753435E-01  0.10889452403E-01  0.61522894775E-01  0.51100000000E-03 0. -1.
         11    1    4    4    0    0  0.42957005474E-01 -0.57776128055E-01  0.30026402582E-01  0.78007892327E-01  0.51100000000E-03 0.  1.
</event>
<event>
 8    1  0.2190295E+004  0.1043930E+01  0.7957747E-01            NaN
         13   -1    0    0    0    0  0.00000000000E+00  0.00000000000E+00  0.74505805969E-08  0.10566000000E+00  0.10566000000E+00 0.  1.
     999900   -1    0    0    0    0 -0.00000000000E+00 -0.00000000000E+00 -0.74505805969E-08  0.93827000000E+00  0.93827000000E+00 0.  1.
     999902    2    1    2    0    0 -0.12537253845E-01 -0.48003383224E-02  0.31683034095E-03  0.10305014348E+01  0.10304139366E+01 0.  0.
     999903    2    3    3    0    0 -0.46993055237E-02 -0.86342124094E-01 -0.10117297450E+00  0.14088877934E+00  0.46223711559E-01 0.  0.
         14    1    1    2    0    0  0.12537253845E-01  0.48003383224E-02 -0.31683034095E-03  0.13428565204E-01  0.00000000000E+00 0.  1.
     999901    1    3    3    0    0 -0.78379483211E-02  0.81541785772E-01  0.10148980484E+00  0.88961265546E+00  0.88000000000E+00 0.  1.
        -11    1    4    4    0    0  0.20862450922E-01 -0.38338698948E-01 -0.46120397341E-01  0.63501573740E-01  0.51100000000E-03 0. -1.
         11    1    4    4    0    0 -0.25561756446E-01 -0.48003425147E-01 -0.55052577154E-01  0.77387205601E-01  0.51100000000E-03 0.  1.
</event>
<event>
 8    1  0.2190295E+004  0.1043930E+01  0.7957747E-01            NaN
         13   -1    0    0    0    0  0.00000000000E+00  0.00000000000E+00  0.74505805969E-08  0.10566000000E+00  0.10566000000E+00 0. -1.
     999900   -1    0    0    0    0 -0.00000000000E+00 -0.00000000000E+00 -0.74505805969E-08  0.93827000000E+00  0.93827000000E+00 0. -1.
     999902    2    1    2    0    0 -0.13343603441E-01  0.26897179225E-02 -0.10875020996E-01  0.10265072443E+01  0.10263593767E+01 0.  0.
     999903    2    3    3    0    0 -0.89908065496E-01  0.94056275433E-01  0.13282913183E-01  0.13814157043E+00  0.44459133029E-01 0.  0.
         14    1    1    2    0    0  0.13343603441E-01 -0.26897179225E-02  0.10875020996E-01  0.17422755722E-01  0.00000000000E+00 0.  1.
     999901    1    3    3    0    0  0.76564462055E-01 -0.91366557511E-01 -0.24157934179E-01  0.88836567384E+00  0.88000000000E+00 0.  1.
        -11    1    4    4    0    0 -0.57794486143E-01  0.29001536614E-01  0.10702362824E-01  0.65544591276E-01  0.51100000000E-03 0.  1.
         11    1    4    4    0    0 -0.32113579353E-01  0.65054738819E-01  0.25805503588E-02  0.72596979157E-01  0.51100000000E-03 0. -1.
</event>
<event>
 8    1  0.2190295E+004  0.1043930E+01  0.7957747E-01            NaN
         13   -1    0    0    0    0  0.00000000000E+00  0.00000000000E+00  0.74505805969E-08  0.10566000000E+00  0.10566000000E+00 0.  1.
     999900   -1    0    0    0    0 -0.00000000000E+00 -0.00000000000E+00 -0.74505805969E-08  0.93827000000E+00  0.93827000000E+00 0. -1.
     999902    2    1    2    0    0 -0.11897911263E-05 -0.98723560894E-02 -0.65155553441E-02  0.10321013958E+01  0.10320336115E+01 0.  0.
     999903    2    3    3    0    0  0.10529366180E+00 -0.83530244648E-01  0.93420891199E-02  0.14262741910E+00  0.46810779349E-01 0.  0.
         14    1    1    2    0    0  0.11897911263E-05  0.98723560894E-02  0.65155553441E-02  0.11828604212E-01  0.00000000000E+00 0.  1.
     999901    1    3    3    0    0 -0.10529485159E+00  0.73657888559E-01 -0.15857644464E-01  0.88947397669E+00  0.88000000000E+00 0.  1.
        -11    1    4    4    0    0  0.90030095571E-01 -0.48749262956E-01 -0.37423681374E-02  0.10245084279E+00  0.51100000000E-03 0. -1.
         11    1    4    4    0    0  0.15263566230E-01 -0.34780981692E-01  0.13084457257E-01  0.40176576313E-01  0.51100000000E-03 0.  1.
</event>
<event>
 8    1  0.2190295E+004  0.1043930E+01  0.7957747E-01            NaN
         13   -1    0    0    0    0  0.00000000000E+00  0.00000000000E+00  0.74505805969E-08  0.10566000000E+00  0.10566000000E+00 0. -1.
     999900   -1    0    0    0    0 -0.00000000000E+00 -0.00000000000E+00 -0.74505805969E-08  0.93827000000E+00  0.93827000000E+00 0.  1.
     999902    2    1    2    0    0  0.23798552662E-02  0.10891039962E-01 -0.11003960960E-01  0.10282658492E+01  0.10281465319E+01 0.  0.
     999903    2    3    3    0    0 -0.80001562420E-01  0.75151016543E-01  0.71460398142E-01  0.13825662844E+00  0.44276195948E-01 0.  0.
         14    1    1    2    0    0 -0.23798552662E-02 -0.10891039962E-01  0.11003960960E-01  0.15664150771E-01  0.00000000000E+00 0. -1.
     999901    1    3    3    0    0  0.82381417686E-01 -0.64259976581E-01 -0.82464359102E-01  0.89000922079E+00  0.88000000000E+00 0.  1.
        -11    1    4    4    0    0 -0.31599198971E-01  0.12946813074E-01  0.37688860534E-02  0.34359787070E-01  0.51100000000E-03 0. -1.
         11    1    4    4    0    0 -0.48402363448E-01  0.62204203469E-01  0.67691512089E-01  0.10389684137E+00  0.51100000000E-03 0.  1.
</event>
<event>
 8    1  0.2190295E+004  0.1043930E+01  0.7957747E-01            NaN
         13   -1    0    0    0    0  0.00000000000E+00  0.00000000000E+00  0.74505805969E-08  0.10566000000E+00  0.10566000000E+00 0.  1.
     999900   -1    0    0    0    0 -0.00000000000E+00 -0.00000000000E+00 -0.74505805969E-08  0.93827000000E+00  0.93827000000E+00 0.  1.
     999902    2    1    2    0    0  0.10722197630E-01  0.46845911298E-02 -0.74196578942E-02  0.10300749562E+01  0.10299817732E+01 0.  0.
     999903    2    3    3    0    0 -0.60622152601E-02 -0.22447627561E-01 -0.13194982191E+00  0.14073495620E+00  0.43068851358E-01 0.  0.
         14    1    1    2    0    0 -0.10722197630E-01 -0.46845911298E-02  0.74196578942E-02  0.13855043823E-01  0.00000000000E+00 0.  1.
     999901    1    3    3    0    0  0.16784412890E-01  0.27132218691E-01  0.12453016402E+00  0.88933999998E+00  0.88000000000E+00 0. -1.
        -11    1    4    4    0    0 -0.21441176482E-01 -0.10206266270E-01 -0.38486440904E-01  0.45225647310E-01  0.51100000000E-03 0. -1.
         11    1    4    4    0    0  0.15378961222E-01 -0.12241361292E-01 -0.93463381007E-01  0.95509308891E-01  0.51100000000E-03 0.  1.
</event>
<event>
 8    1  0.2190295E+004  0.1043930E+01  0.7957747E-01            NaN
         13   -1    0    0    0    0  0.00000000000E+00  0.00000000000E+00  0.74505805969E-08  0.10566000000E+00  0.10566000000E+00 0. -1.
     999900   -1    0    0    0    0 -0.00000000000E+00 -0.00000000000E+00 -0.74505805969E-08  0.93827000000E+00  0.93827000000E+00 0. -1.
     999902    2    1    2    0    0  0.11931595102E-01  0.10973789366E-02  0.64101535564E-02  0.10303411343E+01  0.10302515206E+01 0.  0.
     999903    2    3    3    0    0 -0.11104470770E+00 -0.48875122367E-01  0.51442840411E-01  0.13924721960E+00  0.44985749331E-01 0.  0.
         14    1    1    2    0    0 -0.11931595102E-01 -0.10973789366E-02 -0.64101535564E-02  0.13588865693E-01  0.00000000000E+00 0.  1.
     999901    1    3    3    0    0  0.12297630280E+00  0.49972501303E-01 -0.45032686854E-01  0.89109391470E+00  0.88000000000E+00 0. -1.
        -11    1    4    4    0    0 -0.35885089507E-01  0.74180068538E-03  0.29720287320E-01  0.46603074111E-01  0.51100000000E-03 0.  1.
         11    1    4    4    0    0 -0.75159618194E-01 -0.49616923052E-01  0.21722553091E-01  0.92644145492E-01  0.51100000000E-03 0. -1.
</event>
<event>
 8    1  0.2190295E+004  0.1043930E+01  0.7957747E-01            NaN
         13   -1    0    0    0    0  0.00000000000E+00  0.00000000000E+00  0.74505805969E-08  0.10566000000E+00  0.10566000000E+00 0.  1.
     999900   -1    0    0    0    0 -0.00000000000E+00 -0.00000000000E+00 -0.74505805969E-08  0.93827000000E+00  0.93827000000E+00 0.  1.
     999902    2    1    2    0    0  0.11257657431E-01 -0.20964579733E-02  0.83015530483E-02  0.10297862463E+01  0.10296891119E+01 0.  0.
     999903    2    3    3    0    0 -0.65775844316E-01 -0.91681086925E-01  0.69393555962E-01  0.13979085360E+00  0.44655724669E-01 0.  0.
         14    1    1    2    0    0 -0.11257657431E-01  0.20964579733E-02 -0.83015530483E-02  0.14143753741E-01  0.00000000000E+00 0. -1.
     999901    1    3    3    0    0  0.77033501747E-01  0.89584628952E-01 -0.61092002914E-01  0.88999539266E+00  0.88000000000E+00 0.  1.
        -11    1    4    4    0    0 -0.28988906853E-01 -0.26196435574E-01  0.24090413021E-02  0.39149387713E-01  0.51100000000E-03 0.  1.
         11    1    4    4    0    0 -0.36786937463E-01 -0.65484651351E-01  0.66984514660E-01  0.10064146589E+00  0.51100000000E-03 0. -1.
</event>
<event>
 8    1  0.2190295E+004  0.1043930E+01  0.7957747E-01            NaN
         13   -1    0    0    0    0  0.00000000000E+00  0.00000000000E+00  0.74505805969E-08  0.10566000000E+00  0.10566000000E+00 0.  1.
     999900   -1    0    0    0    0 -0.00000000000E+00 -0.00000000000E+00 -0.74505805969E-08  0.93827000000E+00  0.93827000000E+00 0. -1.
     999902    2    1    2    0    0 -0.29261497823E-02 -0.77493497670E-02  0.10789201749E-01  0.10303277337E+01  0.10302379420E+01 0.  0.
     999903    2    3    3    0    0 -0.37959241293E-01  0.88353520119E-01  0.92796714755E-01  0.14061524570E+00  0.43751211828E-01 0.  0.
         14    1    1    2    0    0  0.29261497823E-02  0.77493497670E-02 -0.10789201749E-01  0.13602266309E-01  0.00000000000E+00 0. -1.
     999901    1    3    3    0    0  0.35033091511E-01 -0.96102869886E-01 -0.82007513006E-01  0.88971248799E+00  0.88000000000E+00 0. -1.
        -11    1    4    4    0    0  0.94941062132E-02  0.21837360967E-01  0.23809778211E-01  0.33677515441E-01  0.51100000000E-03 0.  1.
         11    1    4    4    0    0 -0.47453347506E-01  0.66516159153E-01  0.68986936544E-01  0.10693773026E+00  0.51100000000E-03 0. -1.
</event>
<event>
 8    1  0.2190295E+004  0.1043930E+01  0.7957747E-01            NaN
         13   -1    0    0    0    0  0.00000000000E+00  0.00000000000E+00  0.74505805969E-08  0.10566000000E+00  0.10566000000E+00 0. -1.
     999900   -1    0    0    0    0 -0.00000000000E+00 -0.00000000000E+00 -0.74505805969E-08  0.93827000000E+00  0.93827000000E+00 0.  1.
     999902    2    1    2    0    0 -0.28240444807E-03 -0.13784477468E-01  0.13777244233E-02  0.10300739654E+01  0.10299807690E+01 0.  0.
     999903    2    3    3    0    0  0.20959287618E-01 -0.11783794031E+00  0.54428732235E-01  0.14210282729E+00  0.53904125246E-01 0.  0.
         14    1    1    2    0    0  0.28240444807E-03  0.13784477468E-01 -0.13777244233E-02  0.13856034640E-01  0.00000000000E+00 0. -1.
     999901    1    3    3    0    0 -0.21241692066E-01  0.10405346284E+00 -0.53051007812E-01  0.88797113807E+00  0.88000000000E+00 0.  1.
        -11    1    4    4    0    0  0.37024917005E-01 -0.97184768219E-01  0.50590210748E-01  0.11565186638E+00  0.51100000000E-03 0. -1.
         11    1    4    4    0    0 -0.16065629387E-01 -0.20653172088E-01  0.38385214872E-02  0.26450960911E-01  0.51100000000E-03 0.  1.
</event>
<event>
 8    1  0.2190295E+004  0.1043930E+01  0.7957747E-01            NaN
         13   -1    0    0    0    0  0.00000000000E+00  0.00000000000E+00  0.74505805969E-08  0.10566000000E+00  0.10566000000E+00 0.  1.
     999900   -1    0    0    0    0 -0.00000000000E+00 -0.00000000000E+00 -0.74505805969E-08  0.93827000000E+00  0.93827000000E+00 0.  1.
     999902    2    1    2    0    0  0.12172740024E-01 -0.41300492374E-03 -0.91437949692E-02  0.10286999258E+01  0.10285871778E+01 0.  0.
     999903    2    3    3    0    0 -0.30430455751E-01  0.12271763814E+00 -0.34435021116E-01  0.13874721154E+00  0.45600292585E-01 0.  0.
         14    1    1    2    0    0 -0.12172740024E-01  0.41300492374E-03  0.91437949692E-02  0.15230074169E-01  0.00000000000E+00 0. -1.
     999901    1    3    3    0    0  0.42603195775E-01 -0.12313064306E+00  0.25291226147E-01  0.88995271429E+00  0.88000000000E+00 0.  1.
        -11    1    4    4    0    0  0.43791435648E-03  0.90766044523E-02 -0.17567734619E-01  0.19785422361E-01  0.51100000000E-03 0.  1.
         11    1    4    4    0    0 -0.30868370108E-01  0.11364103369E+00 -0.16867286497E-01  0.11896178918E+00  0.51100000000E-03 0. -1.
</event>
<event>
 7    1  0.2190295E+004  0.1043930E+01  0.7957747E-01            NaN
         13   -1    0    0    0    0  0.00000000000E+00  0.00000000000E+00  0.74505805969E-08  0.10566000000E+00  0.10566000000E+00 0.  1.
     999900   -1    0    0    0    0 -0.00000000000E+00 -0.00000000000E+00 -0.74505805969E-08  0.93827000000E+00  0.93827000000E+00 0.  1.
     999903    2    1    2    0    0 -0.11131142728E+00 -0.11367330047E-01  0.20567434982E-01  0.12253708511E+00  0.45528758060E-01 0.  0.
         14    1    1    2    0    0  0.26349286629E-01  0.96512976309E-02  0.22917640939E-01  0.36230521913E-01  0.00000000000E+00 0.  1.
     999901    1    1    2    0    0  0.84962140650E-01  0.17160324164E-02 -0.43485075921E-01  0.88516239298E+00  0.88000000000E+00 0.  1.
        -11    1    3    3    0    0 -0.69315330317E-01  0.29253950603E-02 -0.78958923699E-02  0.69826779895E-01  0.51100000000E-03 0.  1.
         11    1    3    3    0    0 -0.41996096963E-01 -0.14292725108E-01  0.28463327352E-01  0.52710305217E-01  0.51100000000E-03 0. -1.
</event>
<event>
 8    1  0.2190295E+004  0.1043930E+01  0.7957747E-01            NaN
         13   -1    0    0    0    0  0.00000000000E+00  0.00000000000E+00  0.74505805969E-08  0.10566000000E+00  0.10566000000E+00 0. -1.
     999900   -1    0    0    0    0 -0.00000000000E+00 -0.00000000000E+00 -0.74505805969E-08  0.93827000000E+00  0.93827000000E+00 0. -1.
     999902    2    1    2    0    0 -0.19919008846E-02 -0.10361823990E-01 -0.89534974759E-02  0.10300916409E+01  0.10299986837E+01 0.  0.
     999903    2    3    3    0    0 -0.97322820531E-02  0.10164968342E+00 -0.84155900767E-01  0.13977602678E+00  0.45030507136E-01 0.  0.
         14    1    1    2    0    0  0.19919008846E-02  0.10361823990E-01  0.89534974759E-02  0.13838359100E-01  0.00000000000E+00 0. -1.
     999901    1    3    3    0    0  0.77403811685E-02 -0.11201150741E+00  0.75202403292E-01  0.89031561412E+00  0.88000000000E+00 0.  1.
        -11    1    4    4    0    0 -0.23876286343E-01  0.28923998681E-01 -0.27778402015E-01  0.46675212787E-01  0.51100000000E-03 0.  1.
         11    1    4    4    0    0  0.14144004290E-01  0.72725684743E-01 -0.56377498752E-01  0.93100813988E-01  0.51100000000E-03 0. -1.
</event>
<event>
 8    1  0.2190295E+004  0.1043930E+01  0.7957747E-01            NaN
         13   -1    0    0    0    0  0.00000000000E+00  0.00000000000E+00  0.74505805969E-08  0.10566000000E+00  0.10566000000E+00 0. -1.
     999900   -1    0    0    0    0 -0.00000000000E+00 -0.00000000000E+00 -0.74505805969E-08  0.93827000000E+00  0.93827000000E+00 0.  1.
     999902    2    1    2    0    0 -0.71654220863E-03  0.98249869960E-02 -0.12066978217E-01  0.10283525880E+01  0.10282345984E+01 0.  0.
     999903    2    3    3    0    0 -0.11295057633E+00 -0.63676807536E-01 -0.15674757801E-01  0.13817731967E+00  0.45107705877E-01 0.  0.
         14    1    1    2    0    0  0.71654220863E-03 -0.98249869960E-02  0.12066978217E-01  0.15577412028E-01  0.00000000000E+00 0. -1.
     999901    1    3    3    0    0  0.11223403412E+00  0.73501794532E-01  0.36077795844E-02  0.89017526830E+00  0.88000000000E+00 0. -1.
        -11    1    4    4    0    0 -0.49338800592E-01 -0.45561194586E-01 -0.24414212671E-01  0.71459461216E-01  0.51100000000E-03 0.  1.
         11    1    4    4    0    0 -0.63611775736E-01 -0.18115612951E-01  0.87394548699E-02  0.66717858459E-01  0.51100000000E-03 0. -1.
</event>
<event>
 8    1  0.2190295E+004  0.1043930E+01  0.7957747E-01            NaN
         13   -1    0    0    0    0  0.00000000000E+00  0.00000000000E+00  0.74505805969E-08  0.10566000000E+00  0.10566000000E+00 0.  1.
     999900   -1    0    0    0    0 -0.00000000000E+00 -0.00000000000E+00 -0.74505805969E-08  0.93827000000E+00  0.93827000000E+00 0.  1.
     999902    2    1    2    0    0  0.12604875170E-01  0.74203511600E-02 -0.17198126777E-02  0.10292023985E+01  0.10290970192E+01 0.  0.
     999903    2    3    3    0    0  0.12782559304E+00  0.32954621575E-01 -0.19994474730E-01  0.14113608565E+00  0.45762717731E-01 0.  0.
         14    1    1    2    0    0 -0.12604875170E-01 -0.74203511600E-02  0.17198126777E-02  0.14727601469E-01  0.00000000000E+00 0.  1.
     999901    1    3    3    0    0 -0.11522071787E+00 -0.25534270415E-01  0.18274662052E-01  0.88806631288E+00  0.88000000000E+00 0.  1.
        -11    1    4    4    0    0  0.51402674699E-01  0.86825117461E-02  0.14093741925E-01  0.54004774409E-01  0.51100000000E-03 0. -1.
         11    1    4    4    0    0  0.76422918344E-01  0.24272109829E-01 -0.34088216655E-01  0.87131311246E-01  0.51100000000E-03 0.  1.
</event>
<event>
 8    1  0.2190295E+004  0.1043930E+01  0.7957747E-01            NaN
         13   -1    0    0    0    0  0.00000000000E+00  0.00000000000E+00  0.74505805969E-08  0.10566000000E+00  0.10566000000E+00 0. -1.
     999900   -1    0    0    0    0 -0.00000000000E+00 -0.00000000000E+00 -0.74505805969E-08  0.93827000000E+00  0.93827000000E+00 0. -1.
     999902    2    1    2    0    0 -0.15119968852E-02 -0.69789153548E-02  0.11793656655E-01  0.10301429869E+01  0.10300507228E+01 0.  0.
     999903    2    3    3    0    0 -0.81446298200E-01 -0.93540392520E-01 -0.47549500554E-01  0.14030929893E+00  0.45193360585E-01 0.  0.
         14    1    1    2    0    0  0.15119968852E-02  0.69789153548E-02 -0.11793656655E-01  0.13787013143E-01  0.00000000000E+00 0. -1.
     999901    1    3    3    0    0  0.79934301315E-01  0.86561477165E-01  0.59343157209E-01  0.88983368792E+00  0.88000000000E+00 0.  1.
        -11    1    4    4    0    0  0.10326216987E-02 -0.15093977195E-01 -0.16351904698E-01  0.22283185665E-01  0.51100000000E-03 0.  1.
         11    1    4    4    0    0 -0.82478919899E-01 -0.78446415325E-01 -0.31197595856E-01  0.11802611327E+00  0.51100000000E-03 0. -1.
</event>
<event>
 8    1  0.2190295E+004  0.1043930E+01  0.7957747E-01            NaN
         13   -1    0    0    0    0  0.00000000000E+00  0.00000000000E+00  0.74505805969E-08  0.10566000000E+00  0.10566000000E+00 0. -1.
     999900   -1    0    0    0    0 -0.00000000000E+00 -0.00000000000E+00 -0.74505805969E-08  0.93827000000E+00  0.93827000000E+00 0. -1.
     999902    2    1    2    0    0  0.91276186562E-02  0.20325398757E-02  0.11060977964E-01  0.10294458751E+01  0.10293439755E+01 0.  0.
     999903    2    3    3    0    0 -0.11357708590E+00  0.35406152473E-01  0.56569801367E-01  0.13914182841E+00  0.44799061526E-01 0.  0.
         14    1    1    2    0    0 -0.91276186562E-02 -0.20325398757E-02 -0.11060977964E-01  0.14484124902E-01  0.00000000000E+00 0.  1.
     999901    1    3    3    0    0  0.12270470455E+00 -0.33373612598E-01 -0.45508823403E-01  0.89030404669E+00  0.88000000000E+00 0.  1.
        -11    1    4    4    0    0 -0.20754574374E-01  0.22474333538E-01  0.27169660102E-01  0.40918205930E-01  0.51100000000E-03 0. -1.
         11    1    4    4    0    0 -0.92822511522E-01  0.12931818935E-01  0.29400141265E-01  0.98223622482E-01  0.51100000000E-03 0.  1.
</event>
<event>
 8    1  0.2190295E+004  0.1043930E+01  0.7957747E-01            NaN
         13   -1    0    0    0    0  0.00000000000E+00  0.00000000000E+00  0.74505805969E-08  0.10566000000E+00  0.10566000000E+00 0.  1.
     999900   -1    0    0    0    0 -0.00000000000E+00 -0.00000000000E+00 -0.74505805969E-08  0.93827000000E+00  0.93827000000E+00 0. -1.
     999902    2    1    2    0    0  0.23545553088E-02  0.87803103770E-02  0.10756704762E-01  0.10298465175E+01  0.10297502150E+01 0.  0.
     999903    2    3    3    0    0  0.10205803690E+00  0.48839946513E-02  0.86473560715E-01  0.14097700642E+00  0.44239612748E-01 0.  0.
         14    1    1    2    0    0 -0.23545553088E-02 -0.87803103770E-02 -0.10756704762E-01  0.14083482466E-01  0.00000000000E+00 0. -1.
     999901    1    3    3    0    0 -0.99703481592E-01  0.38963157257E-02 -0.75716855952E-01  0.88886951112E+00  0.88000000000E+00 0.  1.
        -11    1    4    4    0    0  0.88731473059E-01 -0.47165309957E-02  0.52425155469E-01  0.10317062578E+00  0.51100000000E-03 0. -1.
         11    1    4    4    0    0  0.13326563841E-01  0.96005256470E-02  0.34048405246E-01  0.37806380642E-01  0.51100000000E-03 0.  1.
</event>
<event>
 8    1  0.2190295E+004  0.1043930E+01  0.7957747E-01            NaN
         13   -1    0    0    0    0  0.00000000000E+00  0.00000000000E+00  0.74505805969E-08  0.10566000000E+00  0.10566000000E+00 0.  1.
     999900   -1    0    0    0    0 -0.00000000000E+00 -0.00000000000E+00 -0.74505805969E-08  0.93827000000E+00  0.93827000000E+00 0. -1.
     999902    2    1    2    0    0 -0.11452103188E-01  0.22212679042E-02  0.70571547955E-02  0.10302959202E+01  0.10302057052E+01 0.  0.
     999903    2    3    3    0    0 -0.37135190903E-02  0.18494552000E-01  0.13252979563E+00  0.14121319678E+00  0.44957552612E-01 0.  0.
         14    1    1    2    0    0  0.11452103188E-01 -0.22212679042E-02 -0.70571547955E-02  0.13634079813E-01  0.00000000000E+00 0. -1.
     999901    1    3    3    0    0 -0.77385840979E-02 -0.16273284096E-01 -0.12547264084E+00  0.88908272341E+00  0.88000000000E+00 0. -1.
        -11    1    4    4    0    0 -0.17497068445E-01  0.22966668915E-03  0.20908607777E-01  0.27269601228E-01  0.51100000000E-03 0.  1.
         11    1    4    4    0    0  0.13783549354E-01  0.18264885311E-01  0.11162118786E+00  0.11394359555E+00  0.51100000000E-03 0. -1.
</event>
<event>
 8    1  0.2190295E+004  0.1043930E+01  0.7957747E-01            NaN
         13   -1    0    0    0    0  0.00000000000E+00  0.00000000000E+00  0.74505805969E-08  0.10566000000E+00  0.10566000000E+00 0. -1.
     999900   -1    0    0    0    0 -0.00000000000E+00 -0.00000000000E+00 -0.74505805969E-08  0.93827000000E+00  0.93827000000E+00 0. -1.
     999902    2    1    2    0    0  0.52040528584E-02  0.92435584803E-02 -0.97294754454E-02  0.10295359654E+01  0.10294353383E+01 0.  0.
     999903    2    3    3    0    0 -0.61331554556E-01 -0.44103382349E-01  0.10592007138E+00  0.13788149150E+00  0.45668109867E-01 0.  0.
         14    1    1    2    0    0 -0.52040528584E-02 -0.92435584803E-02  0.97294754454E-02  0.14394034597E-01  0.00000000000E+00 0. -1.
     999901    1    3    3    0    0  0.66535607414E-01  0.53346940829E-01 -0.11564954682E+00  0.89165447390E+00  0.88000000000E+00 0.  1.
        -11    1    4    4    0    0 -0.82700518922E-02 -0.22571228441E-01  0.59465342952E-01  0.64142359210E-01  0.51100000000E-03 0. -1.
         11    1    4    4    0    0 -0.53061502663E-01 -0.21532153908E-01  0.46454728426E-01  0.73739132290E-01  0.51100000000E-03 0.  1.
</event>
<event>
 8    1  0.2190295E+004  0.1043930E+01  0.7957747E-01            NaN
         13   -1    0    0    0    0  0.00000000000E+00  0.00000000000E+00  0.74505805969E-08  0.10566000000E+00  0.10566000000E+00 0.  1.
     999900   -1    0    0    0    0 -0.00000000000E+00 -0.00000000000E+00 -0.74505805969E-08  0.93827000000E+00  0.93827000000E+00 0. -1.
     999902    2    1    2    0    0 -0.81504619476E-02 -0.10468192711E-01 -0.35003865367E-02  0.10302090017E+01  0.10301176250E+01 0.  0.
     999903    2    3    3    0    0  0.10151800723E+00 -0.32879169950E-01 -0.78780302346E-01  0.13993011800E+00  0.44577531074E-01 0.  0.
         14    1    1    2    0    0  0.81504619476E-02  0.10468192711E-01  0.35003865367E-02  0.13720998305E-01  0.00000000000E+00 0. -1.
     999901    1    3    3    0    0 -0.10966846918E+00  0.22410977239E-01  0.75279915810E-01  0.89027888370E+00  0.88000000000E+00 0. -1.
        -11    1    4    4    0    0  0.58314425085E-01 -0.23992572361E-01 -0.71307615281E-01  0.95190613086E-01  0.51100000000E-03 0. -1.
         11    1    4    4    0    0  0.43203582144E-01 -0.88865975889E-02 -0.74726870649E-02  0.44739504912E-01  0.51100000000E-03 0.  1.
</event>
<event>
 8    1  0.2190295E+004  0.1043930E+01  0.7957747E-01            NaN
         13   -1    0    0    0    0  0.00000000000E+00  0.00000000000E+00  0.74505805969E-08  0.10566000000E+00  0.10566000000E+00 0.  1.
     999900   -1    0    0    0    0 -0.00000000000E+00 -0.00000000000E+00 -0.74505805969E-08  0.93827000000E+00  0.93827000000E+00 0. -1.
     999902    2    1    2    0    0  0.78336900960E-03  0.11262070260E-02 -0.13510139628E-01  0.10303503873E+01  0.10302608964E+01 0.  0.
     999903    2    3    3    0    0  0.21053199591E-01 -0.26163172143E-01  0.12671797117E+00  0.13859958165E+00  0.44996122351E-01 0.  0.
         14    1    1    2    0    0 -0.78336900960E-03 -0.11262070260E-02  0.13510139628E-01  0.13579612736E-01  0.00000000000E+00 0.  1.
     999901    1    3    3    0    0 -0.20269830581E-01  0.27289379169E-01 -0.14022811080E+00  0.89175080561E+00  0.88000000000E+00 0. -1.
        -11    1    4    4    0    0  0.86045398940E-02  0.12257137906E-01  0.45294948129E-01  0.47709212773E-01  0.51100000000E-03 0. -1.
         11    1    4    4    0    0  0.12448659697E-01 -0.38420310049E-01  0.81423023045E-01  0.90890368881E-01  0.51100000000E-03 0.  1.
</event>
<event>
 8    1  0.2278271E+004  0.1043930E+01  0.7957747E-01            NaN
         13   -1    0    0    0    0  0.00000000000E+00  0.00000000000E+00  0.74505805969E-08  0.10566000000E+00  0.10566000000E+00 0.  1.
     999900   -1    0    0    0    0 -0.00000000000E+00 -0.00000000000E+00 -0.74505805969E-08  0.93827000000E+00  0.93827000000E+00 0.  1.
     999902    2    1    2    0    0  0.35133664885E-03  0.13826120508E-01 -0.31560552315E-02  0.10297438895E+01  0.10296461685E+01 0.  0.
     999903    2    3    3    0    0  0.13529507937E-01 -0.12399404394E+00  0.38161945274E-01  0.13796183146E+00  0.44939541100E-01 0.  0.
         14    1    1    2    0    0 -0.35133664885E-03 -0.13826120508E-01  0.31560552315E-02  0.14186110474E-01  0.00000000000E+00 0.  1.
     999901    1    3    3    0    0 -0.13178171288E-01  0.13782016445E+00 -0.41318000506E-01  0.89178205807E+00  0.88000000000E+00 0.  1.
        -11    1    4    4    0    0  0.24785839507E-01 -0.37886936497E-01  0.76654967809E-02  0.45921441169E-01  0.51100000000E-03 0.  1.
         11    1    4    4    0    0 -0.11256331570E-01 -0.86107107444E-01  0.30496448493E-01  0.92040390288E-01  0.51100000000E-03 0. -1.
</event>
<event>
 8    1  0.2190295E+004  0.1043930E+01  0.7957747E-01            NaN
         13   -1    0    0    0    0  0.00000000000E+00  0.00000000000E+00  0.74505805969E-08  0.10566000000E+00  0.10566000000E+00 0.  1.
     999900   -1    0    0    0    0 -0.00000000000E+00 -0.00000000000E+00 -0.74505805969E-08  0.93827000000E+00  0.93827000000E+00 0. -1.
     999902    2    1    2    0    0  0.84126687008E-02  0.91962869875E-02  0.64209382666E-02  0.10299095458E+01  0.10298141091E+01 0.  0.
     999903    2    3    3    0    0  0.13141300582E+00 -0.18223235460E-01  0.12238750688E-01  0.14091305528E+00  0.45882869578E-01 0.  0.
         14    1    1    2    0    0 -0.84126687008E-02 -0.91962869875E-02 -0.64209382666E-02  0.14020454246E-01  0.00000000000E+00 0. -1.
     999901    1    3    3    0    0 -0.12300033711E+00  0.27419522448E-01 -0.58178124212E-02  0.88899649048E+00  0.88000000000E+00 0.  1.
        -11    1    4    4    0    0  0.11091448948E+00 -0.28894524727E-01  0.20361204359E-01  0.11641201527E+00  0.51100000000E-03 0. -1.
         11    1    4    4    0    0  0.20498516333E-01  0.10671289267E-01 -0.81224536716E-02  0.24501040001E-01  0.51100000000E-03 0.  1.
</event>
<event>
 8    1  0.2190295E+004  0.1043930E+01  0.7957747E-01            NaN
         13   -1    0    0    0    0  0.00000000000E+00  0.00000000000E+00  0.74505805969E-08  0.10566000000E+00  0.10566000000E+00 0. -1.
     999900   -1    0    0    0    0 -0.00000000000E+00 -0.00000000000E+00 -0.74505805969E-08  0.93827000000E+00  0.93827000000E+00 0. -1.
     999902    2    1    2    0    0 -0.20525006935E-02 -0.10787320763E-01  0.36730266319E-02  0.10323511325E+01  0.10322861961E+01 0.  0.
     999903    2    3    3    0    0 -0.48225480713E-01 -0.11483098099E+00  0.55855564337E-01  0.14348666331E+00  0.44234910376E-01 0.  0.
         14    1    1    2    0    0  0.20525006935E-02  0.10787320763E-01 -0.36730266319E-02  0.11578867517E-01  0.00000000000E+00 0. -1.
     999901    1    3    3    0    0  0.46172980020E-01  0.10404366022E+00 -0.52182537705E-01  0.88886446917E+00  0.88000000000E+00 0.  1.
        -11    1    4    4    0    0 -0.93016733931E-02 -0.69646201943E-01  0.43307672343E-01  0.82540475997E-01  0.51100000000E-03 0. -1.
         11    1    4    4    0    0 -0.38923807320E-01 -0.45184779044E-01  0.12547891994E-01  0.60946187314E-01  0.51100000000E-03 0.  1.
</event>
<event>
 8    1  0.2190295E+004  0.1043930E+01  0.7957747E-01            NaN
         13   -1    0    0    0    0  0.00000000000E+00  0.00000000000E+00  0.74505805969E-08  0.10566000000E+00  0.10566000000E+00 0.  1.
     999900   -1    0    0    0    0 -0.00000000000E+00 -0.00000000000E+00 -0.74505805969E-08  0.93827000000E+00  0.93827000000E+00 0. -1.
     999902    2    1    2    0    0 -0.47299032925E-02 -0.30702927344E-03  0.14000309199E-01  0.10291491032E+01  0.10290429543E+01 0.  0.
     999903    2    3    3    0    0  0.77598488808E-01 -0.92670929581E-01  0.44033071208E-01  0.13998600174E+00  0.55206364388E-01 0.  0.
         14    1    1    2    0    0  0.47299032925E-02  0.30702927344E-03 -0.14000309199E-01  0.14780896786E-01  0.00000000000E+00 0. -1.
     999901    1    3    3    0    0 -0.82328392101E-01  0.92363900308E-01 -0.30032762010E-01  0.88916310147E+00  0.88000000000E+00 0. -1.
        -11    1    4    4    0    0  0.45118138334E-01 -0.83270404082E-01  0.47569184936E-01  0.10598440960E+00  0.51100000000E-03 0. -1.
         11    1    4    4    0    0  0.32480350475E-01 -0.94005254998E-02 -0.35361137280E-02  0.34001592138E-01  0.51100000000E-03 0.  1.
</event>
<event>
 8    1  0.2190295E+004  0.1043930E+01  0.7957747E-01            NaN
         13   -1    0    0    0    0  0.00000000000E+00  0.00000000000E+00  0.74505805969E-08  0.10566000000E+00  0.10566000000E+00 0. -1.
     999900   -1    0    0    0    0 -0.00000000000E+00 -0.00000000000E+00 -0.74505805969E-08  0.93827000000E+00  0.93827000000E+00 0.  1.
     999902    2    1    2    0    0 -0.15340141683E-01 -0.20138382853E-01 -0.47219694936E-02  0.10181778854E+01  0.10178521675E+01 0.  0.
     999903    2    3    3    0    0 -0.21940737332E-01 -0.45187389539E-01  0.11165502368E+00  0.13013811988E+00  0.44111107490E-01 0.  0.
         14    1    1    2    0    0  0.15340141683E-01  0.20138382853E-01  0.47219694936E-02  0.25752114606E-01  0.00000000000E+00 0.  1.
     999901    1    3    3    0    0  0.66005956491E-02  0.25049006686E-01 -0.11637699317E+00  0.88803976552E+00  0.88000000000E+00 0.  1.
        -11    1    4    4    0    0 -0.49936933741E-02 -0.98558696220E-02  0.77103135767E-01  0.77892424572E-01  0.51100000000E-03 0. -1.
         11    1    4    4    0    0 -0.16947043958E-01 -0.35331519917E-01  0.34551887913E-01  0.52245695305E-01  0.51100000000E-03 0.  1.
</event>
<event>
 8    1  0.2190295E+004  0.1043930E+01  0.7957747E-01            NaN
         13   -1    0    0    0    0  0.00000000000E+00  0.00000000000E+00  0.74505805969E-08  0.10566000000E+00  0.10566000000E+00 0.  1.
     999900   -1    0    0    0    0 -0.00000000000E+00 -0.00000000000E+00 -0.74505805969E-08  0.93827000000E+00  0.93827000000E+00 0. -1.
     999902    2    1    2    0    0  0.51170202523E-02  0.12905946750E-01  0.22415150378E-02  0.10298668657E+01  0.10297708431E+01 0.  0.
     999903    2    3    3    0    0  0.13262550284E+00 -0.29059394719E-02  0.27130684354E-02  0.14053641457E+00  0.46315813611E-01 0.  0.
         14    1    1    2    0    0 -0.51170202523E-02 -0.12905946750E-01 -0.22415150378E-02  0.14063134339E-01  0.00000000000E+00 0. -1.
     999901    1    3    3    0    0 -0.12750848259E+00  0.15811886222E-01 -0.47155339761E-03  0.88933045109E+00  0.88000000000E+00 0. -1.
        -11    1    4    4    0    0  0.47304829268E-01 -0.19807496015E-01 -0.11078241963E-01  0.52469727810E-01  0.51100000000E-03 0.  1.
         11    1    4    4    0    0  0.85320673576E-01  0.16901556543E-01  0.13791310398E-01  0.88066686758E-01  0.51100000000E-03 0. -1.
</event>
<event>
 8    1  0.2190295E+004  0.1043930E+01  0.7957747E-01            NaN
         13   -1    0    0    0    0  0.00000000000E+00  0.00000000000E+00  0.74505805969E-08  0.10566000000E+00  0.10566000000E+00 0. -1.
     999900   -1    0    0    0    0 -0.00000000000E+00 -0.00000000000E+00 -0.74505805969E-08  0.93827000000E+00  0.93827000000E+00 0.  1.
     999902    2    1    2    0    0 -0.80977737914E-02  0.10184489845E-01 -0.40047648035E-02  0.10303161866E+01  0.10302262414E+01 0.  0.
     999903    2    3    3    0    0 -0.95866955583E-01  0.79516479530E-01 -0.51019140006E-01  0.14199152438E+00  0.45224956138E-01 0.  0.
         14    1    1    2    0    0  0.80977737914E-02 -0.10184489845E-01  0.40047648035E-02  0.13613813386E-01  0.00000000000E+00 0. -1.
     999901    1    3    3    0    0  0.87769181792E-01 -0.69331989686E-01  0.47014375203E-01  0.88832466224E+00  0.88000000000E+00 0. -1.
        -11    1    4    4    0    0 -0.56790900307E-01  0.53197345847E-01 -0.80630670659E-02  0.78233229093E-01  0.51100000000E-03 0. -1.
         11    1    4    4    0    0 -0.39076055276E-01  0.26319133684E-01 -0.42956072941E-01  0.63758295282E-01  0.51100000000E-03 0.  1.
</event>
<event>
 8    1  0.2704854E+004  0.1043930E+01  0.7957747E-01            NaN
         13   -1    0    0    0    0  0.00000000000E+00  0.00000000000E+00  0.74505805969E-08  0.10566000000E+00  0.10566000000E+00 0.  1.
     999900   -1    0    0    0    0 -0.00000000000E+00 -0.00000000000E+00 -0.74505805969E-08  0.93827000000E+00  0.93827000000E+00 0.  1.
     999902    2    1    2    0    0  0.22705797428E-01 -0.62886448947E-02 -0.90105563325E-02  0.10187052023E+01  0.10183928509E+01 0.  0.
     999903    2    3    3    0    0 -0.72248913606E-01  0.27442894478E-01  0.90631853859E-01  0.12736754253E+00  0.45114742391E-01 0.  0.
         14    1    1    2    0    0 -0.22705797428E-01  0.62886448947E-02  0.90105563325E-02  0.25224797658E-01  0.00000000000E+00 0. -1.
     999901    1    3    3    0    0  0.94954711034E-01 -0.33731539373E-01 -0.99642410191E-01  0.89133765982E+00  0.88000000000E+00 0.  1.
        -11    1    4    4    0    0 -0.26623085778E-01 -0.10786039484E-01  0.39827855304E-01  0.49108517827E-01  0.51100000000E-03 0. -1.
         11    1    4    4    0    0 -0.45625827829E-01  0.38228933962E-01  0.50803998554E-01  0.78259024700E-01  0.51100000000E-03 0.  1.
</event>
<event>
 8    1  0.2190295E+004  0.1043930E+01  0.7957747E-01            NaN
         13   -1    0    0    0    0  0.00000000000E+00  0.00000000000E+00  0.74505805969E-08  0.10566000000E+00  0.10566000000E+00 0.  1.
     999900   -1    0    0    0    0 -0.00000000000E+00 -0.00000000000E+00 -0.74505805969E-08  0.93827000000E+00  0.93827000000E+00 0.  1.
     999902    2    1    2    0    0 -0.25083625662E-02 -0.20024419180E-02 -0.13876611236E-01  0.10296870370E+01  0.10295885256E+01 0.  0.
     999903    2    3    3    0    0 -0.30195620230E-01 -0.10927794770E+00 -0.71159047492E-01  0.14089240609E+00  0.43972886190E-01 0.  0.
         14    1    1    2    0    0  0.25083625662E-02  0.20024419180E-02  0.13876611236E-01  0.14242963027E-01  0.00000000000E+00 0.  1.
     999901    1    3    3    0    0  0.27687257664E-01  0.10727550578E+00  0.57282436256E-01  0.88879463088E+00  0.88000000000E+00 0. -1.
        -11    1    4    4    0    0 -0.19382134918E-02 -0.54522401623E-01 -0.12836770139E-01  0.56049020856E-01  0.51100000000E-03 0.  1.
         11    1    4    4    0    0 -0.28257406738E-01 -0.54755546077E-01 -0.58322277353E-01  0.84843385237E-01  0.51100000000E-03 0. -1.
</event>
<event>
 8    1  0.2190295E+004  0.1043930E+01  0.7957747E-01            NaN
         13   -1    0    0    0    0  0.00000000000E+00  0.00000000000E+00  0.74505805969E-08  0.10566000000E+00  0.10566000000E+00 0. -1.
     999900   -1    0    0    0    0 -0.00000000000E+00 -0.00000000000E+00 -0.74505805969E-08  0.93827000000E+00  0.93827000000E+00 0. -1.
     999902    2    1    2    0    0 -0.77914303290E-02  0.12902558457E-03  0.12575818630E-01  0.10291356008E+01  0.10290292564E+01 0.  0.
     999903    2    3    3    0    0  0.74059258415E-01 -0.68700013460E-01 -0.82019762676E-01  0.13762828400E+00  0.44831211013E-01 0.  0.
         14    1    1    2    0    0  0.77914303290E-02 -0.12902558457E-03 -0.12575818630E-01  0.14794399224E-01  0.00000000000E+00 0.  1.
     999901    1    3    3    0    0 -0.81850688744E-01  0.68829039044E-01  0.94595581306E-01  0.89150731678E+00  0.88000000000E+00 0.  1.
        -11    1    4    4    0    0  0.47803388000E-01 -0.42933781192E-01 -0.23327955368E-01  0.68358818702E-01  0.51100000000E-03 0. -1.
         11    1    4    4    0    0  0.26255870415E-01 -0.25766232268E-01 -0.58691807308E-01  0.69269465298E-01  0.51100000000E-03 0.  1.
</event>
<event>
 8    1  0.2190295E+004  0.1043930E+01  0.7957747E-01            NaN
         13   -1    0    0    0    0  0.00000000000E+00  0.00000000000E+00  0.74505805969E-08  0.10566000000E+00  0.10566000000E+00 0. -1.
     999900   -1    0    0    0    0 -0.00000000000E+00 -0.00000000000E+00 -0.74505805969E-08  0.93827000000E+00  0.93827000000E+00 0. -1.
     999902    2    1    2    0    0  0.12491158542E-01  0.21941167933E-02 -0.42018825837E-03  0.10312406443E+01  0.10311625704E+01 0.  0.
     999903    2    3    3    0    0 -0.44254632630E-01 -0.79404341822E-04 -0.12568873971E+00  0.14055693853E+00  0.44722643765E-01 0.  0.
         14    1    1    2    0    0 -0.12491158542E-01 -0.21941167933E-02  0.42018825837E-03  0.12689355713E-01  0.00000000000E+00 0.  1.
     999901    1    3    3    0    0  0.56745791172E-01  0.22735211351E-02  0.12526855145E+00  0.89068370575E+00  0.88000000000E+00 0.  1.
        -11    1    4    4    0    0 -0.14694366663E-01 -0.17405282598E-01 -0.81576837173E-01  0.84698935991E-01  0.51100000000E-03 0.  1.
         11    1    4    4    0    0 -0.29560265967E-01  0.17325878256E-01 -0.44111902537E-01  0.55858002541E-01  0.51100000000E-03 0. -1.
</event>
<event>
 7    1  0.2190295E+004  0.1043930E+01  0.7957747E-01            NaN
         13   -1    0    0    0    0  0.00000000000E+00  0.00000000000E+00  0.74505805969E-08  0.10566000000E+00  0.10566000000E+00 0.  1.
     999900   -1    0    0    0    0 -0.00000000000E+00 -0.00000000000E+00 -0.74505805969E-08  0.93827000000E+00  0.93827000000E+00 0. -1.
     999903    2    1    2    0    0 -0.74053125497E-01 -0.73932035435E-01  0.42112560778E-01  0.12081978471E+00  0.43291354133E-01 0.  0.
         14    1    1    2    0    0 -0.14406944020E-02  0.90208023982E-02 -0.36346690320E-01  0.37477091316E-01  0.00000000000E+00 0. -1.
     999901    1    1    2    0    0  0.75493819900E-01  0.64911233037E-01 -0.57658704579E-02  0.88563312397E+00  0.88000000000E+00 0. -1.
        -11    1    3    3    0    0 -0.54275020356E-01 -0.61750387359E-01  0.12466363798E-01  0.83153830465E-01  0.51100000000E-03 0.  1.
         11    1    3    3    0    0 -0.19778105141E-01 -0.12181648076E-01  0.29646196980E-01  0.37665954245E-01  0.51100000000E-03 0. -1.
</event>
<event>
 8    1  0.2190295E+004  0.1043930E+01  0.7957747E-01            NaN
         13   -1    0    0    0    0  0.00000000000E+00  0.00000000000E+00  0.74505805969E-08  0.10566000000E+00  0.10566000000E+00 0. -1.
     999900   -1    0    0    0    0 -0.00000000000E+00 -0.00000000000E+00 -0.74505805969E-08  0.93827000000E+00  0.93827000000E+00 0. -1.
     999902    2    1    2    0    0  0.10310802155E-01  0.97963508224E-02  0.20411926037E-02  0.10295617156E+01  0.10294614507E+01 0.  0.
     999903    2    3    3    0    0 -0.95625711658E-02  0.12809064981E+00 -0.35375476693E-01  0.14063624102E+00  0.45038545722E-01 0.  0.
         14    1    1    2    0    0 -0.10310802155E-01 -0.97963508224E-02 -0.20411926037E-02  0.14368284441E-01  0.00000000000E+00 0. -1.
     999901    1    3    3    0    0  0.19873373321E-01 -0.11829429899E+00  0.37416669297E-01  0.88892547454E+00  0.88000000000E+00 0.  1.
        -11    1    4    4    0    0 -0.21830105940E-01  0.67581203243E-01 -0.33941404510E-02  0.71102418156E-01  0.51100000000E-03 0.  1.
         11    1    4    4    0    0  0.12267534774E-01  0.60509446569E-01 -0.31981336242E-01  0.69533822866E-01  0.51100000000E-03 0. -1.
</event>
<event>
 8    1  0.2190295E+004  0.1043930E+01  0.7957747E-01            NaN
         13   -1    0    0    0    0  0.00000000000E+00  0.00000000000E+00  0.74505805969E-08  0.10566000000E+00  0.10566000000E+00 0.  1.
     999900   -1    0    0    0    0 -0.00000000000E+00 -0.00000000000E+00 -0.74505805969E-08  0.93827000000E+00  0.93827000000E+00 0. -1.
     999902    2    1    2    0    0 -0.22353110865E-02  0.33952550997E-02  0.12089762596E-01  0.10311751291E+01  0.10310962419E+01 0.  0.
     999903    2    3    3    0    0 -0.28304655101E-01  0.55995764548E-01 -0.11698280008E+00  0.13982438400E+00  0.43922701433E-01 0.  0.
         14    1    1    2    0    0  0.22353110865E-02 -0.33952550997E-02 -0.12089762596E-01  0.12754870931E-01  0.00000000000E+00 0. -1.
     999901    1    3    3    0    0  0.26069344015E-01 -0.52600509448E-01  0.12907256267E+00  0.89135074506E+00  0.88000000000E+00 0.  1.
        -11    1    4    4    0    0 -0.38361029940E-01  0.37775324141E-01 -0.69000689524E-01  0.87520854702E-01  0.51100000000E-03 0.  1.
         11    1    4    4    0    0  0.10056374839E-01  0.18220440407E-01 -0.47982110552E-01  0.52303529303E-01  0.51100000000E-03 0. -1.
</event>
<event>
 8    1  0.2190295E+004  0.1043930E+01  0.7957747E-01            NaN
         13   -1    0    0    0    0  0.00000000000E+00  0.00000000000E+00  0.74505805969E-08  0.10566000000E+00  0.10566000000E+00 0. -1.
     999900   -1    0    0    0    0 -0.00000000000E+00 -0.00000000000E+00 -0.74505805969E-08  0.93827000000E+00  0.93827000000E+00 0. -1.
     999902    2    1    2    0    0  0.13412562190E-01 -0.29531146250E-02  0.49021674729E-02  0.10293475120E+01  0.10292442137E+01 0.  0.
     999903    2    3    3    0    0  0.12762388007E+00 -0.32822199749E-01 -0.17829177613E-01  0.14117348545E+00  0.47401707352E-01 0.  0.
         14    1    1    2    0    0 -0.13412562190E-01  0.29531146250E-02 -0.49021674729E-02  0.14582488005E-01  0.00000000000E+00 0. -1.
     999901    1    3    3    0    0 -0.11421131788E+00  0.29869085124E-01  0.22731345086E-01  0.88817402654E+00  0.88000000000E+00 0.  1.
        -11    1    4    4    0    0  0.75604808581E-01  0.87336965723E-03 -0.22851907919E-01  0.78989370624E-01  0.51100000000E-03 0. -1.
         11    1    4    4    0    0  0.52019071488E-01 -0.33695569406E-01  0.50227303054E-02  0.62184114827E-01  0.51100000000E-03 0.  1.
</event>
<event>
 8    1  0.2190295E+004  0.1043930E+01  0.7957747E-01            NaN
         13   -1    0    0    0    0  0.00000000000E+00  0.00000000000E+00  0.74505805969E-08  0.10566000000E+00  0.10566000000E+00 0. -1.
     999900   -1    0    0    0    0 -0.00000000000E+00 -0.00000000000E+00 -0.74505805969E-08  0.93827000000E+00  0.93827000000E+00 0. -1.
     999902    2    1    2    0    0 -0.75683522187E-03 -0.13437081940E-01  0.49624889492E-02  0.10295858630E+01  0.10294859372E+01 0.  0.
     999903    2    3    3    0    0 -0.69438057236E-01 -0.16274828857E-01 -0.11056494777E+00  0.13937703820E+00  0.45987359714E-01 0.  0.
         14    1    1    2    0    0  0.75683522187E-03  0.13437081940E-01 -0.49624889492E-02  0.14344137032E-01  0.00000000000E+00 0.  1.
     999901    1    3    3    0    0  0.68681222014E-01  0.28377469171E-02  0.11552743672E+00  0.89020882477E+00  0.88000000000E+00 0.  1.
        -11    1    4    4    0    0 -0.28331914184E-02 -0.17317349279E-01 -0.16342073459E-01  0.23984204085E-01  0.51100000000E-03 0.  1.
         11    1    4    4    0    0 -0.66604865818E-01  0.10425204216E-02 -0.94222874314E-01  0.11539283411E+00  0.51100000000E-03 0. -1.
</event>
<event>
 8    1  0.2190295E+004  0.1043930E+01  0.7957747E-01            NaN
         13   -1    0    0    0    0  0.00000000000E+00  0.00000000000E+00  0.74505805969E-08  0.10566000000E+00  0.10566000000E+00 0.  1.
     999900   -1    0    0    0    0 -0.00000000000E+00 -0.00000000000E+00 -0.74505805969E-08  0.93827000000E+00  0.93827000000E+00 0. -1.
     999902    2    1    2    0    0 -0.36565739006E-02 -0.10073035442E-02  0.13331839437E-01  0.10300691510E+01  0.10299758893E+01 0.  0.
     999903    2    3    3    0    0 -0.11990560509E-01 -0.12735610514E+00  0.37534363257E-01  0.14067652836E+00  0.44918884092E-01 0.  0.
         14    1    1    2    0    0  0.36565739006E-02  0.10073035442E-02 -0.13331839437E-01  0.13860849032E-01  0.00000000000E+00 0. -1.
     999901    1    3    3    0    0  0.83339866086E-02  0.12634880159E+00 -0.24202523820E-01  0.88939262261E+00  0.88000000000E+00 0.  1.
        -11    1    4    4    0    0 -0.16806460531E-01 -0.64563212987E-01 -0.12211831798E-02  0.66727940146E-01  0.51100000000E-03 0.  1.
         11    1    4    4    0    0  0.48159000214E-02 -0.62792892151E-01  0.38755546437E-01  0.73948588211E-01  0.51100000000E-03 0. -1.
</event>
<event>
 8    1  0.2190295E+004  0.1043930E+01  0.7957747E-01            NaN
         13   -1    0    0    0    0  0.00000000000E+00  0.00000000000E+00  0.74505805969E-08  0.10566000000E+00  0.10566000000E+00 0.  1.
     999900   -1    0    0    0    0 -0.00000000000E+00 -0.00000000000E+00 -0.74505805969E-08  0.93827000000E+00  0.93827000000E+00 0.  1.
     999902    2    1    2    0    0 -0.10580276690E-01  0.30939007962E-03 -0.10878034738E-01  0.10287520681E+01  0.10286400964E+01 0.  0.
     999903    2    3    3    0    0 -0.98764684650E-01 -0.29095577331E-02  0.86429794707E-01  0.13900172946E+00  0.45699484901E-01 0.  0.
         14    1    1    2    0    0  0.10580276690E-01 -0.30939007962E-03  0.10878034738E-01  0.15177931902E-01  0.00000000000E+00 0.  1.
     999901    1    3    3    0    0  0.88184407960E-01  0.32189478128E-02 -0.97307829444E-01  0.88975033864E+00  0.88000000000E+00 0.  1.
        -11    1    4    4    0    0  0.14911602749E-02 -0.32147779944E-02  0.16205955728E-01  0.16596761087E-01  0.51100000000E-03 0.  1.
         11    1    4    4    0    0 -0.10025584492E+00  0.30522026129E-03  0.70223838978E-01  0.12240496837E+00  0.51100000000E-03 0. -1.
</event>
<event>
 8    1  0.2190295E+004  0.1043930E+01  0.7957747E-01            NaN
         13   -1    0    0    0    0  0.00000000000E+00  0.00000000000E+00  0.74505805969E-08  0.10566000000E+00  0.10566000000E+00 0.  1.
     999900   -1    0    0    0    0 -0.00000000000E+00 -0.00000000000E+00 -0.74505805969E-08  0.93827000000E+00  0.93827000000E+00 0.  1.
     999902    2    1    2    0    0 -0.99424808411E-02  0.87641673525E-02  0.62043700099E-02  0.10292958700E+01  0.10291918335E+01 0.  0.
     999903    2    3    3    0    0 -0.34461183533E-01  0.46199131504E-01 -0.11806204820E+00  0.13943931635E+00  0.46719832994E-01 0.  0.
         14    1    1    2    0    0  0.99424808411E-02 -0.87641673525E-02 -0.62043700099E-02  0.14634130035E-01  0.00000000000E+00 0. -1.
     999901    1    3    3    0    0  0.24518702692E-01 -0.37434964151E-01  0.12426641821E+00  0.88985655362E+00  0.88000000000E+00 0. -1.
        -11    1    4    4    0    0 -0.39881385084E-01  0.51779443787E-01 -0.11152096159E+00  0.12926260739E+00  0.51100000000E-03 0. -1.
         11    1    4    4    0    0  0.54202015509E-02 -0.55803122830E-02 -0.65410866110E-02  0.10176708951E-01  0.51100000000E-03 0.  1.
</event>
<event>
 8    1  0.2190295E+004  0.1043930E+01  0.7957747E-01            NaN
         13   -1    0    0    0    0  0.00000000000E+00  0.00000000000E+00  0.74505805969E-08  0.10566000000E+00  0.10566000000E+00 0.  1.
     999900   -1    0    0    0    0 -0.00000000000E+00 -0.00000000000E+00 -0.74505805969E-08  0.93827000000E+00  0.93827000000E+00 0.  1.
     999902    2    1    2    0    0  0.11559257196E-01 -0.43872111927E-02 -0.12855715494E-01  0.10260937036E+01  0.10259386702E+01 0.  0.
     999903    2    3    3    0    0  0.71545659060E-01 -0.10869261422E+00  0.66707337529E-02  0.13769105403E+00  0.44513615395E-01 0.  0.
         14    1    1    2    0    0 -0.11559257196E-01  0.43872111927E-02  0.12855715494E-01  0.17836296416E-01  0.00000000000E+00 0.  1.
     999901    1    3    3    0    0 -0.59986401863E-01  0.10430540303E+00 -0.19526449247E-01  0.88840264955E+00  0.88000000000E+00 0.  1.
        -11    1    4    4    0    0  0.33689333103E-01 -0.15792122695E-01  0.18457295320E-02  0.37256276554E-01  0.51100000000E-03 0. -1.
         11    1    4    4    0    0  0.37856325957E-01 -0.92900491525E-01  0.48250042209E-02  0.10043477748E+00  0.51100000000E-03 0.  1.
</event>
<event>
 8    1  0.2190295E+004  0.1043930E+01  0.7957747E-01            NaN
         13   -1    0    0    0    0  0.00000000000E+00  0.00000000000E+00  0.74505805969E-08  0.10566000000E+00  0.10566000000E+00 0.  1.
     999900   -1    0    0    0    0 -0.00000000000E+00 -0.00000000000E+00 -0.74505805969E-08  0.93827000000E+00  0.93827000000E+00 0.  1.
     999902    2    1    2    0    0 -0.10555428391E-01 -0.10318966530E-01  0.21652272290E-02  0.10290106720E+01  0.10289025108E+01 0.  0.
     999903    2    3    3    0    0 -0.91576301259E-01 -0.81631980340E-01  0.52338798088E-01  0.14099754429E+00  0.45727000178E-01 0.  0.
         14    1    1    2    0    0  0.10555428391E-01  0.10318966530E-01 -0.21652272290E-02  0.14919327991E-01  0.00000000000E+00 0.  1.
     999901    1    3    3    0    0  0.81020872869E-01  0.71313013810E-01 -0.50173570859E-01  0.88801312771E+00  0.88000000000E+00 0.  1.
        -11    1    4    4    0    0 -0.56674114890E-01 -0.26472246920E-01  0.40868303074E-01  0.74720910545E-01  0.51100000000E-03 0. -1.
         11    1    4    4    0    0 -0.34902186369E-01 -0.55159733420E-01  0.11470495014E-01  0.66276633750E-01  0.51100000000E-03 0.  1.
</event>
<event>
 8    1  0.2190295E+004  0.1043930E+01  0.7957747E-01            NaN
         13   -1    0    0    0    0  0.00000000000E+00  0.00000000000E+00  0.74505805969E-08  0.10566000000E+00  0.10566000000E+00 0.  1.
     999900   -1    0    0    0    0 -0.00000000000E+00 -0.00000000000E+00 -0.74505805969E-08  0.93827000000E+00  0.93827000000E+00 0.  1.
     999902    2    1    2    0    0  0.13468438005E-03  0.15891015894E-02  0.11058777647E-01  0.10327568202E+01  0.10326963783E+01 0.  0.
     999903    2    3    3    0    0 -0.66102756892E-01 -0.10537836409E+00  0.53999043170E-01  0.14277181823E+00  0.44651106695E-01 0.  0.
         14    1    1    2    0    0 -0.13468438005E-03 -0.15891015894E-02 -0.11058777647E-01  0.11173179798E-01  0.00000000000E+00 0. -1.
     999901    1    3    3    0    0  0.66237441272E-01  0.10696746568E+00 -0.42940265523E-01  0.88998500198E+00  0.88000000000E+00 0. -1.
        -11    1    4    4    0    0 -0.48357499497E-01 -0.91611064297E-01  0.59741597802E-01  0.11958408961E+00  0.51100000000E-03 0. -1.
         11    1    4    4    0    0 -0.17745257395E-01 -0.13767299793E-01 -0.57425546312E-02  0.23187728615E-01  0.51100000000E-03 0.  1.
</event>
<event>
 8    1  0.2190295E+004  0.1043930E+01  0.7957747E-01            NaN
         13   -1    0    0    0    0  0.00000000000E+00  0.00000000000E+00  0.74505805969E-08  0.10566000000E+00  0.10566000000E+00 0. -1.
     999900   -1    0    0    0    0 -0.00000000000E+00 -0.00000000000E+00 -0.74505805969E-08  0.93827000000E+00  0.93827000000E+00 0.  1.
     999902    2    1    2    0    0  0.51692801920E-02 -0.97730783226E-02  0.81668385050E-02  0.10301847547E+01  0.10300930526E+01 0.  0.
     999903    2    3    3    0    0 -0.12782693334E+00 -0.37344741342E-01  0.12509380838E-01  0.13975393363E+00  0.40500898302E-01 0.  0.
         14    1    1    2    0    0 -0.51692801920E-02  0.97730783226E-02 -0.81668385050E-02  0.13745245315E-01  0.00000000000E+00 0.  1.
     999901    1    3    3    0    0  0.13299621353E+00  0.27571663019E-01 -0.43425423325E-02  0.89043082106E+00  0.88000000000E+00 0.  1.
        -11    1    4    4    0    0 -0.47321455249E-01 -0.83177908885E-02  0.23469081841E-01  0.53474897809E-01  0.51100000000E-03 0.  1.
         11    1    4    4    0    0 -0.80505478088E-01 -0.29026950453E-01 -0.10959701004E-01  0.86279035819E-01  0.51100000000E-03 0. -1.
</event>
<event>
 8    1  0.2190295E+004  0.1043930E+01  0.7957747E-01            NaN
         13   -1    0    0    0    0  0.00000000000E+00  0.00000000000E+00  0.74505805969E-08  0.10566000000E+00  0.10566000000E+00 0.  1.
     999900   -1    0    0    0    0 -0.00000000000E+00 -0.00000000000E+00 -0.74505805969E-08  0.93827000000E+00  0.93827000000E+00 0.  1.
     999902    2    1    2    0    0 -0.58014523246E-02 -0.10720438955E-01 -0.35210174098E-02  0.10312421229E+01  0.10311640674E+01 0.  0.
     999903    2    3    3    0    0  0.10008753425E+00  0.73714314914E-01 -0.46478173752E-01  0.13984601435E+00  0.44106375488E-01 0.  0.
         14    1    1    2    0    0  0.58014523246E-02  0.10720438955E-01  0.35210174098E-02  0.12687877051E-01  0.00000000000E+00 0.  1.
     999901    1    3    3    0    0 -0.10588898658E+00 -0.84434753869E-01  0.42957156343E-01  0.89139610860E+00  0.88000000000E+00 0. -1.
        -11    1    4    4    0    0  0.60804334305E-01  0.63114092535E-01 -0.16198508034E-01  0.89124679693E-01  0.51100000000E-03 0.  1.
         11    1    4    4    0    0  0.39283199949E-01  0.10600222379E-01 -0.30279665718E-01  0.50721334660E-01  0.51100000000E-03 0. -1.
</event>
<event>
 8    1  0.2190295E+004  0.1043930E+01  0.7957747E-01            NaN
         13   -1    0    0    0    0  0.00000000000E+00  0.00000000000E+00  0.74505805969E-08  0.10566000000E+00  0.10566000000E+00 0. -1.
     999900   -1    0    0    0    0 -0.00000000000E+00 -0.00000000000E+00 -0.74505805969E-08  0.93827000000E+00  0.93827000000E+00 0. -1.
     999902    2    1    2    0    0 -0.81331043508E-02  0.15992321156E-01 -0.87646140176E-02  0.10239620211E+01  0.10237673078E+01 0.  0.
     999903    2    3    3    0    0 -0.11322624888E+00  0.59860395080E-01 -0.14428773162E-01  0.13660580197E+00  0.45271462334E-01 0.  0.
         14    1    1    2    0    0  0.81331043508E-02 -0.15992321156E-01  0.87646140176E-02  0.19967978897E-01  0.00000000000E+00 0. -1.
     999901    1    3    3    0    0  0.10509314453E+00 -0.43868073924E-01  0.56641591449E-02  0.88735621913E+00  0.88000000000E+00 0.  1.
        -11    1    4    4    0    0 -0.19209564358E-01  0.23783555374E-01 -0.18649419133E-01  0.35815175891E-01  0.51100000000E-03 0. -1.
         11    1    4    4    0    0 -0.94016684523E-01  0.36076839706E-01  0.42206459710E-02  0.10079062608E+00  0.51100000000E-03 0.  1.
</event>
<event>
 8    1  0.2190295E+004  0.1043930E+01  0.7957747E-01            NaN
         13   -1    0    0    0    0  0.00000000000E+00  0.00000000000E+00  0.74505805969E-08  0.10566000000E+00  0.10566000000E+00 0.  1.
     999900   -1    0    0    0    0 -0.00000000000E+00 -0.00000000000E+00 -0.74505805969E-08  0.93827000000E+00  0.93827000000E+00 0.  1.
     999902    2    1    2    0    0 -0.88843675220E-02  0.10398828984E-01 -0.17947519105E-04  0.10302527213E+01  0.10301619299E+01 0.  0.
     999903    2    3    3    0    0 -0.74798901698E-01 -0.10933350846E+00  0.51558770067E-02  0.13968698712E+00  0.44013401765E-01 0.  0.
         14    1    1    2    0    0  0.88843675220E-02 -0.10398828984E-01  0.17947519105E-04  0.13677278700E-01  0.00000000000E+00 0.  1.
     999901    1    3    3    0    0  0.65914534176E-01  0.11973233744E+00 -0.51738245258E-02  0.89056573419E+00  0.88000000000E+00 0.  1.
        -11    1    4    4    0    0 -0.62411285443E-01 -0.81862580442E-01  0.21847963341E-01  0.10523423991E+00  0.51100000000E-03 0. -1.
         11    1    4    4    0    0 -0.12387616255E-01 -0.27470928014E-01 -0.16692086335E-01  0.34452747200E-01  0.51100000000E-03 0.  1.
</event>
<event>
 8    1  0.2190295E+004  0.1043930E+01  0.7957747E-01            NaN
         13   -1    0    0    0    0  0.00000000000E+00  0.00000000000E+00  0.74505805969E-08  0.10566000000E+00  0.10566000000E+00 0.  1.
     999900   -1    0    0    0    0 -0.00000000000E+00 -0.00000000000E+00 -0.74505805969E-08  0.93827000000E+00  0.93827000000E+00 0. -1.
     999902    2    1    2    0    0 -0.35353697740E-02 -0.41631520010E-02  0.97218872138E-02  0.10327789568E+01  0.10327187554E+01 0.  0.
     999903    2    3    3    0    0  0.14283321837E-01 -0.68831337181E-01 -0.11467308474E+00  0.14150257484E+00  0.43946513658E-01 0.  0.
         14    1    1    2    0    0  0.35353697740E-02  0.41631520010E-02 -0.97218872138E-02  0.11151043226E-01  0.00000000000E+00 0. -1.
     999901    1    3    3    0    0 -0.17818691611E-01  0.64668185180E-01  0.12439497195E+00  0.89127638193E+00  0.88000000000E+00 0. -1.
        -11    1    4    4    0    0  0.14866822299E-01 -0.59638185105E-02 -0.44427190507E-01  0.47229502579E-01  0.51100000000E-03 0.  1.
         11    1    4    4    0    0 -0.58350046165E-03 -0.62867518670E-01 -0.70245894230E-01  0.94273072262E-01  0.51100000000E-03 0. -1.
</event>
<event>
 8    1  0.2190295E+004  0.1043930E+01  0.7957747E-01            NaN
         13   -1    0    0    0    0  0.00000000000E+00  0.00000000000E+00  0.74505805969E-08  0.10566000000E+00  0.10566000000E+00 0. -1.
     999900   -1    0    0    0    0 -0.00000000000E+00 -0.00000000000E+00 -0.74505805969E-08  0.93827000000E+00  0.93827000000E+00 0. -1.
     999902    2    1    2    0    0 -0.76211661289E-03  0.98499298820E-02  0.91411028393E-02  0.10304703677E+01  0.10303824615E+01 0.  0.
     999903    2    3    3    0    0  0.50790718196E-01  0.46790365929E-01  0.11540755618E+00  0.14181135003E+00  0.44972431264E-01 0.  0.
         14    1    1    2    0    0  0.76211661289E-03 -0.98499298820E-02 -0.91411028393E-02  0.13459632296E-01  0.00000000000E+00 0. -1.
     999901    1    3    3    0    0 -0.51552834809E-01 -0.36940436047E-01 -0.10626645334E+00  0.88865901768E+00  0.88000000000E+00 0. -1.
        -11    1    4    4    0    0  0.22963845795E-01 -0.15703183084E-02  0.16761720599E-01  0.28478421861E-01  0.51100000000E-03 0. -1.
         11    1    4    4    0    0  0.27826872401E-01  0.48360684237E-01  0.98645835584E-01  0.11333292817E+00  0.51100000000E-03 0.  1.
</event>
<event>
 8    1  0.2190295E+004  0.1043930E+01  0.7957747E-01            NaN
         13   -1    0    0    0    0  0.00000000000E+00  0.00000000000E+00  0.74505805969E-08  0.10566000000E+00  0.10566000000E+00 0. -1.
     999900   -1    0    0    0    0 -0.00000000000E+00 -0.00000000000E+00 -0.74505805969E-08  0.93827000000E+00  0.93827000000E+00 0.  1.
     999902    2    1    2    0    0  0.29960708411E-02  0.45527181137E-02 -0.12948048647E-01  0.10298816675E+01  0.10297858483E+01 0.  0.
     999903    2    3    3    0    0  0.13188947178E+00 -0.51403927449E-02 -0.16101073366E-01  0.14043385745E+00  0.45179280112E-01 0.  0.
         14    1    1    2    0    0 -0.29960708411E-02 -0.45527181137E-02  0.12948048647E-01  0.14048332516E-01  0.00000000000E+00 0. -1.
     999901    1    3    3    0    0 -0.12889340094E+00  0.96931108586E-02  0.31530247184E-02  0.88944781003E+00  0.88000000000E+00 0. -1.
        -11    1    4    4    0    0  0.86255441475E-01 -0.26132832549E-02  0.11469675011E-01  0.87055413383E-01  0.51100000000E-03 0.  1.
         11    1    4    4    0    0  0.45634030306E-01 -0.25271094900E-02 -0.27570748376E-01  0.53378444071E-01  0.51100000000E-03 0. -1.
</event>
<event>
 8    1  0.2190295E+004  0.1043930E+01  0.7957747E-01            NaN
         13   -1    0    0    0    0  0.00000000000E+00  0.00000000000E+00  0.74505805969E-08  0.10566000000E+00  0.10566000000E+00 0.  1.
     999900   -1    0    0    0    0 -0.00000000000E+00 -0.00000000000E+00 -0.74505805969E-08  0.93827000000E+00  0.93827000000E+00 0. -1.
     999902    2    1    2    0    0 -0.37013289955E-02 -0.13271205249E-01  0.51379698816E-03  0.10301427337E+01  0.10300504663E+01 0.  0.
     999903    2    3    3    0    0  0.11448052210E+00 -0.58422902680E-01  0.34610546650E-01  0.14044154000E+00  0.44798557132E-01 0.  0.
         14    1    1    2    0    0  0.37013289955E-02  0.13271205249E-01 -0.51379698816E-03  0.13787266315E-01  0.00000000000E+00 0. -1.
     999901    1    3    3    0    0 -0.11818185109E+00  0.45151697431E-01 -0.34096749662E-01  0.88970119369E+00  0.88000000000E+00 0. -1.
        -11    1    4    4    0    0  0.31947063998E-01  0.44960095662E-02  0.64205680959E-02  0.32898538201E-01  0.51100000000E-03 0.  1.
         11    1    4    4    0    0  0.82533458098E-01 -0.62918912247E-01  0.28189978554E-01  0.10754300180E+00  0.51100000000E-03 0. -1.
</event>
<event>
 8    1  0.2190295E+004  0.1043930E+01  0.7957747E-01            NaN
         13   -1    0    0    0    0  0.00000000000E+00  0.00000000000E+00  0.74505805969E-08  0.10566000000E+00  0.10566000000E+00 0. -1.
     999900   -1    0    0    0    0 -0.00000000000E+00 -0.00000000000E+00 -0.74505805969E-08  0.93827000000E+00  0.93827000000E+00 0.  1.
     999902    2    1    2    0    0 -0.12214430177E-01 -0.45738788433E-04  0.53548595655E-02  0.10305932494E+01  0.10305069513E+01 0.  0.
     999903    2    3    3    0    0  0.59150979010E-01 -0.75025979675E-01  0.92369786144E-01  0.14026372857E+00  0.44877613742E-01 0.  0.
         14    1    1    2    0    0  0.12214430177E-01  0.45738788433E-04 -0.53548595655E-02  0.13336750637E-01  0.00000000000E+00 0.  1.
     999901    1    3    3    0    0 -0.71365409188E-01  0.74980240887E-01 -0.87014926579E-01  0.89032952080E+00  0.88000000000E+00 0.  1.
        -11    1    4    4    0    0  0.44840188909E-01 -0.47262030057E-01  0.86802176386E-01  0.10853211954E+00  0.51100000000E-03 0. -1.
         11    1    4    4    0    0  0.14310790101E-01 -0.27763949619E-01  0.55676097582E-02  0.31731609023E-01  0.51100000000E-03 0.  1.
</event>
<event>
 8    1  0.2190295E+004  0.1043930E+01  0.7957747E-01            NaN
         13   -1    0    0    0    0  0.00000000000E+00  0.00000000000E+00  0.74505805969E-08  0.10566000000E+00  0.10566000000E+00 0. -1.
     999900   -1    0    0    0    0 -0.00000000000E+00 -0.00000000000E+00 -0.74505805969E-08  0.93827000000E+00  0.93827000000E+00 0.  1.
     999902    2    1    2    0    0 -0.10562934523E-01 -0.39663455101E-02  0.86316082499E-02  0.10297239399E+01  0.10296259419E+01 0.  0.
     999903    2    3    3    0    0 -0.60741390986E-01 -0.94427224506E-01  0.70596287758E-01  0.14150061797E+00  0.49321108403E-01 0.  0.
         14    1    1    2    0    0  0.10562934523E-01  0.39663455101E-02 -0.86316082499E-02  0.14206060095E-01  0.00000000000E+00 0.  1.
     999901    1    3    3    0    0  0.50178456462E-01  0.90460878996E-01 -0.61964679508E-01  0.88822332193E+00  0.88000000000E+00 0.  1.
        -11    1    4    4    0    0 -0.67361696594E-01 -0.84467418665E-01  0.53315314240E-01  0.12047874019E+00  0.51100000000E-03 0.  1.
         11    1    4    4    0    0  0.66203056088E-02 -0.99598058406E-02  0.17280973517E-01  0.21021877781E-01  0.51100000000E-03 0. -1.
</event>
<event>
 8    1  0.2190295E+004  0.1043930E+01  0.7957747E-01            NaN
         13   -1    0    0    0    0  0.00000000000E+00  0.00000000000E+00  0.74505805969E-08  0.10566000000E+00  0.10566000000E+00 0.  1.
     999900   -1    0    0    0    0 -0.00000000000E+00 -0.00000000000E+00 -0.74505805969E-08  0.93827000000E+00  0.93827000000E+00 0.  1.
     999902    2    1    2    0    0 -0.27307121004E-02 -0.93675856398E-02 -0.10329836060E-01  0.10297203567E+01  0.10296223089E+01 0.  0.
     999903    2    3    3    0    0 -0.10960324506E+00  0.58503880556E-01 -0.46513662574E-01  0.13992400725E+00  0.44493051489E-01 0.  0.
         14    1    1    2    0    0  0.27307121004E-02  0.93675856398E-02  0.10329836060E-01  0.14209643286E-01  0.00000000000E+00 0. -1.
     999901    1    3    3    0    0  0.10687253296E+00 -0.67871466196E-01  0.36183826514E-01  0.88979634947E+00  0.88000000000E+00 0. -1.
        -11    1    4    4    0    0 -0.52314716029E-01  0.31495892909E-01 -0.46219817304E-01  0.76585595355E-01  0.51100000000E-03 0. -1.
         11    1    4    4    0    0 -0.57288529027E-01  0.27007987647E-01 -0.29384527057E-03  0.63338411891E-01  0.51100000000E-03 0.  1.
</event>
<event>
 8    1  0.2190295E+004  0.1043930E+01  0.7957747E-01            NaN
         13   -1    0    0    0    0  0.00000000000E+00  0.00000000000E+00  0.74505805969E-08  0.10566000000E+00  0.10566000000E+00 0.  1.
     999900   -1    0    0    0    0 -0.00000000000E+00 -0.00000000000E+00 -0.74505805969E-08  0.93827000000E+00  0.93827000000E+00 0. -1.
     999902    2    1    2    0    0  0.14057897401E-02 -0.86798139056E-02  0.88942487816E-02  0.10314230789E+01  0.10313472473E+01 0.  0.
     999903    2    3    3    0    0 -0.11017048764E-01 -0.86683299086E-01 -0.10129987446E+00  0.14104023123E+00  0.44668921587E-01 0.  0.
         14    1    1    2    0    0 -0.14057897401E-02  0.86798139056E-02 -0.88942487816E-02  0.12506921109E-01  0.00000000000E+00 0. -1.
     999901    1    3    3    0    0  0.12422838504E-01  0.78003485180E-01  0.11019412324E+00  0.89038284766E+00  0.88000000000E+00 0.  1.
        -11    1    4    4    0    0 -0.21362270910E-01 -0.27658426769E-01 -0.20761145481E-01  0.40652447312E-01  0.51100000000E-03 0. -1.
         11    1    4    4    0    0  0.10345222147E-01 -0.59024872317E-01 -0.80538728977E-01  0.10038778392E+00  0.51100000000E-03 0.  1.
</event>
<event>
 8    1  0.2190295E+004  0.1043930E+01  0.7957747E-01            NaN
         13   -1    0    0    0    0  0.00000000000E+00  0.00000000000E+00  0.74505805969E-08  0.10566000000E+00  0.10566000000E+00 0.  1.
     999900   -1    0    0    0    0 -0.00000000000E+00 -0.00000000000E+00 -0.74505805969E-08  0.93827000000E+00  0.93827000000E+00 0.  1.
     999902    2    1    2    0    0  0.77986680548E-02 -0.10816749311E-01  0.36403657848E-02  0.10301070643E+01  0.10300143156E+01 0.  0.
     999903    2    3    3    0    0 -0.83194891945E-01 -0.31844003822E-01  0.97382933627E-01  0.14021401316E+00  0.47340290444E-01 0.  0.
         14    1    1    2    0    0 -0.77986680548E-02  0.10816749311E-01 -0.36403657848E-02  0.13822935727E-01  0.00000000000E+00 0.  1.
     999901    1    3    3    0    0  0.90993560000E-01  0.21027254511E-01 -0.93742567842E-01  0.88989305111E+00  0.88000000000E+00 0.  1.
        -11    1    4    4    0    0 -0.49848440612E-01 -0.18630424539E-01  0.88482160783E-01  0.10325363746E+00  0.51100000000E-03 0. -1.
         11    1    4    4    0    0 -0.33346451333E-01 -0.13213579282E-01  0.89007728441E-02  0.36960375704E-01  0.51100000000E-03 0.  1.
</event>
<event>
 8    1  0.2190295E+004  0.1043930E+01  0.7957747E-01            NaN
         13   -1    0    0    0    0  0.00000000000E+00  0.00000000000E+00  0.74505805969E-08  0.10566000000E+00  0.10566000000E+00 0. -1.
     999900   -1    0    0    0    0 -0.00000000000E+00 -0.00000000000E+00 -0.74505805969E-08  0.93827000000E+00  0.93827000000E+00 0.  1.
     999902    2    1    2    0    0 -0.17309871743E-01 -0.56080379675E-02 -0.22877109326E-02  0.10255910968E+01  0.10254271220E+01 0.  0.
     999903    2    3    3    0    0 -0.56596841360E-01 -0.11622449262E+00  0.12444707215E-01  0.13767414675E+00  0.45694253572E-01 0.  0.
         14    1    1    2    0    0  0.17309871743E-01  0.56080379675E-02  0.22877109326E-02  0.18338903209E-01  0.00000000000E+00 0.  1.
     999901    1    3    3    0    0  0.39286969617E-01  0.11061645465E+00 -0.14732418148E-01  0.88791695004E+00  0.88000000000E+00 0.  1.
        -11    1    4    4    0    0 -0.63827569873E-01 -0.10120137561E+00  0.60246184018E-02  0.11980081072E+00  0.51100000000E-03 0.  1.
         11    1    4    4    0    0  0.72307285138E-02 -0.15023117012E-01  0.64200888136E-02  0.17873336034E-01  0.51100000000E-03 0. -1.
</event>
<event>
 8    1  0.2190295E+004  0.1043930E+01  0.7957747E-01            NaN
         13   -1    0    0    0    0  0.00000000000E+00  0.00000000000E+00  0.74505805969E-08  0.10566000000E+00  0.10566000000E+00 0.  1.
     999900   -1    0    0    0    0 -0.00000000000E+00 -0.00000000000E+00 -0.74505805969E-08  0.93827000000E+00  0.93827000000E+00 0.  1.
     999902    2    1    2    0    0  0.12754010249E-01  0.55792230231E-02  0.21861867197E-03  0.10300073458E+01  0.10299132449E+01 0.  0.
     999903    2    3    3    0    0  0.13087258546E+00  0.24013928508E-01 -0.16724718171E-01  0.14176249616E+00  0.45962884291E-01 0.  0.
         14    1    1    2    0    0 -0.12754010249E-01 -0.55792230231E-02 -0.21861867197E-03  0.13922654240E-01  0.00000000000E+00 0. -1.
     999901    1    3    3    0    0 -0.11811857521E+00 -0.18434705485E-01  0.16943336843E-01  0.88824484960E+00  0.88000000000E+00 0.  1.
        -11    1    4    4    0    0  0.11115139536E+00  0.27818933627E-01  0.15671158367E-02  0.11459163465E+00  0.51100000000E-03 0. -1.
         11    1    4    4    0    0  0.19721190103E-01 -0.38050051187E-02 -0.18291834008E-01  0.27170861514E-01  0.51100000000E-03 0.  1.
</event>
<event>
 8    1  0.2190295E+004  0.1043930E+01  0.7957747E-01            NaN
         13   -1    0    0    0    0  0.00000000000E+00  0.00000000000E+00  0.74505805969E-08  0.10566000000E+00  0.10566000000E+00 0. -1.
     999900   -1    0    0    0    0 -0.00000000000E+00 -0.00000000000E+00 -0.74505805969E-08  0.93827000000E+00  0.93827000000E+00 0. -1.
     999902    2    1    2    0    0  0.77129246494E-02  0.26437186450E-02  0.11082709237E-01  0.10301711883E+01  0.10300793039E+01 0.  0.
     999903    2    3    3    0    0 -0.58199801632E-01 -0.48116147716E-01  0.10991329298E+00  0.14073960815E+00  0.44992496573E-01 0.  0.
         14    1    1    2    0    0 -0.77129246494E-02 -0.26437186450E-02 -0.11082709237E-01  0.13758811684E-01  0.00000000000E+00 0.  1.
     999901    1    3    3    0    0  0.65912726281E-01  0.50759866361E-01 -0.98830583738E-01  0.88943158017E+00  0.88000000000E+00 0. -1.
        -11    1    4    4    0    0 -0.14466275492E-01 -0.37140914793E-01  0.69832895051E-01  0.80409048188E-01  0.51100000000E-03 0.  1.
         11    1    4    4    0    0 -0.43733526140E-01 -0.10975232923E-01  0.40080397925E-01  0.60330559960E-01  0.51100000000E-03 0. -1.
</event>
<event>
 8    1  0.2190295E+004  0.1043930E+01  0.7957747E-01            NaN
         13   -1    0    0    0    0  0.00000000000E+00  0.00000000000E+00  0.74505805969E-08  0.10566000000E+00  0.10566000000E+00 0.  1.
     999900   -1    0    0    0    0 -0.00000000000E+00 -0.00000000000E+00 -0.74505805969E-08  0.93827000000E+00  0.93827000000E+00 0. -1.
     999902    2    1    2    0    0  0.84881254537E-02 -0.90438288574E-02 -0.57356234551E-02  0.10302648439E+01  0.10301742145E+01 0.  0.
     999903    2    3    3    0    0  0.66176325362E-01  0.98863689508E-01 -0.58830810898E-01  0.14021368817E+00  0.45226970919E-01 0.  0.
         14    1    1    2    0    0 -0.84881254537E-02  0.90438288574E-02  0.57356234551E-02  0.13665156074E-01  0.00000000000E+00 0.  1.
     999901    1    3    3    0    0 -0.57688199908E-01 -0.10790751837E+00  0.53095187443E-01  0.89005115575E+00  0.88000000000E+00 0.  1.
        -11    1    4    4    0    0  0.12160050685E-01  0.35061423164E-01 -0.39911227078E-01  0.54500801782E-01  0.51100000000E-03 0.  1.
         11    1    4    4    0    0  0.54016274677E-01  0.63802266343E-01 -0.18919583820E-01  0.85712886391E-01  0.51100000000E-03 0. -1.
</event>
<event>
 8    1  0.2190295E+004  0.1043930E+01  0.7957747E-01            NaN
         13   -1    0    0    0    0  0.00000000000E+00  0.00000000000E+00  0.74505805969E-08  0.10566000000E+00  0.10566000000E+00 0.  1.
     999900   -1    0    0    0    0 -0.00000000000E+00 -0.00000000000E+00 -0.74505805969E-08  0.93827000000E+00  0.93827000000E+00 0. -1.
     999902    2    1    2    0    0  0.12361207021E-01 -0.65421961236E-02  0.43842056336E-02  0.10292732259E+01  0.10291688649E+01 0.  0.
     999903    2    3    3    0    0 -0.12971121829E+00 -0.61750553933E-02 -0.13917797855E-02  0.13785970182E+00  0.46262607752E-01 0.  0.
         14    1    1    2    0    0 -0.12361207021E-01  0.65421961236E-02 -0.43842056336E-02  0.14656774139E-01  0.00000000000E+00 0.  1.
     999901    1    3    3    0    0  0.14207242531E+00 -0.36714073038E-03  0.57759854191E-02  0.89141352404E+00  0.88000000000E+00 0.  1.
        -11    1    4    4    0    0 -0.57801712600E-01 -0.25400732740E-01  0.37137432734E-02  0.63247831689E-01  0.51100000000E-03 0. -1.
         11    1    4    4    0    0 -0.71909505693E-01  0.19225677347E-01 -0.51055230589E-02  0.74611870135E-01  0.51100000000E-03 0.  1.
</event>
<event>
 8    1  0.2190295E+004  0.1043930E+01  0.7957747E-01            NaN
         13   -1    0    0    0    0  0.00000000000E+00  0.00000000000E+00  0.74505805969E-08  0.10566000000E+00  0.10566000000E+00 0. -1.
     999900   -1    0    0    0    0 -0.00000000000E+00 -0.00000000000E+00 -0.74505805969E-08  0.93827000000E+00  0.93827000000E+00 0.  1.
     999902    2    1    2    0    0 -0.76951906764E-02  0.65188569603E-02 -0.90946645559E-02  0.10303497062E+01  0.10302602063E+01 0.  0.
     999903    2    3    3    0    0  0.40514984805E-01  0.94323280968E-01 -0.86479122320E-01  0.14129279455E+00  0.44121081900E-01 0.  0.
         14    1    1    2    0    0  0.76951906764E-02 -0.65188569603E-02  0.90946645559E-02  0.13580293774E-01  0.00000000000E+00 0. -1.
     999901    1    3    3    0    0 -0.48210175482E-01 -0.87804424008E-01  0.77384457764E-01  0.88905691168E+00  0.88000000000E+00 0. -1.
        -11    1    4    4    0    0  0.13903662384E-01  0.18419710196E-01  0.14363003182E-03  0.23084178607E-01  0.51100000000E-03 0.  1.
         11    1    4    4    0    0  0.26611322421E-01  0.75903570773E-01 -0.86622752351E-01  0.11820861594E+00  0.51100000000E-03 0. -1.
</event>
<event>
 8    1  0.2190295E+004  0.1043930E+01  0.7957747E-01            NaN
         13   -1    0    0    0    0  0.00000000000E+00  0.00000000000E+00  0.74505805969E-08  0.10566000000E+00  0.10566000000E+00 0.  1.
     999900   -1    0    0    0    0 -0.00000000000E+00 -0.00000000000E+00 -0.74505805969E-08  0.93827000000E+00  0.93827000000E+00 0.  1.
     999902    2    1    2    0    0  0.10044552464E-01  0.11845619140E-02 -0.83715987479E-02  0.10308006479E+01  0.10307170299E+01 0.  0.
     999903    2    3    3    0    0 -0.10302239257E+00 -0.27251827275E-01 -0.78994668666E-01  0.14030618958E+00  0.45709886197E-01 0.  0.
         14    1    1    2    0    0 -0.10044552464E-01 -0.11845619140E-02  0.83715987479E-02  0.13129352106E-01  0.00000000000E+00 0. -1.
     999901    1    3    3    0    0  0.11306694503E+00  0.28436389189E-01  0.70623069918E-01  0.89049445832E+00  0.88000000000E+00 0. -1.
        -11    1    4    4    0    0 -0.40496776158E-01 -0.30651757767E-01 -0.21018929410E-01  0.54968860712E-01  0.51100000000E-03 0. -1.
         11    1    4    4    0    0 -0.62525616409E-01  0.33999304926E-02 -0.57975739256E-01  0.85337328866E-01  0.51100000000E-03 0.  1.
</event>
<event>
 8    1  0.2190295E+004  0.1043930E+01  0.7957747E-01            NaN
         13   -1    0    0    0    0  0.00000000000E+00  0.00000000000E+00  0.74505805969E-08  0.10566000000E+00  0.10566000000E+00 0.  1.
     999900   -1    0    0    0    0 -0.00000000000E+00 -0.00000000000E+00 -0.74505805969E-08  0.93827000000E+00  0.93827000000E+00 0. -1.
     999902    2    1    2    0    0  0.31597684214E-02 -0.41895940950E-02  0.12836082845E-01  0.10300627055E+01  0.10299693565E+01 0.  0.
     999903    2    3    3    0    0  0.10719266124E+00  0.66946914651E-01  0.41987229157E-01  0.14060611012E+00  0.45110916462E-01 0.  0.
         14    1    1    2    0    0 -0.31597684214E-02  0.41895940950E-02 -0.12836082845E-01  0.13867294543E-01  0.00000000000E+00 0. -1.
     999901    1    3    3    0    0 -0.10403289282E+00 -0.71136508747E-01 -0.29151146312E-01  0.88945659534E+00  0.88000000000E+00 0. -1.
        -11    1    4    4    0    0  0.10733787876E+00  0.68292197429E-01  0.32903996965E-01  0.13140844183E+00  0.51100000000E-03 0.  1.
         11    1    4    4    0    0 -0.14521751723E-03 -0.13452827775E-02  0.90832321926E-02  0.91976682884E-02  0.51100000000E-03 0. -1.
</event>
<event>
 8    1  0.2190295E+004  0.1043930E+01  0.7957747E-01            NaN
         13   -1    0    0    0    0  0.00000000000E+00  0.00000000000E+00  0.74505805969E-08  0.10566000000E+00  0.10566000000E+00 0.  1.
     999900   -1    0    0    0    0 -0.00000000000E+00 -0.00000000000E+00 -0.74505805969E-08  0.93827000000E+00  0.93827000000E+00 0.  1.
     999902    2    1    2    0    0  0.10551673216E-01  0.86776409093E-02 -0.22751939389E-02  0.10300802431E+01  0.10299871317E+01 0.  0.
     999903    2    3    3    0    0 -0.51782587135E-01  0.12184750309E+00  0.51997291642E-02  0.14061475628E+00  0.47087388575E-01 0.  0.
         14    1    1    2    0    0 -0.10551673216E-01 -0.86776409093E-02  0.22751939389E-02  0.13849756925E-01  0.00000000000E+00 0.  1.
     999901    1    3    3    0    0  0.62334260351E-01 -0.11316986218E+00 -0.74749231032E-02  0.88946548679E+00  0.88000000000E+00 0.  1.
        -11    1    4    4    0    0 -0.29780377767E-01  0.54714859369E-01  0.25184354199E-01  0.67194490496E-01  0.51100000000E-03 0.  1.
         11    1    4    4    0    0 -0.22002209369E-01  0.67132643716E-01 -0.19984625035E-01  0.73420265787E-01  0.51100000000E-03 0. -1.
</event>
<event>
 8    1  0.2190295E+004  0.1043930E+01  0.7957747E-01            NaN
         13   -1    0    0    0    0  0.00000000000E+00  0.00000000000E+00  0.74505805969E-08  0.10566000000E+00  0.10566000000E+00 0. -1.
     999900   -1    0    0    0    0 -0.00000000000E+00 -0.00000000000E+00 -0.74505805969E-08  0.93827000000E+00  0.93827000000E+00 0.  1.
     999902    2    1    2    0    0  0.47253759901E-02  0.10944845512E-01 -0.64107297475E-02  0.10303942593E+01  0.10303053495E+01 0.  0.
     999903    2    3    3    0    0  0.57479796004E-01 -0.65655180656E-02 -0.12076192388E+00  0.14125656617E+00  0.44977130322E-01 0.  0.
         14    1    1    2    0    0 -0.47253759901E-02 -0.10944845512E-01  0.64107297475E-02  0.13535740741E-01  0.00000000000E+00 0. -1.
     999901    1    3    3    0    0 -0.52754420014E-01  0.17510363577E-01  0.11435119413E+00  0.88913769308E+00  0.88000000000E+00 0. -1.
        -11    1    4    4    0    0  0.34875106017E-01 -0.22614432741E-02 -0.25531107321E-01  0.43283781113E-01  0.51100000000E-03 0. -1.
         11    1    4    4    0    0  0.22604689987E-01 -0.43040747914E-02 -0.95230816559E-01  0.97972785062E-01  0.51100000000E-03 0.  1.
</event>
<event>
 8    1  0.2190295E+004  0.1043930E+01  0.7957747E-01            NaN
         13   -1    0    0    0    0  0.00000000000E+00  0.00000000000E+00  0.74505805969E-08  0.10566000000E+00  0.10566000000E+00 0. -1.
     999900   -1    0    0    0    0 -0.00000000000E+00 -0.00000000000E+00 -0.74505805969E-08  0.93827000000E+00  0.93827000000E+00 0.  1.
     999902    2    1    2    0    0  0.10920603287E-01 -0.41941818821E-02  0.77474384095E-02  0.10298988368E+01  0.10298032533E+01 0.  0.
     999903    2    3    3    0    0  0.14480425877E-01  0.12471845424E+00  0.42335184007E-01  0.13982723734E+00  0.44665567655E-01 0.  0.
         14    1    1    2    0    0 -0.10920603287E-01  0.41941818821E-02 -0.77474384095E-02  0.14031163164E-01  0.00000000000E+00 0. -1.
     999901    1    3    3    0    0 -0.35598225892E-02 -0.12891263613E+00 -0.34587745598E-01  0.89007159950E+00  0.88000000000E+00 0. -1.
        -11    1    4    4    0    0  0.17591196579E-01  0.93649583554E-01  0.50087640292E-01  0.10765095229E+00  0.51100000000E-03 0.  1.
         11    1    4    4    0    0 -0.31107707029E-02  0.31068870689E-01 -0.77524562848E-02  0.32176285051E-01  0.51100000000E-03 0. -1.
</event>
<event>
 8    1  0.2190295E+004  0.1043930E+01  0.7957747E-01            NaN
         13   -1    0    0    0    0  0.00000000000E+00  0.00000000000E+00  0.74505805969E-08  0.10566000000E+00  0.10566000000E+00 0. -1.
     999900   -1    0    0    0    0 -0.00000000000E+00 -0.00000000000E+00 -0.74505805969E-08  0.93827000000E+00  0.93827000000E+00 0.  1.
     999902    2    1    2    0    0  0.88650905143E-02 -0.58311675867E-02 -0.87458878407E-02  0.10301792582E+01  0.10300874823E+01 0.  0.
     999903    2    3    3    0    0  0.12152262522E+00 -0.26743907446E-01 -0.54282665749E-01  0.14158336528E+00  0.40202692675E-01 0.  0.
         14    1    1    2    0    0 -0.88650905143E-02  0.58311675867E-02  0.87458878407E-02  0.13750741775E-01  0.00000000000E+00 0. -1.
     999901    1    3    3    0    0 -0.11265753470E+00  0.20912739860E-01  0.45536777908E-01  0.88859589294E+00  0.88000000000E+00 0. -1.
        -11    1    4    4    0    0  0.40532413027E-01 -0.54440292176E-02 -0.38884223228E-01  0.56433659255E-01  0.51100000000E-03 0.  1.
         11    1    4    4    0    0  0.80990212191E-01 -0.21299878229E-01 -0.15398442521E-01  0.85149706026E-01  0.51100000000E-03 0. -1.
</event>
<event>
 8    1  0.2190295E+004  0.1043930E+01  0.7957747E-01            NaN
         13   -1    0    0    0    0  0.00000000000E+00  0.00000000000E+00  0.74505805969E-08  0.10566000000E+00  0.10566000000E+00 0. -1.
     999900   -1    0    0    0    0 -0.00000000000E+00 -0.00000000000E+00 -0.74505805969E-08  0.93827000000E+00  0.93827000000E+00 0. -1.
     999902    2    1    2    0    0 -0.81411675802E-02 -0.11202221852E-01  0.31417820254E-02  0.10297300289E+01  0.10296321155E+01 0.  0.
     999903    2    3    3    0    0  0.12748092550E+00  0.22386522884E-01 -0.17574879855E-01  0.13846646748E+00  0.45951533599E-01 0.  0.
         14    1    1    2    0    0  0.81411675802E-02  0.11202221852E-01 -0.31417820254E-02  0.14199971066E-01  0.00000000000E+00 0.  1.
     999901    1    3    3    0    0 -0.13562209308E+00 -0.33588744735E-01  0.20716661880E-01  0.89126356146E+00  0.88000000000E+00 0.  1.
        -11    1    4    4    0    0  0.50925632104E-01  0.31158640930E-01 -0.14013195053E-01  0.61326272237E-01  0.51100000000E-03 0.  1.
         11    1    4    4    0    0  0.76555293395E-01 -0.87721180464E-02 -0.35616848020E-02  0.77140195239E-01  0.51100000000E-03 0. -1.
</event>
<event>
 7    1  0.2190295E+004  0.1043930E+01  0.7957747E-01            NaN
         13   -1    0    0    0    0  0.00000000000E+00  0.00000000000E+00  0.74505805969E-08  0.10566000000E+00  0.10566000000E+00 0.  1.
     999900   -1    0    0    0    0 -0.00000000000E+00 -0.00000000000E+00 -0.74505805969E-08  0.93827000000E+00  0.93827000000E+00 0. -1.
     999903    2    1    2    0    0  0.27871217501E-01 -0.31458880506E-01 -0.10712352180E+00  0.12366126581E+00  0.45279065942E-01 0.  0.
         14    1    1    2    0    0 -0.65921718848E-02  0.32728758112E-01  0.88688240065E-02  0.34543948485E-01  0.00000000000E+00 0.  1.
     999901    1    1    2    0    0 -0.21279045617E-01 -0.12698776056E-02  0.98254697789E-01  0.88572478570E+00  0.88000000000E+00 0.  1.
        -11    1    3    3    0    0 -0.35501292155E-02 -0.15848666225E-01 -0.72744768703E-01  0.74537548479E-01  0.51100000000E-03 0. -1.
         11    1    3    3    0    0  0.31421346717E-01 -0.15610214281E-01 -0.34378753092E-01  0.49123717333E-01  0.51100000000E-03 0.  1.
</event>
<event>
 8    1  0.2190295E+004  0.1043930E+01  0.7957747E-01            NaN
         13   -1    0    0    0    0  0.00000000000E+00  0.00000000000E+00  0.74505805969E-08  0.10566000000E+00  0.10566000000E+00 0.  1.
     999900   -1    0    0    0    0 -0.00000000000E+00 -0.00000000000E+00 -0.74505805969E-08  0.93827000000E+00  0.93827000000E+00 0.  1.
     999902    2    1    2    0    0 -0.19137288187E-03 -0.10006895168E-01  0.97934653952E-02  0.10299269097E+01  0.10298317109E+01 0.  0.
     999903    2    3    3    0    0 -0.60025111183E-01  0.71876830453E-01  0.94206786712E-01  0.14008949217E+00  0.44506790773E-01 0.  0.
         14    1    1    2    0    0  0.19137288187E-03  0.10006895168E-01 -0.97934653952E-02  0.14003090335E-01  0.00000000000E+00 0. -1.
     999901    1    3    3    0    0  0.59833738301E-01 -0.81883725621E-01 -0.84413321317E-01  0.88983741750E+00  0.88000000000E+00 0.  1.
        -11    1    4    4    0    0 -0.65015143319E-01  0.52220391449E-01  0.75242072710E-01  0.11231904901E+00  0.51100000000E-03 0.  1.
         11    1    4    4    0    0  0.49900321356E-02  0.19656439004E-01  0.18964714002E-01  0.27770443159E-01  0.51100000000E-03 0. -1.
</event>
<event>
 8    1  0.2190295E+004  0.1043930E+01  0.7957747E-01            NaN
         13   -1    0    0    0    0  0.00000000000E+00  0.00000000000E+00  0.74505805969E-08  0.10566000000E+00  0.10566000000E+00 0.  1.
     999900   -1    0    0    0    0 -0.00000000000E+00 -0.00000000000E+00 -0.74505805969E-08  0.93827000000E+00  0.93827000000E+00 0.  1.
     999902    2    1    2    0    0  0.71521968629E-02  0.61394234292E-02  0.90792434314E-02  0.10308426358E+01  0.10307595552E+01 0.  0.
     999903    2    3    3    0    0 -0.74031886072E-02 -0.12767749906E+00 -0.33905898862E-01  0.13957020247E+00  0.44428374630E-01 0.  0.
         14    1    1    2    0    0 -0.71521968629E-02 -0.61394234292E-02 -0.90792434314E-02  0.13087364184E-01  0.00000000000E+00 0. -1.
     999901    1    3    3    0    0  0.14555385470E-01  0.13381692249E+00  0.42985142293E-01  0.89127243335E+00  0.88000000000E+00 0. -1.
        -11    1    4    4    0    0 -0.21575147657E-01 -0.41095412220E-01 -0.20785584102E-01  0.50858839246E-01  0.51100000000E-03 0. -1.
         11    1    4    4    0    0  0.14171959050E-01 -0.86582086836E-01 -0.13120314760E-01  0.88711363221E-01  0.51100000000E-03 0.  1.
</event>
<event>
 8    1  0.2190295E+004  0.1043930E+01  0.7957747E-01            NaN
         13   -1    0    0    0    0  0.00000000000E+00  0.00000000000E+00  0.74505805969E-08  0.10566000000E+00  0.10566000000E+00 0. -1.
     999900   -1    0    0    0    0 -0.00000000000E+00 -0.00000000000E+00 -0.74505805969E-08  0.93827000000E+00  0.93827000000E+00 0.  1.
     999902    2    1    2    0    0 -0.14396775980E-01 -0.23029611034E-02 -0.23275525981E-02  0.10291655735E+01  0.10290596627E+01 0.  0.
     999903    2    3    3    0    0  0.33903627687E-01 -0.11512436353E+00  0.53728877614E-01  0.13888251672E+00  0.44704430576E-01 0.  0.
         14    1    1    2    0    0  0.14396775980E-01  0.23029611034E-02  0.23275525981E-02  0.14764426490E-01  0.00000000000E+00 0. -1.
     999901    1    3    3    0    0 -0.48300403667E-01  0.11282140242E+00 -0.56056430212E-01  0.89028305679E+00  0.88000000000E+00 0.  1.
        -11    1    4    4    0    0 -0.82400647753E-02 -0.48545434283E-01  0.19246988439E-01  0.52870270873E-01  0.51100000000E-03 0. -1.
         11    1    4    4    0    0  0.42143692462E-01 -0.66578929244E-01  0.34481889175E-01  0.86012245847E-01  0.51100000000E-03 0.  1.
</event>
<event>
 8    1  0.2190295E+004  0.1043930E+01  0.7957747E-01            NaN
         13   -1    0    0    0    0  0.00000000000E+00  0.00000000000E+00  0.74505805969E-08  0.10566000000E+00  0.10566000000E+00 0.  1.
     999900   -1    0    0    0    0 -0.00000000000E+00 -0.00000000000E+00 -0.74505805969E-08  0.93827000000E+00  0.93827000000E+00 0. -1.
     999902    2    1    2    0    0  0.23559434229E-02 -0.89799099343E-02 -0.10473752859E-01  0.10299339737E+01  0.10298388716E+01 0.  0.
     999903    2    3    3    0    0  0.12238963354E-01  0.12154344110E+00 -0.50079420184E-01  0.13937087765E+00  0.44650788487E-01 0.  0.
         14    1    1    2    0    0 -0.23559434229E-02  0.89799099343E-02  0.10473752859E-01  0.13996026250E-01  0.00000000000E+00 0.  1.
     999901    1    3    3    0    0 -0.98830199311E-02 -0.13052335104E+00  0.39605667324E-01  0.89056309610E+00  0.88000000000E+00 0.  1.
        -11    1    4    4    0    0  0.23668693331E-01  0.48471711988E-01 -0.87633267334E-02  0.54651357929E-01  0.51100000000E-03 0. -1.
         11    1    4    4    0    0 -0.11429729977E-01  0.73071729113E-01 -0.41316093450E-01  0.84719519722E-01  0.51100000000E-03 0.  1.
</event>
<event>
 8    1  0.2190295E+004  0.1043930E+01  0.7957747E-01            NaN
         13   -1    0    0    0    0  0.00000000000E+00  0.00000000000E+00  0.74505805969E-08  0.10566000000E+00  0.10566000000E+00 0. -1.
     999900   -1    0    0    0    0 -0.00000000000E+00 -0.00000000000E+00 -0.74505805969E-08  0.93827000000E+00  0.93827000000E+00 0.  1.
     999902    2    1    2    0    0  0.12083691003E-01  0.37576592113E-02  0.79058897963E-02  0.10290089181E+01  0.10289007313E+01 0.  0.
     999903    2    3    3    0    0 -0.24415024067E-01  0.86417518339E-01  0.95810183300E-01  0.14002524373E+00  0.48614779459E-01 0.  0.
         14    1    1    2    0    0 -0.12083691003E-01 -0.37576592113E-02 -0.79058897963E-02  0.14921081880E-01  0.00000000000E+00 0.  1.
     999901    1    3    3    0    0  0.36498715070E-01 -0.82659859128E-01 -0.87904293504E-01  0.88898367439E+00  0.88000000000E+00 0.  1.
        -11    1    4    4    0    0 -0.24952738070E-01  0.12424898840E-01  0.22050044063E-01  0.35545503408E-01  0.51100000000E-03 0.  1.
         11    1    4    4    0    0  0.53771400231E-03  0.73992619499E-01  0.73760139237E-01  0.10447974032E+00  0.51100000000E-03 0. -1.
</event>
<event>
 8    1  0.2190295E+004  0.1043930E+01  0.7957747E-01            NaN
         13   -1    0    0    0    0  0.00000000000E+00  0.00000000000E+00  0.74505805969E-08  0.10566000000E+00  0.10566000000E+00 0.  1.
     999900   -1    0    0    0    0 -0.00000000000E+00 -0.00000000000E+00 -0.74505805969E-08  0.93827000000E+00  0.93827000000E+00 0. -1.
     999902    2    1    2    0    0  0.12639847593E-01 -0.57739582710E-03  0.68682963734E-03  0.10312583439E+01  0.10311804891E+01 0.  0.
     999903    2    3    3    0    0  0.13485430545E+00  0.11473736604E-01 -0.40820262721E-02  0.14271777337E+00  0.45103986160E-01 0.  0.
         14    1    1    2    0    0 -0.12639847593E-01  0.57739582710E-03 -0.68682963734E-03  0.12671656090E-01  0.00000000000E+00 0. -1.
     999901    1    3    3    0    0 -0.12221445786E+00 -0.12051132431E-01  0.47688559094E-02  0.88854057054E+00  0.88000000000E+00 0. -1.
        -11    1    4    4    0    0  0.78690116222E-01  0.56935954610E-02 -0.24597734244E-01  0.82642973515E-01  0.51100000000E-03 0.  1.
         11    1    4    4    0    0  0.56164189230E-01  0.57801411429E-02  0.20515707972E-01  0.60074799859E-01  0.51100000000E-03 0. -1.
</event>
<event>
 8    1  0.2190295E+004  0.1043930E+01  0.7957747E-01            NaN
         13   -1    0    0    0    0  0.00000000000E+00  0.00000000000E+00  0.74505805969E-08  0.10566000000E+00  0.10566000000E+00 0. -1.
     999900   -1    0    0    0    0 -0.00000000000E+00 -0.00000000000E+00 -0.74505805969E-08  0.93827000000E+00  0.93827000000E+00 0.  1.
     999902    2    1    2    0    0 -0.14816872837E-02 -0.10039438013E-01 -0.93479694815E-02  0.10301325275E+01  0.10300401225E+01 0.  0.
     999903    2    3    3    0    0 -0.25274591326E-01  0.56688045640E-01  0.11523270203E+00  0.13853900857E+00  0.45410811400E-01 0.  0.
         14    1    1    2    0    0  0.14816872837E-02  0.10039438013E-01  0.93479694815E-02  0.13797472459E-01  0.00000000000E+00 0. -1.
     999901    1    3    3    0    0  0.23792904042E-01 -0.66727483653E-01 -0.12458067152E+00  0.89159351897E+00  0.88000000000E+00 0.  1.
        -11    1    4    4    0    0 -0.20593789543E-01  0.16686358423E-01  0.82447119016E-01  0.86604429911E-01  0.51100000000E-03 0.  1.
         11    1    4    4    0    0 -0.46808017830E-02  0.40001687217E-01  0.32785583019E-01  0.51934578658E-01  0.51100000000E-03 0. -1.
</event>
<event>
 8    1  0.2190295E+004  0.1043930E+01  0.7957747E-01            NaN
         13   -1    0    0    0    0  0.00000000000E+00  0.00000000000E+00  0.74505805969E-08  0.10566000000E+00  0.10566000000E+00 0. -1.
     999900   -1    0    0    0    0 -0.00000000000E+00 -0.00000000000E+00 -0.74505805969E-08  0.93827000000E+00  0.93827000000E+00 0. -1.
     999902    2    1    2    0    0 -0.11025443017E-02 -0.64521172985E-02  0.13079601732E-01  0.10293039478E+01  0.10292000270E+01 0.  0.
     999903    2    3    3    0    0  0.23977554262E-01  0.92524442733E-01 -0.88443106913E-01  0.13760207433E+00  0.44457306343E-01 0.  0.
         14    1    1    2    0    0  0.11025443017E-02  0.64521172985E-02 -0.13079601732E-01  0.14626052203E-01  0.00000000000E+00 0.  1.
     999901    1    3    3    0    0 -0.25080098563E-01 -0.98976560031E-01  0.10152270865E+00  0.89170187347E+00  0.88000000000E+00 0.  1.
        -11    1    4    4    0    0  0.35908588743E-01  0.71952375691E-01 -0.58935763665E-01  0.99700834865E-01  0.51100000000E-03 0. -1.
         11    1    4    4    0    0 -0.11931034481E-01  0.20572067042E-01 -0.29507343248E-01  0.37901239462E-01  0.51100000000E-03 0.  1.
</event>
<event>
 8    1  0.2190295E+004  0.1043930E+01  0.7957747E-01            NaN
         13   -1    0    0    0    0  0.00000000000E+00  0.00000000000E+00  0.74505805969E-08  0.10566000000E+00  0.10566000000E+00 0.  1.
     999900   -1    0    0    0    0 -0.00000000000E+00 -0.00000000000E+00 -0.74505805969E-08  0.93827000000E+00  0.93827000000E+00 0. -1.
     999902    2    1    2    0    0 -0.10263794930E-01 -0.35665249619E-02  0.98004324206E-02  0.10292973631E+01  0.10291933480E+01 0.  0.
     999903    2    3    3    0    0 -0.93371312625E-02 -0.35571224853E-01  0.12820663531E+00  0.14079008210E+00  0.45082278371E-01 0.  0.
         14    1    1    2    0    0  0.10263794930E-01  0.35665249619E-02 -0.98004324206E-02  0.14632636888E-01  0.00000000000E+00 0. -1.
     999901    1    3    3    0    0 -0.92666366711E-03  0.32004699891E-01 -0.11840620289E+00  0.88850728101E+00  0.88000000000E+00 0. -1.
        -11    1    4    4    0    0 -0.24276922131E-02 -0.45237631324E-01  0.11083725746E+00  0.11973928235E+00  0.51100000000E-03 0. -1.
         11    1    4    4    0    0 -0.69094390494E-02  0.96664064704E-02  0.17369377857E-01  0.21050799751E-01  0.51100000000E-03 0.  1.
</event>
<event>
 8    1  0.2190295E+004  0.1043930E+01  0.7957747E-01            NaN
         13   -1    0    0    0    0  0.00000000000E+00  0.00000000000E+00  0.74505805969E-08  0.10566000000E+00  0.10566000000E+00 0.  1.
     999900   -1    0    0    0    0 -0.00000000000E+00 -0.00000000000E+00 -0.74505805969E-08  0.93827000000E+00  0.93827000000E+00 0. -1.
     999902    2    1    2    0    0  0.11531888450E-01 -0.73275279471E-02  0.23731021495E-02  0.10300624576E+01  0.10299691053E+01 0.  0.
     999903    2    3    3    0    0 -0.41235705348E-01  0.66042661966E-01  0.10639707887E+00  0.13933882405E+00  0.45088278959E-01 0.  0.
         14    1    1    2    0    0 -0.11531888450E-01  0.73275279471E-02 -0.23731021495E-02  0.13867542351E-01  0.00000000000E+00 0.  1.
     999901    1    3    3    0    0  0.52767593798E-01 -0.73370189914E-01 -0.10402397672E+00  0.89072363360E+00  0.88000000000E+00 0. -1.
        -11    1    4    4    0    0  0.66774024782E-02  0.90676540656E-02  0.32686221880E-01  0.34575428789E-01  0.51100000000E-03 0. -1.
         11    1    4    4    0    0 -0.47913107826E-01  0.56975007901E-01  0.73710856991E-01  0.10476339526E+00  0.51100000000E-03 0.  1.
</event>
<event>
 8    1  0.2190295E+004  0.1043930E+01  0.7957747E-01            NaN
         13   -1    0    0    0    0  0.00000000000E+00  0.00000000000E+00  0.74505805969E-08  0.10566000000E+00  0.10566000000E+00 0.  1.
     999900   -1    0    0    0    0 -0.00000000000E+00 -0.00000000000E+00 -0.74505805969E-08  0.93827000000E+00  0.93827000000E+00 0.  1.
     999902    2    1    2    0    0 -0.13382229155E-01 -0.36184445879E-03  0.49544137585E-02  0.10296555051E+01  0.10295565541E+01 0.  0.
     999903    2    3    3    0    0 -0.22152902803E-01 -0.42406342975E-01 -0.12146657627E+00  0.13958419826E+00  0.49402127741E-01 0.  0.
         14    1    1    2    0    0  0.13382229155E-01  0.36184445879E-03 -0.49544137585E-02  0.14274494886E-01  0.00000000000E+00 0. -1.
     999901    1    3    3    0    0  0.87706736484E-02  0.42044498516E-01  0.12642099003E+00  0.89007130686E+00  0.88000000000E+00 0. -1.
        -11    1    4    4    0    0  0.14096055098E-01 -0.24287734140E-01 -0.45128061011E-01  0.53154452406E-01  0.51100000000E-03 0. -1.
         11    1    4    4    0    0 -0.36248957901E-01 -0.18118608835E-01 -0.76338515257E-01  0.86429745850E-01  0.51100000000E-03 0.  1.
</event>
<event>
 8    1  0.2190295E+004  0.1043930E+01  0.7957747E-01            NaN
         13   -1    0    0    0    0  0.00000000000E+00  0.00000000000E+00  0.74505805969E-08  0.10566000000E+00  0.10566000000E+00 0.  1.
     999900   -1    0    0    0    0 -0.00000000000E+00 -0.00000000000E+00 -0.74505805969E-08  0.93827000000E+00  0.93827000000E+00 0. -1.
     999902    2    1    2    0    0  0.13805836111E-01 -0.22308928517E-02 -0.30388874811E-02  0.10296187167E+01  0.10295192513E+01 0.  0.
     999903    2    3    3    0    0  0.35920919559E-01 -0.12647241708E+00 -0.21345926338E-01  0.14042797170E+00  0.44483501672E-01 0.  0.
         14    1    1    2    0    0 -0.13805836111E-01  0.22308928517E-02  0.30388874811E-02  0.14311283337E-01  0.00000000000E+00 0.  1.
     999901    1    3    3    0    0 -0.22115083448E-01  0.12424152423E+00  0.18307038857E-01  0.88919074496E+00  0.88000000000E+00 0.  1.
        -11    1    4    4    0    0  0.26740732448E-01 -0.91636837087E-01 -0.35319404915E-01  0.10178456743E+00  0.51100000000E-03 0.  1.
         11    1    4    4    0    0  0.91801871107E-02 -0.34835579990E-01  0.13973478577E-01  0.38643404265E-01  0.51100000000E-03 0. -1.
</event>
<event>
 8    1  0.2190295E+004  0.1043930E+01  0.7957747E-01            NaN
         13   -1    0    0    0    0  0.00000000000E+00  0.00000000000E+00  0.74505805969E-08  0.10566000000E+00  0.10566000000E+00 0. -1.
     999900   -1    0    0    0    0 -0.00000000000E+00 -0.00000000000E+00 -0.74505805969E-08  0.93827000000E+00  0.93827000000E+00 0. -1.
     999902    2    1    2    0    0  0.47143667796E-02  0.12842203325E-01  0.25111781045E-02  0.10300212454E+01  0.10299273336E+01 0.  0.
     999903    2    3    3    0    0  0.12082130926E+00  0.47984907810E-01  0.30615278151E-01  0.14125486873E+00  0.45992418240E-01 0.  0.
         14    1    1    2    0    0 -0.47143667796E-02 -0.12842203325E-01 -0.25111781045E-02  0.13908754648E-01  0.00000000000E+00 0.  1.
     999901    1    3    3    0    0 -0.11610694248E+00 -0.35142704485E-01 -0.28104100047E-01  0.88876637662E+00  0.88000000000E+00 0. -1.
        -11    1    4    4    0    0  0.11204726051E+00  0.39959970082E-01  0.12549013958E-01  0.11962076187E+00  0.51100000000E-03 0.  1.
         11    1    4    4    0    0  0.87740487465E-02  0.80249377281E-02  0.18066264193E-01  0.21634106865E-01  0.51100000000E-03 0. -1.
</event>
<event>
 8    1  0.2190295E+004  0.1043930E+01  0.7957747E-01            NaN
         13   -1    0    0    0    0  0.00000000000E+00  0.00000000000E+00  0.74505805969E-08  0.10566000000E+00  0.10566000000E+00 0.  1.
     999900   -1    0    0    0    0 -0.00000000000E+00 -0.00000000000E+00 -0.74505805969E-08  0.93827000000E+00  0.93827000000E+00 0. -1.
     999902    2    1    2    0    0 -0.91711904534E-02  0.72813249897E-02 -0.75540195661E-02  0.10299947340E+01  0.10299004614E+01 0.  0.
     999903    2    3    3    0    0 -0.71130534171E-02 -0.13587279607E-01 -0.13092452939E+00  0.14114153051E+00  0.50442933534E-01 0.  0.
         14    1    1    2    0    0  0.91711904534E-02 -0.72813249897E-02  0.75540195661E-02  0.13935266038E-01  0.00000000000E+00 0.  1.
     999901    1    3    3    0    0 -0.20581370364E-02  0.20868604597E-01  0.12337050982E+00  0.88885320345E+00  0.88000000000E+00 0.  1.
        -11    1    4    4    0    0  0.75587232767E-02  0.17053199167E-01 -0.42607150387E-01  0.46514258938E-01  0.51100000000E-03 0. -1.
         11    1    4    4    0    0 -0.14671776694E-01 -0.30640478774E-01 -0.88317379004E-01  0.94627271576E-01  0.51100000000E-03 0.  1.
</event>
<event>
 8    1  0.2233368E+004  0.1043930E+01  0.7957747E-01            NaN
         13   -1    0    0    0    0  0.00000000000E+00  0.00000000000E+00  0.74505805969E-08  0.10566000000E+00  0.10566000000E+00 0.  1.
     999900   -1    0    0    0    0 -0.00000000000E+00 -0.00000000000E+00 -0.74505805969E-08  0.93827000000E+00  0.93827000000E+00 0.  1.
     999902    2    1    2    0    0 -0.78308814015E-02 -0.10522017644E-01 -0.56769686053E-02  0.10296379207E+01  0.10295387240E+01 0.  0.
     999903    2    3    3    0    0 -0.20507425358E-01  0.31009481273E-01 -0.12993414050E+00  0.13984839223E+00  0.35952044709E-01 0.  0.
         14    1    1    2    0    0  0.78308814015E-02  0.10522017644E-01  0.56769686053E-02  0.14292079323E-01  0.00000000000E+00 0. -1.
     999901    1    3    3    0    0  0.12676543957E-01 -0.41531498917E-01  0.12425717189E+00  0.88978952845E+00  0.88000000000E+00 0. -1.
        -11    1    4    4    0    0 -0.56696896907E-02 -0.57187362991E-02 -0.49880255161E-01  0.50528707701E-01  0.51100000000E-03 0. -1.
         11    1    4    4    0    0 -0.14837735667E-01  0.36728217572E-01 -0.80053885336E-01  0.89319684528E-01  0.51100000000E-03 0.  1.
</event>
<event>
 8    1  0.2190295E+004  0.1043930E+01  0.7957747E-01            NaN
         13   -1    0    0    0    0  0.00000000000E+00  0.00000000000E+00  0.74505805969E-08  0.10566000000E+00  0.10566000000E+00 0.  1.
     999900   -1    0    0    0    0 -0.00000000000E+00 -0.00000000000E+00 -0.74505805969E-08  0.93827000000E+00  0.93827000000E+00 0. -1.
     999902    2    1    2    0    0 -0.10778313006E-01  0.54006789642E-02 -0.63704738604E-02  0.10302946672E+01  0.10302044355E+01 0.  0.
     999903    2    3    3    0    0 -0.94292624591E-02  0.11288362526E+00  0.70245517168E-01  0.14044950435E+00  0.44271963456E-01 0.  0.
         14    1    1    2    0    0  0.10778313006E-01 -0.54006789642E-02  0.63704738604E-02  0.13635332843E-01  0.00000000000E+00 0. -1.
     999901    1    3    3    0    0 -0.13490505465E-02 -0.10748294630E+00 -0.76615991028E-01  0.88984516280E+00  0.88000000000E+00 0. -1.
        -11    1    4    4    0    0  0.17760747565E-01  0.43913118316E-01  0.30325321492E-01  0.56246709761E-01  0.51100000000E-03 0.  1.
         11    1    4    4    0    0 -0.27190010024E-01  0.68970506947E-01  0.39920195676E-01  0.84202794594E-01  0.51100000000E-03 0. -1.
</event>
<event>
 8    1  0.2190295E+004  0.1043930E+01  0.7957747E-01            NaN
         13   -1    0    0    0    0  0.00000000000E+00  0.00000000000E+00  0.74505805969E-08  0.10566000000E+00  0.10566000000E+00 0. -1.
     999900   -1    0    0    0    0 -0.00000000000E+00 -0.00000000000E+00 -0.74505805969E-08  0.93827000000E+00  0.93827000000E+00 0.  1.
     999902    2    1    2    0    0 -0.42611990125E-02 -0.11034969903E-01  0.76509483583E-02  0.10298422256E+01  0.10297458639E+01 0.  0.
     999903    2    3    3    0    0 -0.94867673228E-01 -0.92460236758E-01 -0.19614004347E-01  0.14103235563E+00  0.44233984242E-01 0.  0.
         14    1    1    2    0    0  0.42611990125E-02  0.11034969903E-01 -0.76509483583E-02  0.14087774436E-01  0.00000000000E+00 0.  1.
     999901    1    3    3    0    0  0.90606474216E-01  0.81425266855E-01  0.27264952705E-01  0.88880986994E+00  0.88000000000E+00 0. -1.
        -11    1    4    4    0    0 -0.75041635356E-01 -0.58691241129E-01  0.39080245471E-02  0.95349056623E-01  0.51100000000E-03 0. -1.
         11    1    4    4    0    0 -0.19826037873E-01 -0.33768995629E-01 -0.23522028894E-01  0.45683299003E-01  0.51100000000E-03 0.  1.
</event>
<event>
 7    1  0.2190295E+004  0.1043930E+01  0.7957747E-01            NaN
         13   -1    0    0    0    0  0.00000000000E+00  0.00000000000E+00  0.74505805969E-08  0.10566000000E+00  0.10566000000E+00 0. -1.
     999900   -1    0    0    0    0 -0.00000000000E+00 -0.00000000000E+00 -0.74505805969E-08  0.93827000000E+00  0.93827000000E+00 0.  1.
     999903    2    1    2    0    0 -0.15771017261E-01 -0.47511589719E-01  0.53047306196E-01  0.85061789659E-01  0.43765456953E-01 0.  0.
         14    1    1    2    0    0 -0.10394445863E-01  0.68904726979E-01  0.26681373040E-01  0.74617702806E-01  0.00000000000E+00 0. -1.
     999901    1    1    2    0    0  0.26165463124E-01 -0.21393137260E-01 -0.79728679236E-01  0.88425050753E+00  0.88000000000E+00 0.  1.
        -11    1    3    3    0    0  0.56669415697E-02 -0.39429148008E-01  0.19293677560E-01  0.44263744240E-01  0.51100000000E-03 0. -1.
         11    1    3    3    0    0 -0.21437958831E-01 -0.80824417106E-02  0.33753628637E-01  0.40798045419E-01  0.51100000000E-03 0.  1.
</event>
<event>
 8    1  0.2190295E+004  0.1043930E+01  0.7957747E-01            NaN
         13   -1    0    0    0    0  0.00000000000E+00  0.00000000000E+00  0.74505805969E-08  0.10566000000E+00  0.10566000000E+00 0. -1.
     999900   -1    0    0    0    0 -0.00000000000E+00 -0.00000000000E+00 -0.74505805969E-08  0.93827000000E+00  0.93827000000E+00 0.  1.
     999902    2    1    2    0    0 -0.26748207152E-02  0.66695848394E-02 -0.12859397978E-01  0.10291990074E+01  0.10290935791E+01 0.  0.
     999903    2    3    3    0    0  0.44160526204E-01 -0.70566620550E-01  0.99279728395E-01  0.13749604964E+00  0.46031502105E-01 0.  0.
         14    1    1    2    0    0  0.26748207152E-02 -0.66695848394E-02  0.12859397978E-01  0.14730992640E-01  0.00000000000E+00 0. -1.
     999901    1    3    3    0    0 -0.46835346919E-01  0.77236205389E-01 -0.11213912637E+00  0.89170295772E+00  0.88000000000E+00 0.  1.
        -11    1    4    4    0    0 -0.17478638274E-02 -0.16347519754E-01  0.45525332206E-01  0.48405716848E-01  0.51100000000E-03 0.  1.
         11    1    4    4    0    0  0.45908390031E-01 -0.54219100796E-01  0.53754396188E-01  0.89090332792E-01  0.51100000000E-03 0. -1.
</event>
<event>
 8    1  0.2190295E+004  0.1043930E+01  0.7957747E-01            NaN
         13   -1    0    0    0    0  0.00000000000E+00  0.00000000000E+00  0.74505805969E-08  0.10566000000E+00  0.10566000000E+00 0.  1.
     999900   -1    0    0    0    0 -0.00000000000E+00 -0.00000000000E+00 -0.74505805969E-08  0.93827000000E+00  0.93827000000E+00 0. -1.
     999902    2    1    2    0    0 -0.11397693441E-02 -0.60929633032E-03 -0.12578822946E-01  0.10312849574E+01  0.10312074312E+01 0.  0.
     999903    2    3    3    0    0 -0.40643644117E-01  0.34431337150E-01  0.12089024677E+00  0.13965588950E+00  0.45297824701E-01 0.  0.
         14    1    1    2    0    0  0.11397693441E-02  0.60929633032E-03  0.12578822946E-01  0.12645042621E-01  0.00000000000E+00 0.  1.
     999901    1    3    3    0    0  0.39503874773E-01 -0.35040633481E-01 -0.13346906972E+00  0.89162906788E+00  0.88000000000E+00 0. -1.
        -11    1    4    4    0    0 -0.50470769508E-01  0.26058347829E-01  0.10237914358E+00  0.11708153667E+00  0.51100000000E-03 0. -1.
         11    1    4    4    0    0  0.98271253912E-02  0.83729893217E-02  0.18511103186E-01  0.22574352832E-01  0.51100000000E-03 0.  1.
</event>
<event>
 8    1  0.2190295E+004  0.1043930E+01  0.7957747E-01            NaN
         13   -1    0    0    0    0  0.00000000000E+00  0.00000000000E+00  0.74505805969E-08  0.10566000000E+00  0.10566000000E+00 0.  1.
     999900   -1    0    0    0    0 -0.00000000000E+00 -0.00000000000E+00 -0.74505805969E-08  0.93827000000E+00  0.93827000000E+00 0.  1.
     999902    2    1    2    0    0 -0.88842286561E-02 -0.64306138088E-02  0.97107264066E-02  0.10292814328E+01  0.10291771895E+01 0.  0.
     999903    2    3    3    0    0 -0.27607356304E-01  0.78896018583E-01 -0.10047965095E+00  0.13811752593E+00  0.44649107968E-01 0.  0.
         14    1    1    2    0    0  0.88842286561E-02  0.64306138088E-02 -0.97107264066E-02  0.14648567169E-01  0.00000000000E+00 0. -1.
     999901    1    3    3    0    0  0.18723127648E-01 -0.85326632392E-01  0.11019037736E+00  0.89116390690E+00  0.88000000000E+00 0. -1.
        -11    1    4    4    0    0  0.12751207620E-02  0.41626777373E-01 -0.71571868808E-01  0.82808260778E-01  0.51100000000E-03 0. -1.
         11    1    4    4    0    0 -0.28882477066E-01  0.37269241210E-01 -0.28907782145E-01  0.55309265149E-01  0.51100000000E-03 0.  1.
</event>
<event>
 8    1  0.2190295E+004  0.1043930E+01  0.7957747E-01            NaN
         13   -1    0    0    0    0  0.00000000000E+00  0.00000000000E+00  0.74505805969E-08  0.10566000000E+00  0.10566000000E+00 0.  1.
     999900   -1    0    0    0    0 -0.00000000000E+00 -0.00000000000E+00 -0.74505805969E-08  0.93827000000E+00  0.93827000000E+00 0.  1.
     999902    2    1    2    0    0 -0.51388037553E-02  0.41485672211E-03 -0.12919029881E-01  0.10300202644E+01  0.10299263393E+01 0.  0.
     999903    2    3    3    0    0 -0.28957141686E-01 -0.12272465821E+00 -0.43475433650E-01  0.14060228218E+00  0.44486297185E-01 0.  0.
         14    1    1    2    0    0  0.51388037553E-02 -0.41485672211E-03  0.12919029881E-01  0.13909735555E-01  0.00000000000E+00 0.  1.
     999901    1    3    3    0    0  0.23818337931E-01  0.12313951493E+00  0.30556403768E-01  0.88941798226E+00  0.88000000000E+00 0.  1.
        -11    1    4    4    0    0 -0.37281529381E-01 -0.96261620146E-01 -0.45435931824E-01  0.11278695389E+00  0.51100000000E-03 0.  1.
         11    1    4    4    0    0  0.83243876950E-02 -0.26463038062E-01  0.19604981741E-02  0.27815328293E-01  0.51100000000E-03 0. -1.
</event>
<event>
 8    1  0.2190295E+004  0.1043930E+01  0.7957747E-01            NaN
         13   -1    0    0    0    0  0.00000000000E+00  0.00000000000E+00  0.74505805969E-08  0.10566000000E+00  0.10566000000E+00 0.  1.
     999900   -1    0    0    0    0 -0.00000000000E+00 -0.00000000000E+00 -0.74505805969E-08  0.93827000000E+00  0.93827000000E+00 0.  1.
     999902    2    1    2    0    0  0.27604679252E-02 -0.86299726555E-02  0.99631940920E-02  0.10304629347E+01  0.10303749308E+01 0.  0.
     999903    2    3    3    0    0 -0.15389345069E-02 -0.11050878020E+00  0.76970515846E-01  0.14204425105E+00  0.45139230463E-01 0.  0.
         14    1    1    2    0    0 -0.27604679252E-02  0.86299726555E-02 -0.99631940920E-02  0.13467065297E-01  0.00000000000E+00 0. -1.
     999901    1    3    3    0    0  0.42994024321E-02  0.10187880755E+00 -0.67007321754E-01  0.88841868365E+00  0.88000000000E+00 0. -1.
        -11    1    4    4    0    0  0.25905154140E-02 -0.45561344937E-01  0.58880127346E-01  0.74496157216E-01  0.51100000000E-03 0.  1.
         11    1    4    4    0    0 -0.41294499208E-02 -0.64947435265E-01  0.18090388499E-01  0.67548093838E-01  0.51100000000E-03 0. -1.
</event>
<event>
 8    1  0.2190295E+004  0.1043930E+01  0.7957747E-01            NaN
         13   -1    0    0    0    0  0.00000000000E+00  0.00000000000E+00  0.74505805969E-08  0.10566000000E+00  0.10566000000E+00 0. -1.
     999900   -1    0    0    0    0 -0.00000000000E+00 -0.00000000000E+00 -0.74505805969E-08  0.93827000000E+00  0.93827000000E+00 0. -1.
     999902    2    1    2    0    0 -0.37568304642E-02 -0.17039086908E-02  0.11942836959E-01  0.10312947938E+01  0.10312173890E+01 0.  0.
     999903    2    3    3    0    0  0.71167848701E-01 -0.57604971038E-01 -0.95590431334E-01  0.13983417211E+00  0.45087356867E-01 0.  0.
         14    1    1    2    0    0  0.37568304642E-02  0.17039086908E-02 -0.11942836959E-01  0.12635206155E-01  0.00000000000E+00 0.  1.
     999901    1    3    3    0    0 -0.74924679165E-01  0.55901062347E-01  0.10753326829E+00  0.89146062174E+00  0.88000000000E+00 0.  1.
        -11    1    4    4    0    0  0.48301625310E-01 -0.13577160582E-01 -0.33392690567E-01  0.60272043282E-01  0.51100000000E-03 0. -1.
         11    1    4    4    0    0  0.22866223391E-01 -0.44027810456E-01 -0.62197740767E-01  0.79562128826E-01  0.51100000000E-03 0.  1.
</event>
<event>
 8    1  0.2190295E+004  0.1043930E+01  0.7957747E-01            NaN
         13   -1    0    0    0    0  0.00000000000E+00  0.00000000000E+00  0.74505805969E-08  0.10566000000E+00  0.10566000000E+00 0.  1.
     999900   -1    0    0    0    0 -0.00000000000E+00 -0.00000000000E+00 -0.74505805969E-08  0.93827000000E+00  0.93827000000E+00 0.  1.
     999902    2    1    2    0    0  0.13978245573E-01  0.78879717509E-03  0.15073653669E-04  0.10299295080E+01  0.10298343447E+01 0.  0.
     999903    2    3    3    0    0 -0.41198702168E-01  0.11024849424E+00  0.57396522653E-01  0.13958207491E+00  0.48339748443E-01 0.  0.
         14    1    1    2    0    0 -0.13978245573E-01 -0.78879717509E-03 -0.15073653670E-04  0.14000492045E-01  0.00000000000E+00 0. -1.
     999901    1    3    3    0    0  0.55176947741E-01 -0.10945969707E+00 -0.57381448999E-01  0.89034743305E+00  0.88000000000E+00 0.  1.
        -11    1    4    4    0    0 -0.38689838719E-01  0.10511440707E+00  0.36339088954E-01  0.11775709193E+00  0.51100000000E-03 0.  1.
         11    1    4    4    0    0 -0.25088634485E-02  0.51340871776E-02  0.21057433699E-01  0.21824982977E-01  0.51100000000E-03 0. -1.
</event>
<event>
 8    1  0.2190295E+004  0.1043930E+01  0.7957747E-01            NaN
         13   -1    0    0    0    0  0.00000000000E+00  0.00000000000E+00  0.74505805969E-08  0.10566000000E+00  0.10566000000E+00 0. -1.
     999900   -1    0    0    0    0 -0.00000000000E+00 -0.00000000000E+00 -0.74505805969E-08  0.93827000000E+00  0.93827000000E+00 0. -1.
     999902    2    1    2    0    0  0.56573228305E-02 -0.43675748847E-02 -0.22158615745E-01  0.10206472754E+01  0.10203816813E+01 0.  0.
     999903    2    3    3    0    0 -0.22261251287E-01 -0.91743170969E-01 -0.82239480991E-01  0.13384196875E+00  0.47307162644E-01 0.  0.
         14    1    1    2    0    0 -0.56573228305E-02  0.43675748847E-02  0.22158615745E-01  0.23282724577E-01  0.00000000000E+00 0. -1.
     999901    1    3    3    0    0  0.27918574117E-01  0.87375596084E-01  0.60080865246E-01  0.88680530667E+00  0.88000000000E+00 0.  1.
        -11    1    4    4    0    0  0.49791465929E-04 -0.71481485348E-01 -0.39888386819E-01  0.81859329040E-01  0.51100000000E-03 0. -1.
         11    1    4    4    0    0 -0.22311042752E-01 -0.20261685621E-01 -0.42351094172E-01  0.51982639712E-01  0.51100000000E-03 0.  1.
</event>
<event>
 8    1  0.2190295E+004  0.1043930E+01  0.7957747E-01            NaN
         13   -1    0    0    0    0  0.00000000000E+00  0.00000000000E+00  0.74505805969E-08  0.10566000000E+00  0.10566000000E+00 0.  1.
     999900   -1    0    0    0    0 -0.00000000000E+00 -0.00000000000E+00 -0.74505805969E-08  0.93827000000E+00  0.93827000000E+00 0. -1.
     999902    2    1    2    0    0  0.52435457788E-02 -0.12704484855E-01  0.32475321412E-02  0.10298074941E+01  0.10297106534E+01 0.  0.
     999903    2    3    3    0    0 -0.92031916122E-01 -0.82489226851E-01 -0.46821592553E-01  0.14029114071E+00  0.47063749339E-01 0.  0.
         14    1    1    2    0    0 -0.52435457788E-02  0.12704484855E-01 -0.32475321412E-02  0.14122505895E-01  0.00000000000E+00 0. -1.
     999901    1    3    3    0    0  0.97275461901E-01  0.69784741996E-01  0.50069124694E-01  0.88951635339E+00  0.88000000000E+00 0.  1.
        -11    1    4    4    0    0 -0.52801362536E-01 -0.52315752959E-01 -0.33351770070E-02  0.74406360077E-01  0.51100000000E-03 0.  1.
         11    1    4    4    0    0 -0.39230553586E-01 -0.30173473892E-01 -0.43486415546E-01  0.65884780635E-01  0.51100000000E-03 0. -1.
</event>
<event>
 8    1  0.2190295E+004  0.1043930E+01  0.7957747E-01            NaN
         13   -1    0    0    0    0  0.00000000000E+00  0.00000000000E+00  0.74505805969E-08  0.10566000000E+00  0.10566000000E+00 0. -1.
     999900   -1    0    0    0    0 -0.00000000000E+00 -0.00000000000E+00 -0.74505805969E-08  0.93827000000E+00  0.93827000000E+00 0.  1.
     999902    2    1    2    0    0 -0.20398488063E-02 -0.11220055504E-02 -0.15034396348E-01  0.10287164221E+01  0.10286039199E+01 0.  0.
     999903    2    3    3    0    0  0.12736617786E+00 -0.74616985631E-02 -0.28118730260E-01  0.13913376080E+00  0.47851020849E-01 0.  0.
         14    1    1    2    0    0  0.20398488063E-02  0.11220055504E-02  0.15034396348E-01  0.15213577921E-01  0.00000000000E+00 0. -1.
     999901    1    3    3    0    0 -0.12940602667E+00  0.63396930127E-02  0.13084333911E-01  0.88958266127E+00  0.88000000000E+00 0.  1.
        -11    1    4    4    0    0  0.68096589191E-01  0.19405312540E-01 -0.19813297068E-01  0.73529174318E-01  0.51100000000E-03 0. -1.
         11    1    4    4    0    0  0.59269588669E-01 -0.26867011103E-01 -0.83054331915E-02  0.65604586487E-01  0.51100000000E-03 0.  1.
</event>
<event>
 8    1  0.2190295E+004  0.1043930E+01  0.7957747E-01            NaN
         13   -1    0    0    0    0  0.00000000000E+00  0.00000000000E+00  0.74505805969E-08  0.10566000000E+00  0.10566000000E+00 0.  1.
     999900   -1    0    0    0    0 -0.00000000000E+00 -0.00000000000E+00 -0.74505805969E-08  0.93827000000E+00  0.93827000000E+00 0.  1.
     999902    2    1    2    0    0 -0.75080341282E-02 -0.10632806009E-01  0.28927541158E-02  0.10305960146E+01  0.10305097526E+01 0.  0.
     999903    2    3    3    0    0 -0.12077194799E+00  0.71048605576E-02  0.58224610312E-01  0.14143632518E+00  0.44472310131E-01 0.  0.
         14    1    1    2    0    0  0.75080341282E-02  0.10632806009E-01 -0.28927541158E-02  0.13333985393E-01  0.00000000000E+00 0.  1.
     999901    1    3    3    0    0  0.11326391386E+00 -0.17737666567E-01 -0.55331856196E-01  0.88915968943E+00  0.88000000000E+00 0.  1.
        -11    1    4    4    0    0 -0.49906480486E-01  0.25289416430E-03  0.48471763856E-01  0.69573657100E-01  0.51100000000E-03 0. -1.
         11    1    4    4    0    0 -0.70865467504E-01  0.68519663933E-02  0.97528464565E-02  0.71862668076E-01  0.51100000000E-03 0.  1.
</event>
<event>
 8    1  0.2190295E+004  0.1043930E+01  0.7957747E-01            NaN
         13   -1    0    0    0    0  0.00000000000E+00  0.00000000000E+00  0.74505805969E-08  0.10566000000E+00  0.10566000000E+00 0.  1.
     999900   -1    0    0    0    0 -0.00000000000E+00 -0.00000000000E+00 -0.74505805969E-08  0.93827000000E+00  0.93827000000E+00 0.  1.
     999902    2    1    2    0    0  0.27739484206E-02 -0.12384018285E-01 -0.72497614314E-02  0.10293143324E+01  0.10292105602E+01 0.  0.
     999903    2    3    3    0    0  0.12386030680E+00 -0.32066945993E-01  0.36126792070E-01  0.13974654452E+00  0.43061432558E-01 0.  0.
         14    1    1    2    0    0 -0.27739484206E-02  0.12384018285E-01  0.72497614314E-02  0.14615667605E-01  0.00000000000E+00 0.  1.
     999901    1    3    3    0    0 -0.12108635838E+00  0.19682927709E-01 -0.43376553501E-01  0.88956778787E+00  0.88000000000E+00 0.  1.
        -11    1    4    4    0    0  0.77730655833E-01 -0.69433243919E-02  0.38787334310E-01  0.87149199846E-01  0.51100000000E-03 0.  1.
         11    1    4    4    0    0  0.46129650970E-01 -0.25123621601E-01 -0.26605422409E-02  0.52597344676E-01  0.51100000000E-03 0. -1.
</event>
<event>
 8    1  0.2190295E+004  0.1043930E+01  0.7957747E-01            NaN
         13   -1    0    0    0    0  0.00000000000E+00  0.00000000000E+00  0.74505805969E-08  0.10566000000E+00  0.10566000000E+00 0.  1.
     999900   -1    0    0    0    0 -0.00000000000E+00 -0.00000000000E+00 -0.74505805969E-08  0.93827000000E+00  0.93827000000E+00 0. -1.
     999902    2    1    2    0    0  0.70626806661E-02  0.56229654698E-02 -0.10067105678E-01  0.10304079508E+01  0.10303192220E+01 0.  0.
     999903    2    3    3    0    0  0.63749574057E-01 -0.32821354333E-01  0.11082486963E+00  0.13950602614E+00  0.45150084247E-01 0.  0.
         14    1    1    2    0    0 -0.70626806661E-02 -0.56229654698E-02  0.10067105678E-01  0.13522049238E-01  0.00000000000E+00 0. -1.
     999901    1    3    3    0    0 -0.56686893391E-01  0.38444319803E-01 -0.12089197531E+00  0.89090192463E+00  0.88000000000E+00 0. -1.
        -11    1    4    4    0    0 -0.94847178486E-03  0.24521652151E-02  0.30043923119E-01  0.30163075943E-01  0.51100000000E-03 0. -1.
         11    1    4    4    0    0  0.64698045842E-01 -0.35273519548E-01  0.80780946510E-01  0.10934295019E+00  0.51100000000E-03 0.  1.
</event>
<event>
 8    1  0.2190295E+004  0.1043930E+01  0.7957747E-01            NaN
         13   -1    0    0    0    0  0.00000000000E+00  0.00000000000E+00  0.74505805969E-08  0.10566000000E+00  0.10566000000E+00 0. -1.
     999900   -1    0    0    0    0 -0.00000000000E+00 -0.00000000000E+00 -0.74505805969E-08  0.93827000000E+00  0.93827000000E+00 0. -1.
     999902    2    1    2    0    0 -0.10235952189E-01 -0.82631581172E-02 -0.43160752855E-02  0.10300850368E+01  0.10299919903E+01 0.  0.
     999903    2    3    3    0    0  0.12095328772E+00 -0.35923926028E-01  0.37097076510E-01  0.13896732076E+00  0.44894285640E-01 0.  0.
         14    1    1    2    0    0  0.10235952189E-01  0.82631581172E-02  0.43160752855E-02  0.13844963169E-01  0.00000000000E+00 0. -1.
     999901    1    3    3    0    0 -0.13118923991E+00  0.27660767911E-01 -0.41413151796E-01  0.89111771607E+00  0.88000000000E+00 0. -1.
        -11    1    4    4    0    0  0.80987936223E-01 -0.73950713866E-02  0.75941812233E-02  0.81680264471E-01  0.51100000000E-03 0. -1.
         11    1    4    4    0    0  0.39965351496E-01 -0.28528854642E-01  0.29502895287E-01  0.57287056292E-01  0.51100000000E-03 0.  1.
</event>
<event>
 8    1  0.2190295E+004  0.1043930E+01  0.7957747E-01            NaN
         13   -1    0    0    0    0  0.00000000000E+00  0.00000000000E+00  0.74505805969E-08  0.10566000000E+00  0.10566000000E+00 0.  1.
     999900   -1    0    0    0    0 -0.00000000000E+00 -0.00000000000E+00 -0.74505805969E-08  0.93827000000E+00  0.93827000000E+00 0. -1.
     999902    2    1    2    0    0  0.40050695156E-02 -0.37151199396E-02  0.10745646033E-01  0.10318754736E+01  0.10318050598E+01 0.  0.
     999903    2    3    3    0    0  0.28517910252E-01  0.10692091089E+00  0.77220739447E-01  0.14212261538E+00  0.44614378963E-01 0.  0.
         14    1    1    2    0    0 -0.40050695156E-02  0.37151199396E-02 -0.10745646033E-01  0.12054526397E-01  0.00000000000E+00 0. -1.
     999901    1    3    3    0    0 -0.24512840737E-01 -0.11063603083E+00 -0.66475093414E-01  0.88975285823E+00  0.88000000000E+00 0.  1.
        -11    1    4    4    0    0  0.11865509365E-01  0.10009803660E+00  0.60560949462E-01  0.11759377944E+00  0.51100000000E-03 0. -1.
         11    1    4    4    0    0  0.16652400887E-01  0.68228742930E-02  0.16659789985E-01  0.24528835934E-01  0.51100000000E-03 0.  1.
</event>
<event>
 8    1  0.2190295E+004  0.1043930E+01  0.7957747E-01            NaN
         13   -1    0    0    0    0  0.00000000000E+00  0.00000000000E+00  0.74505805969E-08  0.10566000000E+00  0.10566000000E+00 0. -1.
     999900   -1    0    0    0    0 -0.00000000000E+00 -0.00000000000E+00 -0.74505805969E-08  0.93827000000E+00  0.93827000000E+00 0.  1.
     999902    2    1    2    0    0 -0.10639779120E-01 -0.37961133975E-02 -0.81334518407E-02  0.10300099276E+01  0.10299158619E+01 0.  0.
     999903    2    3    3    0    0 -0.84982201284E-01 -0.49226167200E-01  0.89219731211E-01  0.14036487042E+00  0.45792426650E-01 0.  0.
         14    1    1    2    0    0  0.10639779120E-01  0.37961133975E-02  0.81334518407E-02  0.13920072395E-01  0.00000000000E+00 0. -1.
     999901    1    3    3    0    0  0.74342422164E-01  0.45430053803E-01 -0.97353183052E-01  0.88964505718E+00  0.88000000000E+00 0. -1.
        -11    1    4    4    0    0 -0.43635123151E-01 -0.29674631963E-01  0.18067329128E-01  0.55779003733E-01  0.51100000000E-03 0. -1.
         11    1    4    4    0    0 -0.41347078133E-01 -0.19551535237E-01  0.71152402082E-01  0.84585866688E-01  0.51100000000E-03 0.  1.
</event>
<event>
 8    1  0.2190295E+004  0.1043930E+01  0.7957747E-01            NaN
         13   -1    0    0    0    0  0.00000000000E+00  0.00000000000E+00  0.74505805969E-08  0.10566000000E+00  0.10566000000E+00 0. -1.
     999900   -1    0    0    0    0 -0.00000000000E+00 -0.00000000000E+00 -0.74505805969E-08  0.93827000000E+00  0.93827000000E+00 0. -1.
     999902    2    1    2    0    0 -0.10696923802E-01  0.71503360205E-02 -0.47572735016E-02  0.10302120142E+01  0.10301206779E+01 0.  0.
     999903    2    3    3    0    0 -0.86687081179E-01 -0.10054905443E+00 -0.39407454055E-02  0.14039499397E+00  0.45502334757E-01 0.  0.
         14    1    1    2    0    0  0.10696923802E-01 -0.71503360205E-02  0.47572735016E-02  0.13717985829E-01  0.00000000000E+00 0.  1.
     999901    1    3    3    0    0  0.75990157377E-01  0.10769939045E+00 -0.81652809611E-03  0.88981702020E+00  0.88000000000E+00 0.  1.
        -11    1    4    4    0    0 -0.60777274869E-01 -0.94361366229E-01  0.48287804835E-02  0.11234555095E+00  0.51100000000E-03 0.  1.
         11    1    4    4    0    0 -0.25909806310E-01 -0.61876881971E-02 -0.87695258890E-02  0.28049443017E-01  0.51100000000E-03 0. -1.
</event>
<event>
 8    1  0.2190295E+004  0.1043930E+01  0.7957747E-01            NaN
         13   -1    0    0    0    0  0.00000000000E+00  0.00000000000E+00  0.74505805969E-08  0.10566000000E+00  0.10566000000E+00 0. -1.
     999900   -1    0    0    0    0 -0.00000000000E+00 -0.00000000000E+00 -0.74505805969E-08  0.93827000000E+00  0.93827000000E+00 0.  1.
     999902    2    1    2    0    0  0.40150976175E-02  0.49286616697E-02  0.13713514238E-01  0.10288146704E+01  0.10287036274E+01 0.  0.
     999903    2    3    3    0    0  0.51645337084E-01 -0.62832706723E-01 -0.10239030413E+00  0.13733256777E+00  0.41967486391E-01 0.  0.
         14    1    1    2    0    0 -0.40150976175E-02 -0.49286616697E-02 -0.13713514238E-01  0.15115329553E-01  0.00000000000E+00 0.  1.
     999901    1    3    3    0    0 -0.47630239466E-01  0.67761368392E-01  0.11610381836E+00  0.89148210268E+00  0.88000000000E+00 0. -1.
        -11    1    4    4    0    0  0.36426317254E-01 -0.61174703892E-01 -0.98481652060E-01  0.12152414533E+00  0.51100000000E-03 0. -1.
         11    1    4    4    0    0  0.15219019830E-01 -0.16580028308E-02 -0.39086520667E-02  0.15808422437E-01  0.51100000000E-03 0.  1.
</event>
<event>
 8    1  0.2190295E+004  0.1043930E+01  0.7957747E-01            NaN
         13   -1    0    0    0    0  0.00000000000E+00  0.00000000000E+00  0.74505805969E-08  0.10566000000E+00  0.10566000000E+00 0. -1.
     999900   -1    0    0    0    0 -0.00000000000E+00 -0.00000000000E+00 -0.74505805969E-08  0.93827000000E+00  0.93827000000E+00 0.  1.
     999902    2    1    2    0    0 -0.19877747530E-02  0.12049256914E-01 -0.62814417246E-02  0.10301971070E+01  0.10301055707E+01 0.  0.
     999903    2    3    3    0    0 -0.82058358494E-01 -0.10091292624E+00  0.19293855140E-01  0.13900361002E+00  0.45086116181E-01 0.  0.
         14    1    1    2    0    0  0.19877747530E-02 -0.12049256914E-01  0.62814417246E-02  0.13732893024E-01  0.00000000000E+00 0. -1.
     999901    1    3    3    0    0  0.80070583741E-01  0.11296218315E+00 -0.25575296864E-01  0.89119349695E+00  0.88000000000E+00 0. -1.
        -11    1    4    4    0    0 -0.64509493436E-01 -0.73550788755E-01  0.33657828540E-01  0.10346160550E+00  0.51100000000E-03 0.  1.
         11    1    4    4    0    0 -0.17548865057E-01 -0.27362137485E-01 -0.14363973401E-01  0.35542004521E-01  0.51100000000E-03 0. -1.
</event>
<event>
 8    1  0.2190295E+004  0.1043930E+01  0.7957747E-01            NaN
         13   -1    0    0    0    0  0.00000000000E+00  0.00000000000E+00  0.74505805969E-08  0.10566000000E+00  0.10566000000E+00 0. -1.
     999900   -1    0    0    0    0 -0.00000000000E+00 -0.00000000000E+00 -0.74505805969E-08  0.93827000000E+00  0.93827000000E+00 0.  1.
     999902    2    1    2    0    0 -0.17284644475E-02  0.79540668621E-02 -0.11191909611E-01  0.10300911558E+01  0.10299981920E+01 0.  0.
     999903    2    3    3    0    0 -0.79178362708E-01  0.10459516149E+00  0.25891496416E-01  0.14064572916E+00  0.43606084618E-01 0.  0.
         14    1    1    2    0    0  0.17284644475E-02 -0.79540668621E-02  0.11191909611E-01  0.13838844234E-01  0.00000000000E+00 0. -1.
     999901    1    3    3    0    0  0.77449898260E-01 -0.96641094627E-01 -0.37083406027E-01  0.88944542661E+00  0.88000000000E+00 0.  1.
        -11    1    4    4    0    0 -0.37760028523E-01  0.72604680890E-01 -0.91470932142E-03  0.81843492444E-01  0.51100000000E-03 0.  1.
         11    1    4    4    0    0 -0.41418334184E-01  0.31990480599E-01  0.26806205738E-01  0.58802236714E-01  0.51100000000E-03 0. -1.
</event>
<event>
 8    1  0.2190295E+004  0.1043930E+01  0.7957747E-01            NaN
         13   -1    0    0    0    0  0.00000000000E+00  0.00000000000E+00  0.74505805969E-08  0.10566000000E+00  0.10566000000E+00 0.  1.
     999900   -1    0    0    0    0 -0.00000000000E+00 -0.00000000000E+00 -0.74505805969E-08  0.93827000000E+00  0.93827000000E+00 0.  1.
     999902    2    1    2    0    0  0.89665158642E-02  0.56735832903E-02 -0.94437241092E-02  0.10297253571E+01  0.10296273788E+01 0.  0.
     999903    2    3    3    0    0 -0.55885777151E-01  0.12012594232E+00 -0.71160784667E-02  0.13994415912E+00  0.44500190933E-01 0.  0.
         14    1    1    2    0    0 -0.89665158642E-02 -0.56735832903E-02  0.94437241092E-02  0.14204642873E-01  0.00000000000E+00 0.  1.
     999901    1    3    3    0    0  0.64852293015E-01 -0.11445235903E+00 -0.23276456424E-02  0.88978119801E+00  0.88000000000E+00 0.  1.
        -11    1    4    4    0    0 -0.17376781087E-01  0.78325671910E-01  0.93377795491E-02  0.80773254540E-01  0.51100000000E-03 0.  1.
         11    1    4    4    0    0 -0.38508996064E-01  0.41800270408E-01 -0.16453858016E-01  0.59170904578E-01  0.51100000000E-03 0. -1.
</event>
<event>
 8    1  0.2190295E+004  0.1043930E+01  0.7957747E-01            NaN
         13   -1    0    0    0    0  0.00000000000E+00  0.00000000000E+00  0.74505805969E-08  0.10566000000E+00  0.10566000000E+00 0. -1.
     999900   -1    0    0    0    0 -0.00000000000E+00 -0.00000000000E+00 -0.74505805969E-08  0.93827000000E+00  0.93827000000E+00 0. -1.
     999902    2    1    2    0    0  0.63424181396E-03 -0.39582569842E-02 -0.15150178909E-01  0.10282584340E+01  0.10281390028E+01 0.  0.
     999903    2    3    3    0    0 -0.62483579110E-01 -0.76994505549E-01  0.84129600214E-01  0.13743037678E+00  0.44463100284E-01 0.  0.
         14    1    1    2    0    0 -0.63424181396E-03  0.39582569842E-02  0.15150178909E-01  0.15671566036E-01  0.00000000000E+00 0. -1.
     999901    1    3    3    0    0  0.63117820924E-01  0.73036248565E-01 -0.99279779123E-01  0.89082805718E+00  0.88000000000E+00 0. -1.
        -11    1    4    4    0    0 -0.54081285204E-01 -0.32057828155E-01  0.46072471790E-01  0.77945003260E-01  0.51100000000E-03 0. -1.
         11    1    4    4    0    0 -0.84022939062E-02 -0.44936677393E-01  0.38057128424E-01  0.59485373521E-01  0.51100000000E-03 0.  1.
</event>
<event>
 7    1  0.3713302E+004  0.1043930E+01  0.7957747E-01            NaN
         13   -1    0    0    0    0  0.00000000000E+00  0.00000000000E+00  0.74505805969E-08  0.10566000000E+00  0.10566000000E+00 0.  1.
     999900   -1    0    0    0    0 -0.00000000000E+00 -0.00000000000E+00 -0.74505805969E-08  0.93827000000E+00  0.93827000000E+00 0. -1.
     999903    2    1    2    0    0  0.82328488731E-01 -0.71710337864E-01 -0.25453887739E-01  0.12090578655E+00  0.45276442063E-01 0.  0.
         14    1    1    2    0    0  0.20164494978E-01  0.25123236383E-01 -0.13656998247E-01  0.34989962349E-01  0.00000000000E+00 0. -1.
     999901    1    1    2    0    0 -0.10249298371E+00  0.46587101481E-01  0.39110885985E-01  0.88803425111E+00  0.88000000000E+00 0. -1.
        -11    1    3    3    0    0  0.30304764498E-01 -0.56267142952E-01 -0.12803536026E-01  0.65180992498E-01  0.51100000000E-03 0. -1.
         11    1    3    3    0    0  0.52023724234E-01 -0.15443194912E-01 -0.12650351713E-01  0.55724794048E-01  0.51100000000E-03 0.  1.
</event>
<event>
 8    1  0.2190295E+004  0.1043930E+01  0.7957747E-01            NaN
         13   -1    0    0    0    0  0.00000000000E+00  0.00000000000E+00  0.74505805969E-08  0.10566000000E+00  0.10566000000E+00 0. -1.
     999900   -1    0    0    0    0 -0.00000000000E+00 -0.00000000000E+00 -0.74505805969E-08  0.93827000000E+00  0.93827000000E+00 0. -1.
     999902    2    1    2    0    0 -0.95433689957E-02 -0.79014158380E-02  0.73572500265E-02  0.10295203716E+01  0.10294195248E+01 0.  0.
     999903    2    3    3    0    0 -0.39850973444E-01  0.11745938101E+00 -0.45416609042E-01  0.13855518678E+00  0.41833779841E-01 0.  0.
         14    1    1    2    0    0  0.95433689957E-02  0.79014158380E-02 -0.73572500265E-02  0.14409628447E-01  0.00000000000E+00 0. -1.
     999901    1    3    3    0    0  0.30307604448E-01 -0.12536079685E+00  0.52773859069E-01  0.89096518477E+00  0.88000000000E+00 0. -1.
        -11    1    4    4    0    0 -0.31515268869E-02  0.55081327767E-01 -0.43595944541E-02  0.55345749386E-01  0.51100000000E-03 0. -1.
         11    1    4    4    0    0 -0.36699446557E-01  0.62378053242E-01 -0.41057014588E-01  0.83209437396E-01  0.51100000000E-03 0.  1.
</event>
<event>
 8    1  0.2190295E+004  0.1043930E+01  0.7957747E-01            NaN
         13   -1    0    0    0    0  0.00000000000E+00  0.00000000000E+00  0.74505805969E-08  0.10566000000E+00  0.10566000000E+00 0. -1.
     999900   -1    0    0    0    0 -0.00000000000E+00 -0.00000000000E+00 -0.74505805969E-08  0.93827000000E+00  0.93827000000E+00 0.  1.
     999902    2    1    2    0    0 -0.10167697643E-01  0.46196473553E-02 -0.91132138086E-02  0.10295156362E+01  0.10294147227E+01 0.  0.
     999903    2    3    3    0    0  0.15488176777E-01 -0.10059481376E+00  0.81966069468E-01  0.13821111893E+00  0.44996407374E-01 0.  0.
         14    1    1    2    0    0  0.10167697643E-01 -0.46196473553E-02  0.91132138086E-02  0.14414363772E-01  0.00000000000E+00 0. -1.
     999901    1    3    3    0    0 -0.25655874419E-01  0.10521446111E+00 -0.91079283276E-01  0.89130451730E+00  0.88000000000E+00 0.  1.
        -11    1    4    4    0    0  0.81790136400E-02 -0.11007188583E-05  0.15157819515E-01  0.17231276180E-01  0.51100000000E-03 0.  1.
         11    1    4    4    0    0  0.73091631367E-02 -0.10059371304E+00  0.66808249952E-01  0.12097984275E+00  0.51100000000E-03 0. -1.
</event>
<event>
 8    1  0.2190295E+004  0.1043930E+01  0.7957747E-01            NaN
         13   -1    0    0    0    0  0.00000000000E+00  0.00000000000E+00  0.74505805969E-08  0.10566000000E+00  0.10566000000E+00 0. -1.
     999900   -1    0    0    0    0 -0.00000000000E+00 -0.00000000000E+00 -0.74505805969E-08  0.93827000000E+00  0.93827000000E+00 0.  1.
     999902    2    1    2    0    0 -0.59021935946E-02  0.13176015474E-01 -0.11298499959E-04  0.10294924309E+01  0.10293911899E+01 0.  0.
     999903    2    3    3    0    0 -0.30118170904E-01  0.60618280010E-01 -0.10886842336E+00  0.14118670898E+00  0.59158034925E-01 0.  0.
         14    1    1    2    0    0  0.59021935946E-02 -0.13176015474E-01  0.11298499959E-04  0.14437569071E-01  0.00000000000E+00 0. -1.
     999901    1    3    3    0    0  0.24215977310E-01 -0.47442264536E-01  0.10885712486E+00  0.88830572195E+00  0.88000000000E+00 0. -1.
        -11    1    4    4    0    0 -0.12900811131E-01  0.12756072899E-01 -0.81355621366E-01  0.83355543142E-01  0.51100000000E-03 0.  1.
         11    1    4    4    0    0 -0.17217359774E-01  0.47862207111E-01 -0.27512801996E-01  0.57831165835E-01  0.51100000000E-03 0. -1.
</event>
<event>
 8    1  0.2190295E+004  0.1043930E+01  0.7957747E-01            NaN
         13   -1    0    0    0    0  0.00000000000E+00  0.00000000000E+00  0.74505805969E-08  0.10566000000E+00  0.10566000000E+00 0. -1.
     999900   -1    0    0    0    0 -0.00000000000E+00 -0.00000000000E+00 -0.74505805969E-08  0.93827000000E+00  0.93827000000E+00 0. -1.
     999902    2    1    2    0    0  0.12910812811E-01 -0.48717459569E-03 -0.53784383366E-02  0.10299352143E+01  0.10298401292E+01 0.  0.
     999903    2    3    3    0    0 -0.10152485391E+00  0.66861740398E-01  0.48445587502E-01  0.13834762811E+00  0.44892125888E-01 0.  0.
         14    1    1    2    0    0 -0.12910812811E-01  0.48717459569E-03  0.53784383366E-02  0.13994785653E-01  0.00000000000E+00 0. -1.
     999901    1    3    3    0    0  0.11443566672E+00 -0.67348914993E-01 -0.53824025839E-01  0.89158758623E+00  0.88000000000E+00 0.  1.
        -11    1    4    4    0    0 -0.43720577330E-01  0.53181229776E-01  0.16084363376E-01  0.70701484771E-01  0.51100000000E-03 0.  1.
         11    1    4    4    0    0 -0.57804276576E-01  0.13680510622E-01  0.32361224126E-01  0.67646143344E-01  0.51100000000E-03 0. -1.
</event>
<event>
 8    1  0.2190295E+004  0.1043930E+01  0.7957747E-01            NaN
         13   -1    0    0    0    0  0.00000000000E+00  0.00000000000E+00  0.74505805969E-08  0.10566000000E+00  0.10566000000E+00 0.  1.
     999900   -1    0    0    0    0 -0.00000000000E+00 -0.00000000000E+00 -0.74505805969E-08  0.93827000000E+00  0.93827000000E+00 0.  1.
     999902    2    1    2    0    0  0.47882474028E-02  0.10863356139E-01 -0.86221727346E-02  0.10292575196E+01  0.10291529332E+01 0.  0.
     999903    2    3    3    0    0  0.75579059165E-01  0.19310592579E-01 -0.10809036398E+00  0.14078882798E+00  0.45308654012E-01 0.  0.
         14    1    1    2    0    0 -0.47882474028E-02 -0.10863356139E-01  0.86221727346E-02  0.14672480447E-01  0.00000000000E+00 0.  1.
     999901    1    3    3    0    0 -0.70790811762E-01 -0.84472364394E-02  0.99468191248E-01  0.88846869157E+00  0.88000000000E+00 0. -1.
        -11    1    4    4    0    0  0.64019652153E-01 -0.27098636271E-02 -0.87749109827E-01  0.10865554113E+00  0.51100000000E-03 0.  1.
         11    1    4    4    0    0  0.11559407013E-01  0.22020456206E-01 -0.20341254155E-01  0.32133286847E-01  0.51100000000E-03 0. -1.
</event>
<event>
 8    1  0.2190295E+004  0.1043930E+01  0.7957747E-01            NaN
         13   -1    0    0    0    0  0.00000000000E+00  0.00000000000E+00  0.74505805969E-08  0.10566000000E+00  0.10566000000E+00 0.  1.
     999900   -1    0    0    0    0 -0.00000000000E+00 -0.00000000000E+00 -0.74505805969E-08  0.93827000000E+00  0.93827000000E+00 0.  1.
     999902    2    1    2    0    0  0.11270116050E-01  0.52756521275E-02  0.49807128442E-02  0.10305264362E+01  0.10304392657E+01 0.  0.
     999903    2    3    3    0    0 -0.10068747809E+00 -0.74110655901E-01  0.41500608504E-01  0.13913965623E+00  0.44801627956E-01 0.  0.
         14    1    1    2    0    0 -0.11270116050E-01 -0.52756521275E-02 -0.49807128442E-02  0.13403563765E-01  0.00000000000E+00 0. -1.
     999901    1    3    3    0    0  0.11195759414E+00  0.79386308029E-01 -0.36519895660E-01  0.89138678000E+00  0.88000000000E+00 0. -1.
        -11    1    4    4    0    0 -0.34316179286E-01 -0.14992222451E-02  0.12837995458E-01  0.36673192887E-01  0.51100000000E-03 0.  1.
         11    1    4    4    0    0 -0.66371298804E-01 -0.72611433656E-01  0.28662613046E-01  0.10246646334E+00  0.51100000000E-03 0. -1.
</event>
<event>
 8    1  0.2190295E+004  0.1043930E+01  0.7957747E-01            NaN
         13   -1    0    0    0    0  0.00000000000E+00  0.00000000000E+00  0.74505805969E-08  0.10566000000E+00  0.10566000000E+00 0. -1.
     999900   -1    0    0    0    0 -0.00000000000E+00 -0.00000000000E+00 -0.74505805969E-08  0.93827000000E+00  0.93827000000E+00 0.  1.
     999902    2    1    2    0    0  0.12564681275E-01 -0.12634562554E-02  0.53940449816E-02  0.10301981662E+01  0.10301066442E+01 0.  0.
     999903    2    3    3    0    0 -0.34470059830E-01  0.12713978730E+00  0.40498640466E-02  0.13963572224E+00  0.46141337093E-01 0.  0.
         14    1    1    2    0    0 -0.12564681275E-01  0.12634562554E-02 -0.53940449816E-02  0.13731833764E-01  0.00000000000E+00 0.  1.
     999901    1    3    3    0    0  0.47034741105E-01 -0.12840324355E+00  0.13441809351E-02  0.89056244399E+00  0.88000000000E+00 0.  1.
        -11    1    4    4    0    0 -0.12788569191E-01  0.11046537968E+00  0.99549445443E-02  0.11164904680E+00  0.51100000000E-03 0.  1.
         11    1    4    4    0    0 -0.21681490639E-01  0.16674407624E-01 -0.59050804978E-02  0.27986675448E-01  0.51100000000E-03 0. -1.
</event>
<event>
 8    1  0.2190295E+004  0.1043930E+01  0.7957747E-01            NaN
         13   -1    0    0    0    0  0.00000000000E+00  0.00000000000E+00  0.74505805969E-08  0.10566000000E+00  0.10566000000E+00 0. -1.
     999900   -1    0    0    0    0 -0.00000000000E+00 -0.00000000000E+00 -0.74505805969E-08  0.93827000000E+00  0.93827000000E+00 0. -1.
     999902    2    1    2    0    0  0.16725862563E-01 -0.11976047298E-03 -0.22985249777E-02  0.10270465158E+01  0.10269077337E+01 0.  0.
     999903    2    3    3    0    0 -0.10408100234E+00  0.36332763692E-01 -0.65212194942E-01  0.13582195658E+00  0.45189033544E-01 0.  0.
         14    1    1    2    0    0 -0.16725862563E-01  0.11976047298E-03  0.22985249777E-02  0.16883484182E-01  0.00000000000E+00 0.  1.
     999901    1    3    3    0    0  0.12080686491E+00 -0.36452524165E-01  0.62913669965E-01  0.89122455924E+00  0.88000000000E+00 0.  1.
        -11    1    4    4    0    0 -0.76249956420E-01  0.32299459521E-01 -0.24536827731E-01  0.86369137865E-01  0.51100000000E-03 0. -1.
         11    1    4    4    0    0 -0.27831045924E-01  0.40333041714E-02 -0.40675367211E-01  0.49452818712E-01  0.51100000000E-03 0.  1.
</event>
<event>
 8    1  0.2190295E+004  0.1043930E+01  0.7957747E-01            NaN
         13   -1    0    0    0    0  0.00000000000E+00  0.00000000000E+00  0.74505805969E-08  0.10566000000E+00  0.10566000000E+00 0.  1.
     999900   -1    0    0    0    0 -0.00000000000E+00 -0.00000000000E+00 -0.74505805969E-08  0.93827000000E+00  0.93827000000E+00 0.  1.
     999902    2    1    2    0    0  0.18676916954E-02  0.12319292058E-01  0.81215623384E-02  0.10290567689E+01  0.10289492799E+01 0.  0.
     999903    2    3    3    0    0 -0.18904509311E-01 -0.12018164991E+00  0.45867557641E-01  0.13809507267E+00  0.46533931743E-01 0.  0.
         14    1    1    2    0    0 -0.18676916954E-02 -0.12319292058E-01 -0.81215623384E-02  0.14873231118E-01  0.00000000000E+00 0. -1.
     999901    1    3    3    0    0  0.20772201007E-01  0.13250094197E+00 -0.37745995303E-01  0.89096169621E+00  0.88000000000E+00 0. -1.
        -11    1    4    4    0    0 -0.31281527634E-01 -0.52703678561E-01  0.26767826532E-01  0.66880410908E-01  0.51100000000E-03 0. -1.
         11    1    4    4    0    0  0.12377018323E-01 -0.67477971351E-01  0.19099731109E-01  0.71214661761E-01  0.51100000000E-03 0.  1.
</event>
<event>
 8    1  0.2190295E+004  0.1043930E+01  0.7957747E-01            NaN
         13   -1    0    0    0    0  0.00000000000E+00  0.00000000000E+00  0.74505805969E-08  0.10566000000E+00  0.10566000000E+00 0.  1.
     999900   -1    0    0    0    0 -0.00000000000E+00 -0.00000000000E+00 -0.74505805969E-08  0.93827000000E+00  0.93827000000E+00 0.  1.
     999902    2    1    2    0    0  0.12010069130E-01  0.62144236405E-03 -0.53953460290E-02  0.10307490399E+01  0.10306647590E+01 0.  0.
     999903    2    3    3    0    0  0.91235194365E-01 -0.86180381573E-01  0.46272898489E-01  0.14143425612E+00  0.45951592039E-01 0.  0.
         14    1    1    2    0    0 -0.12010069130E-01 -0.62144236405E-03  0.53953460290E-02  0.13180960128E-01  0.00000000000E+00 0.  1.
     999901    1    3    3    0    0 -0.79225125234E-01  0.86801823937E-01 -0.51668244518E-01  0.88931478375E+00  0.88000000000E+00 0. -1.
        -11    1    4    4    0    0  0.60307216764E-01 -0.81160109570E-01  0.43167896866E-01  0.10994385940E+00  0.51100000000E-03 0.  1.
         11    1    4    4    0    0  0.30927977601E-01 -0.50202720030E-02  0.31050016232E-02  0.31490396719E-01  0.51100000000E-03 0. -1.
</event>
<event>
 7    1  0.2190295E+004  0.1043930E+01  0.7957747E-01            NaN
         13   -1    0    0    0    0  0.00000000000E+00  0.00000000000E+00  0.74505805969E-08  0.10566000000E+00  0.10566000000E+00 0. -1.
     999900   -1    0    0    0    0 -0.00000000000E+00 -0.00000000000E+00 -0.74505805969E-08  0.93827000000E+00  0.93827000000E+00 0. -1.
     999903    2    1    2    0    0 -0.78671210220E-01  0.86294939825E-01  0.31396923512E-02  0.12524044427E+00  0.45158999721E-01 0.  0.
         14    1    1    2    0    0  0.37463235290E-02 -0.30492291345E-02 -0.30783849158E-01  0.31160521614E-01  0.00000000000E+00 0.  1.
     999901    1    1    2    0    0  0.74924886691E-01 -0.83245710691E-01  0.27644156807E-01  0.88752903412E+00  0.88000000000E+00 0.  1.
        -11    1    3    3    0    0 -0.40731807945E-01  0.29870969212E-01 -0.18639141136E-01  0.53842675300E-01  0.51100000000E-03 0.  1.
         11    1    3    3    0    0 -0.37939402275E-01  0.56423970613E-01  0.21778833487E-01  0.71397768969E-01  0.51100000000E-03 0. -1.
</event>
<event>
 8    1  0.2190295E+004  0.1043930E+01  0.7957747E-01            NaN
         13   -1    0    0    0    0  0.00000000000E+00  0.00000000000E+00  0.74505805969E-08  0.10566000000E+00  0.10566000000E+00 0. -1.
     999900   -1    0    0    0    0 -0.00000000000E+00 -0.00000000000E+00 -0.74505805969E-08  0.93827000000E+00  0.93827000000E+00 0. -1.
     999902    2    1    2    0    0 -0.23232201816E-02 -0.11296358919E-01  0.75199597622E-02  0.10301621072E+01  0.10300701007E+01 0.  0.
     999903    2    3    3    0    0  0.18519123419E-01 -0.75983973606E-01 -0.10701091957E+00  0.14014176301E+00  0.45517630162E-01 0.  0.
         14    1    1    2    0    0  0.23232201816E-02  0.11296358919E-01 -0.75199597622E-02  0.13767892782E-01  0.00000000000E+00 0.  1.
     999901    1    3    3    0    0 -0.20842343600E-01  0.64687614686E-01  0.11453087933E+00  0.89002034421E+00  0.88000000000E+00 0.  1.
        -11    1    4    4    0    0  0.31070614047E-01 -0.69067244977E-01 -0.84726708807E-01  0.11364217392E+00  0.51100000000E-03 0. -1.
         11    1    4    4    0    0 -0.12551490628E-01 -0.69167286280E-02 -0.22284210763E-01  0.26499589096E-01  0.51100000000E-03 0.  1.
</event>
<event>
 8    1  0.2190295E+004  0.1043930E+01  0.7957747E-01            NaN
         13   -1    0    0    0    0  0.00000000000E+00  0.00000000000E+00  0.74505805969E-08  0.10566000000E+00  0.10566000000E+00 0.  1.
     999900   -1    0    0    0    0 -0.00000000000E+00 -0.00000000000E+00 -0.74505805969E-08  0.93827000000E+00  0.93827000000E+00 0.  1.
     999902    2    1    2    0    0 -0.16403156709E-02 -0.48827489582E-02 -0.13638499058E-01  0.10293512302E+01  0.10292479850E+01 0.  0.
     999903    2    3    3    0    0 -0.12012163584E+00  0.27995076244E-01  0.46182293800E-01  0.13879112447E+00  0.43786302453E-01 0.  0.
         14    1    1    2    0    0  0.16403156709E-02  0.48827489582E-02  0.13638499058E-01  0.14578769820E-01  0.00000000000E+00 0.  1.
     999901    1    3    3    0    0  0.11848132016E+00 -0.32877825202E-01 -0.59820792858E-01  0.89056010571E+00  0.88000000000E+00 0. -1.
        -11    1    4    4    0    0 -0.63552448285E-01  0.34915953050E-01  0.15839263804E-01  0.74223856403E-01  0.51100000000E-03 0. -1.
         11    1    4    4    0    0 -0.56569187550E-01 -0.69208768064E-02  0.30343029996E-01  0.64567268071E-01  0.51100000000E-03 0.  1.
</event>
<event>
 8    1  0.2190295E+004  0.1043930E+01  0.7957747E-01            NaN
         13   -1    0    0    0    0  0.00000000000E+00  0.00000000000E+00  0.74505805969E-08  0.10566000000E+00  0.10566000000E+00 0.  1.
     999900   -1    0    0    0    0 -0.00000000000E+00 -0.00000000000E+00 -0.74505805969E-08  0.93827000000E+00  0.93827000000E+00 0.  1.
     999902    2    1    2    0    0  0.29648178345E-02 -0.64349985442E-02  0.11615633991E-01  0.10303240342E+01  0.10302341934E+01 0.  0.
     999903    2    3    3    0    0  0.48966467316E-01  0.10088700499E+00  0.73251186615E-01  0.14047398758E+00  0.42323777594E-01 0.  0.
         14    1    1    2    0    0 -0.29648178345E-02  0.64349985442E-02 -0.11615633991E-01  0.13605965752E-01  0.00000000000E+00 0. -1.
     999901    1    3    3    0    0 -0.46001649482E-01 -0.10732200354E+00 -0.61635552624E-01  0.88985004666E+00  0.88000000000E+00 0.  1.
        -11    1    4    4    0    0  0.24881389045E-01  0.53198195244E-01  0.13392538165E-01  0.60239129289E-01  0.51100000000E-03 0. -1.
         11    1    4    4    0    0  0.24085078272E-01  0.47688809748E-01  0.59858648450E-01  0.80234858296E-01  0.51100000000E-03 0.  1.
</event>
<event>
 8    1  0.2190295E+004  0.1043930E+01  0.7957747E-01            NaN
         13   -1    0    0    0    0  0.00000000000E+00  0.00000000000E+00  0.74505805969E-08  0.10566000000E+00  0.10566000000E+00 0. -1.
     999900   -1    0    0    0    0 -0.00000000000E+00 -0.00000000000E+00 -0.74505805969E-08  0.93827000000E+00  0.93827000000E+00 0. -1.
     999902    2    1    2    0    0  0.10173253554E-01 -0.13814558288E-01 -0.53761326576E-02  0.10259511260E+01  0.10257935821E+01 0.  0.
     999903    2    3    3    0    0  0.20138399261E-01  0.67054270865E-02 -0.12855984333E+00  0.13707846890E+00  0.42571768133E-01 0.  0.
         14    1    1    2    0    0 -0.10173253554E-01  0.13814558288E-01  0.53761326576E-02  0.17978874017E-01  0.00000000000E+00 0. -1.
     999901    1    3    3    0    0 -0.99651457065E-02 -0.20519985374E-01  0.12318371067E+00  0.88887265708E+00  0.88000000000E+00 0.  1.
        -11    1    4    4    0    0  0.11271478435E-02 -0.28871627780E-02 -0.10601938259E+00  0.10606590770E+00  0.51100000000E-03 0.  1.
         11    1    4    4    0    0  0.19011251417E-01  0.95925898645E-02 -0.22540460746E-01  0.31012561204E-01  0.51100000000E-03 0. -1.
</event>
<event>
 8    1  0.2190295E+004  0.1043930E+01  0.7957747E-01            NaN
         13   -1    0    0    0    0  0.00000000000E+00  0.00000000000E+00  0.74505805969E-08  0.10566000000E+00  0.10566000000E+00 0.  1.
     999900   -1    0    0    0    0 -0.00000000000E+00 -0.00000000000E+00 -0.74505805969E-08  0.93827000000E+00  0.93827000000E+00 0.  1.
     999902    2    1    2    0    0  0.12573986457E-02  0.34232439202E-02  0.14575344316E-01  0.10289053432E+01  0.10287956381E+01 0.  0.
     999903    2    3    3    0    0 -0.53691901431E-01 -0.77138531228E-01  0.93569420008E-01  0.14000169870E+00  0.44856058666E-01 0.  0.
         14    1    1    2    0    0 -0.12573986457E-02 -0.34232439202E-02 -0.14575344316E-01  0.15024656808E-01  0.00000000000E+00 0. -1.
     999901    1    3    3    0    0  0.54949300077E-01  0.80561775149E-01 -0.78994075693E-01  0.88890364449E+00  0.88000000000E+00 0.  1.
        -11    1    4    4    0    0 -0.16796914093E-01 -0.61768505476E-01  0.61285404855E-01  0.88620802079E-01  0.51100000000E-03 0.  1.
         11    1    4    4    0    0 -0.36894987338E-01 -0.15370025753E-01  0.32284015153E-01  0.51380896622E-01  0.51100000000E-03 0. -1.
</event>
<event>
 8    1  0.2190295E+004  0.1043930E+01  0.7957747E-01            NaN
         13   -1    0    0    0    0  0.00000000000E+00  0.00000000000E+00  0.74505805969E-08  0.10566000000E+00  0.10566000000E+00 0. -1.
     999900   -1    0    0    0    0 -0.00000000000E+00 -0.00000000000E+00 -0.74505805969E-08  0.93827000000E+00  0.93827000000E+00 0. -1.
     999902    2    1    2    0    0  0.11069643870E-01  0.96719899623E-02 -0.22233684415E-02  0.10290629972E+01  0.10289555989E+01 0.  0.
     999903    2    3    3    0    0  0.69846426493E-01  0.87932853197E-01 -0.70487076417E-01  0.14100927882E+00  0.48004987307E-01 0.  0.
         14    1    1    2    0    0 -0.11069643870E-01 -0.96719899623E-02  0.22233684415E-02  0.14867002807E-01  0.00000000000E+00 0. -1.
     999901    1    3    3    0    0 -0.58776782624E-01 -0.78260863235E-01  0.68263707975E-01  0.88805371837E+00  0.88000000000E+00 0.  1.
        -11    1    4    4    0    0  0.46458704531E-01  0.52891567295E-01 -0.16110437627E-01  0.72220055657E-01  0.51100000000E-03 0. -1.
         11    1    4    4    0    0  0.23387721962E-01  0.35041285902E-01 -0.54376638790E-01  0.68789223163E-01  0.51100000000E-03 0.  1.
</event>
<event>
 8    1  0.2190295E+004  0.1043930E+01  0.7957747E-01            NaN
         13   -1    0    0    0    0  0.00000000000E+00  0.00000000000E+00  0.74505805969E-08  0.10566000000E+00  0.10566000000E+00 0. -1.
     999900   -1    0    0    0    0 -0.00000000000E+00 -0.00000000000E+00 -0.74505805969E-08  0.93827000000E+00  0.93827000000E+00 0.  1.
     999902    2    1    2    0    0  0.59212420928E-02 -0.49431952462E-02 -0.11963210601E-01  0.10296957211E+01  0.10295973307E+01 0.  0.
     999903    2    3    3    0    0 -0.11338890157E+00 -0.36741726416E-01  0.54904605170E-01  0.13856309253E+00  0.44477156876E-01 0.  0.
         14    1    1    2    0    0 -0.59212420928E-02  0.49431952462E-02  0.11963210601E-01  0.14234278874E-01  0.00000000000E+00 0. -1.
     999901    1    3    3    0    0  0.11931014366E+00  0.31798531169E-01 -0.66867815771E-01  0.89113262860E+00  0.88000000000E+00 0.  1.
        -11    1    4    4    0    0 -0.51588761297E-01  0.44689304384E-02  0.13476068220E-01  0.53509225065E-01  0.51100000000E-03 0.  1.
         11    1    4    4    0    0 -0.61800140270E-01 -0.41210656854E-01  0.41428536950E-01  0.85053867464E-01  0.51100000000E-03 0. -1.
</event>
<event>
 7    1  0.2451415E+004  0.1043930E+01  0.7957747E-01            NaN
         13   -1    0    0    0    0  0.00000000000E+00  0.00000000000E+00  0.74505805969E-08  0.10566000000E+00  0.10566000000E+00 0.  1.
     999900   -1    0    0    0    0 -0.00000000000E+00 -0.00000000000E+00 -0.74505805969E-08  0.93827000000E+00  0.93827000000E+00 0. -1.
     999903    2    1    2    0    0  0.66240564376E-01  0.48631427932E-01  0.10541159818E-01  0.94971136281E-01  0.46428143668E-01 0.  0.
         14    1    1    2    0    0 -0.58101299351E-01 -0.36803604293E-01  0.12996865175E-03  0.68777054074E-01  0.00000000000E+00 0. -1.
     999901    1    1    2    0    0 -0.81392650248E-02 -0.11827823639E-01 -0.10671128470E-01  0.88018180965E+00  0.88000000000E+00 0. -1.
        -11    1    3    3    0    0  0.16349922928E-01  0.40565230902E-01  0.71142313239E-02  0.44314008465E-01  0.51100000000E-03 0. -1.
         11    1    3    3    0    0  0.49890641448E-01  0.80661970304E-02  0.34269284946E-02  0.50657127816E-01  0.51100000000E-03 0.  1.
</event>
<event>
 8    1  0.2190295E+004  0.1043930E+01  0.7957747E-01            NaN
         13   -1    0    0    0    0  0.00000000000E+00  0.00000000000E+00  0.74505805969E-08  0.10566000000E+00  0.10566000000E+00 0. -1.
     999900   -1    0    0    0    0 -0.00000000000E+00 -0.00000000000E+00 -0.74505805969E-08  0.93827000000E+00  0.93827000000E+00 0. -1.
     999902    2    1    2    0    0 -0.61344106844E-02  0.26487431550E-02  0.10929697456E-01  0.10311196479E+01  0.10310400686E+01 0.  0.
     999903    2    3    3    0    0  0.40232786959E-01  0.10724691394E-01 -0.12475783569E+00  0.13947720576E+00  0.46429271038E-01 0.  0.
         14    1    1    2    0    0  0.61344106844E-02 -0.26487431550E-02 -0.10929697456E-01  0.12810352112E-01  0.00000000000E+00 0.  1.
     999901    1    3    3    0    0 -0.46367197644E-01 -0.80759482387E-02  0.13568753314E+00  0.89164244213E+00  0.88000000000E+00 0.  1.
        -11    1    4    4    0    0 -0.45223765472E-02  0.72379557313E-02 -0.60436044543E-01  0.61037828384E-01  0.51100000000E-03 0.  1.
         11    1    4    4    0    0  0.44755163507E-01  0.34867356624E-02 -0.64321791143E-01  0.78439377374E-01  0.51100000000E-03 0. -1.
</event>
<event>
 8    1  0.2190295E+004  0.1043930E+01  0.7957747E-01            NaN
         13   -1    0    0    0    0  0.00000000000E+00  0.00000000000E+00  0.74505805969E-08  0.10566000000E+00  0.10566000000E+00 0. -1.
     999900   -1    0    0    0    0 -0.00000000000E+00 -0.00000000000E+00 -0.74505805969E-08  0.93827000000E+00  0.93827000000E+00 0.  1.
     999902    2    1    2    0    0  0.11753105681E-01 -0.43411430771E-02 -0.59767138905E-02  0.10300482809E+01  0.10299547363E+01 0.  0.
     999903    2    3    3    0    0  0.10496823879E-01  0.76830773541E-02  0.13170697719E+00  0.13926045043E+00  0.43330499907E-01 0.  0.
         14    1    1    2    0    0 -0.11753105681E-01  0.43411430771E-02  0.59767138905E-02  0.13881719105E-01  0.00000000000E+00 0. -1.
     999901    1    3    3    0    0  0.12562818018E-02 -0.12024220431E-01 -0.13768369108E+00  0.89078783047E+00  0.88000000000E+00 0.  1.
        -11    1    4    4    0    0  0.11101795353E-01  0.24383766233E-01  0.61400239103E-01  0.66993047390E-01  0.51100000000E-03 0. -1.
         11    1    4    4    0    0 -0.60497147368E-03 -0.16700688879E-01  0.70306738091E-01  0.72267403036E-01  0.51100000000E-03 0.  1.
</event>
<event>
 8    1  0.2190295E+004  0.1043930E+01  0.7957747E-01            NaN
         13   -1    0    0    0    0  0.00000000000E+00  0.00000000000E+00  0.74505805969E-08  0.10566000000E+00  0.10566000000E+00 0.  1.
     999900   -1    0    0    0    0 -0.00000000000E+00 -0.00000000000E+00 -0.74505805969E-08  0.93827000000E+00  0.93827000000E+00 0.  1.
     999902    2    1    2    0    0 -0.72320722957E-03  0.13723822641E-01 -0.36003980990E-03  0.10301824197E+01  0.10300906862E+01 0.  0.
     999903    2    3    3    0    0 -0.41384481180E-01  0.10121364140E+00 -0.77581443975E-01  0.14154810069E+00  0.45388411216E-01 0.  0.
         14    1    1    2    0    0  0.72320722957E-03 -0.13723822641E-01  0.36003980990E-03  0.13747580341E-01  0.00000000000E+00 0. -1.
     999901    1    3    3    0    0  0.40661273950E-01 -0.87489818756E-01  0.77221404165E-01  0.88863431897E+00  0.88000000000E+00 0.  1.
        -11    1    4    4    0    0  0.31227488195E-02  0.51044941067E-01 -0.37477875573E-01  0.63404967055E-01  0.51100000000E-03 0. -1.
         11    1    4    4    0    0 -0.44507229999E-01  0.50168700330E-01 -0.40103568402E-01  0.78143133637E-01  0.51100000000E-03 0.  1.
</event>
<event>
 8    1  0.2190295E+004  0.1043930E+01  0.7957747E-01            NaN
         13   -1    0    0    0    0  0.00000000000E+00  0.00000000000E+00  0.74505805969E-08  0.10566000000E+00  0.10566000000E+00 0.  1.
     999900   -1    0    0    0    0 -0.00000000000E+00 -0.00000000000E+00 -0.74505805969E-08  0.93827000000E+00  0.93827000000E+00 0.  1.
     999902    2    1    2    0    0  0.37309249513E-02 -0.91739091181E-02 -0.88066552781E-02  0.10306771668E+01  0.10305919584E+01 0.  0.
     999903    2    3    3    0    0 -0.19725899190E-01 -0.29723449835E-01  0.12788009136E+00  0.13957909540E+00  0.43086094464E-01 0.  0.
         14    1    1    2    0    0 -0.37309249513E-02  0.91739091181E-02  0.88066552781E-02  0.13252833157E-01  0.00000000000E+00 0.  1.
     999901    1    3    3    0    0  0.23456824141E-01  0.20549540717E-01 -0.13668674664E+00  0.89109807144E+00  0.88000000000E+00 0.  1.
        -11    1    4    4    0    0 -0.16367599766E-01 -0.32374357784E-01  0.51052647946E-01  0.62630913671E-01  0.51100000000E-03 0.  1.
         11    1    4    4    0    0 -0.33582994239E-02  0.26509079490E-02  0.76827443419E-01  0.76948181728E-01  0.51100000000E-03 0. -1.
</event>
<event>
 8    1  0.2190295E+004  0.1043930E+01  0.7957747E-01            NaN
         13   -1    0    0    0    0  0.00000000000E+00  0.00000000000E+00  0.74505805969E-08  0.10566000000E+00  0.10566000000E+00 0. -1.
     999900   -1    0    0    0    0 -0.00000000000E+00 -0.00000000000E+00 -0.74505805969E-08  0.93827000000E+00  0.93827000000E+00 0. -1.
     999902    2    1    2    0    0  0.43535992031E-04 -0.68979254978E-02 -0.11833952597E-01  0.10302323467E+01  0.10301412828E+01 0.  0.
     999903    2    3    3    0    0 -0.90798933755E-01 -0.42160046314E-01  0.88180654094E-01  0.13922241802E+00  0.39813792168E-01 0.  0.
         14    1    1    2    0    0 -0.43535992031E-04  0.68979254978E-02  0.11833952597E-01  0.13697653289E-01  0.00000000000E+00 0. -1.
     999901    1    3    3    0    0  0.90842469747E-01  0.35262120816E-01 -0.10001460669E+00  0.89100992869E+00  0.88000000000E+00 0.  1.
        -11    1    4    4    0    0 -0.27048507503E-01 -0.48027014968E-02  0.47495744202E-01  0.54870707469E-01  0.51100000000E-03 0.  1.
         11    1    4    4    0    0 -0.63750426252E-01 -0.37357344817E-01  0.40684909892E-01  0.84351710551E-01  0.51100000000E-03 0. -1.
</event>
<event>
 8    1  0.2190295E+004  0.1043930E+01  0.7957747E-01            NaN
         13   -1    0    0    0    0  0.00000000000E+00  0.00000000000E+00  0.74505805969E-08  0.10566000000E+00  0.10566000000E+00 0. -1.
     999900   -1    0    0    0    0 -0.00000000000E+00 -0.00000000000E+00 -0.74505805969E-08  0.93827000000E+00  0.93827000000E+00 0.  1.
     999902    2    1    2    0    0 -0.24767083133E-01 -0.33501304286E-02 -0.13562413614E-01  0.10154946199E+01  0.10150964250E+01 0.  0.
     999903    2    3    3    0    0  0.33533143571E-01 -0.51137094025E-01  0.99839871401E-01  0.12502138131E+00  0.43850561685E-01 0.  0.
         14    1    1    2    0    0  0.24767083133E-01  0.33501304286E-02  0.13562413614E-01  0.28435380142E-01  0.00000000000E+00 0. -1.
     999901    1    3    3    0    0 -0.58300226704E-01  0.47786963597E-01 -0.11340228502E+00  0.89047323855E+00  0.88000000000E+00 0.  1.
        -11    1    4    4    0    0  0.72774590441E-02 -0.39197262708E-01  0.81795122847E-01  0.90995000173E-01  0.51100000000E-03 0. -1.
         11    1    4    4    0    0  0.26255684527E-01 -0.11939831317E-01  0.18044748554E-01  0.34026381137E-01  0.51100000000E-03 0.  1.
</event>
<event>
 8    1  0.2190295E+004  0.1043930E+01  0.7957747E-01            NaN
         13   -1    0    0    0    0  0.00000000000E+00  0.00000000000E+00  0.74505805969E-08  0.10566000000E+00  0.10566000000E+00 0. -1.
     999900   -1    0    0    0    0 -0.00000000000E+00 -0.00000000000E+00 -0.74505805969E-08  0.93827000000E+00  0.93827000000E+00 0. -1.
     999902    2    1    2    0    0 -0.21739231024E-01  0.30686614451E-02 -0.93065662529E-02  0.10200841823E+01  0.10198054304E+01 0.  0.
     999903    2    3    3    0    0  0.82552983955E-01 -0.39126969739E-01 -0.82821536074E-01  0.12988095367E+00  0.40788973599E-01 0.  0.
         14    1    1    2    0    0  0.21739231024E-01 -0.30686614451E-02  0.93065662529E-02  0.23845817746E-01  0.00000000000E+00 0. -1.
     999901    1    3    3    0    0 -0.10429221498E+00  0.42195631184E-01  0.73514969821E-01  0.89020322859E+00  0.88000000000E+00 0.  1.
        -11    1    4    4    0    0 -0.35667489229E-02 -0.15836075040E-02 -0.10822996882E-01  0.11516418415E-01  0.51100000000E-03 0. -1.
         11    1    4    4    0    0  0.86119732878E-01 -0.37543362235E-01 -0.71998539192E-01  0.11836453525E+00  0.51100000000E-03 0.  1.
</event>
<event>
 8    1  0.2190295E+004  0.1043930E+01  0.7957747E-01            NaN
         13   -1    0    0    0    0  0.00000000000E+00  0.00000000000E+00  0.74505805969E-08  0.10566000000E+00  0.10566000000E+00 0.  1.
     999900   -1    0    0    0    0 -0.00000000000E+00 -0.00000000000E+00 -0.74505805969E-08  0.93827000000E+00  0.93827000000E+00 0. -1.
     999902    2    1    2    0    0 -0.95618880207E-02 -0.41700037604E-02 -0.93229176073E-02  0.10299394522E+01  0.10298444251E+01 0.  0.
     999903    2    3    3    0    0  0.58459919311E-01  0.92859205942E-01  0.71654622409E-01  0.13831229036E+00  0.44221153981E-01 0.  0.
         14    1    1    2    0    0  0.95618880207E-02  0.41700037604E-02  0.93229176073E-02  0.13990547759E-01  0.00000000000E+00 0.  1.
     999901    1    3    3    0    0 -0.68021807332E-01 -0.97029209702E-01 -0.80977540016E-01  0.89162716188E+00  0.88000000000E+00 0. -1.
        -11    1    4    4    0    0  0.22416682838E-01  0.73902129552E-01  0.41808861297E-01  0.87819556056E-01  0.51100000000E-03 0.  1.
         11    1    4    4    0    0  0.36043236473E-01  0.18957076389E-01  0.29845761112E-01  0.50492734309E-01  0.51100000000E-03 0. -1.
</event>
<event>
 8    1  0.2190295E+004  0.1043930E+01  0.7957747E-01            NaN
         13   -1    0    0    0    0  0.00000000000E+00  0.00000000000E+00  0.74505805969E-08  0.10566000000E+00  0.10566000000E+00 0.  1.
     999900   -1    0    0    0    0 -0.00000000000E+00 -0.00000000000E+00 -0.74505805969E-08  0.93827000000E+00  0.93827000000E+00 0.  1.
     999902    2    1    2    0    0  0.18167804494E-02  0.10289541611E-01 -0.90181151599E-02  0.10301277625E+01  0.10300352933E+01 0.  0.
     999903    2    3    3    0    0  0.22069679087E-01  0.93754975352E-01  0.91932027209E-01  0.14020215342E+00  0.43909908430E-01 0.  0.
         14    1    1    2    0    0 -0.18167804494E-02 -0.10289541611E-01  0.90181151599E-02  0.13802237456E-01  0.00000000000E+00 0.  1.
     999901    1    3    3    0    0 -0.20252898638E-01 -0.83465433741E-01 -0.10095014237E+00  0.88992560913E+00  0.88000000000E+00 0.  1.
        -11    1    4    4    0    0 -0.74475745713E-02  0.49054221664E-01  0.28671143466E-01  0.57306881076E-01  0.51100000000E-03 0. -1.
         11    1    4    4    0    0  0.29517253659E-01  0.44700753688E-01  0.63260883743E-01  0.82895272342E-01  0.51100000000E-03 0.  1.
</event>
<event>
 8    1  0.2190295E+004  0.1043930E+01  0.7957747E-01            NaN
         13   -1    0    0    0    0  0.00000000000E+00  0.00000000000E+00  0.74505805969E-08  0.10566000000E+00  0.10566000000E+00 0.  1.
     999900   -1    0    0    0    0 -0.00000000000E+00 -0.00000000000E+00 -0.74505805969E-08  0.93827000000E+00  0.93827000000E+00 0. -1.
     999902    2    1    2    0    0 -0.10620167518E-01 -0.63259408827E-02  0.27477375960E-02  0.10312668429E+01  0.10311890931E+01 0.  0.
     999903    2    3    3    0    0 -0.13596306030E-01 -0.95811230810E-01  0.94307457844E-01  0.14199767279E+00  0.43643911209E-01 0.  0.
         14    1    1    2    0    0  0.10620167518E-01  0.63259408827E-02 -0.27477375960E-02  0.12663157113E-01  0.00000000000E+00 0. -1.
     999901    1    3    3    0    0  0.29761385117E-02  0.89485289928E-01 -0.91559720248E-01  0.88926917010E+00  0.88000000000E+00 0. -1.
        -11    1    4    4    0    0  0.12938357983E-01 -0.33807883169E-01  0.48273951391E-01  0.60340778712E-01  0.51100000000E-03 0.  1.
         11    1    4    4    0    0 -0.26534664014E-01 -0.62003347642E-01  0.46033506454E-01  0.81656894078E-01  0.51100000000E-03 0. -1.
</event>
<event>
 8    1  0.2190295E+004  0.1043930E+01  0.7957747E-01            NaN
         13   -1    0    0    0    0  0.00000000000E+00  0.00000000000E+00  0.74505805969E-08  0.10566000000E+00  0.10566000000E+00 0.  1.
     999900   -1    0    0    0    0 -0.00000000000E+00 -0.00000000000E+00 -0.74505805969E-08  0.93827000000E+00  0.93827000000E+00 0. -1.
     999902    2    1    2    0    0  0.85243731638E-02  0.41154530542E-02  0.95398713894E-02  0.10304908394E+01  0.10304032022E+01 0.  0.
     999903    2    3    3    0    0  0.86531683410E-01 -0.44231715696E-01 -0.89544952970E-01  0.14018730037E+00  0.46797475098E-01 0.  0.
         14    1    1    2    0    0 -0.85243731638E-02 -0.41154530542E-02 -0.95398713894E-02  0.13439160606E-01  0.00000000000E+00 0. -1.
     999901    1    3    3    0    0 -0.78007310247E-01  0.48347168751E-01  0.99084824360E-01  0.89030353902E+00  0.88000000000E+00 0.  1.
        -11    1    4    4    0    0  0.77332914612E-01 -0.17244257752E-01 -0.62993317382E-01  0.10122333359E+00  0.51100000000E-03 0.  1.
         11    1    4    4    0    0  0.91987687985E-02 -0.26987457944E-01 -0.26551635588E-01  0.38963966778E-01  0.51100000000E-03 0. -1.
</event>
<event>
 8    1  0.2190295E+004  0.1043930E+01  0.7957747E-01            NaN
         13   -1    0    0    0    0  0.00000000000E+00  0.00000000000E+00  0.74505805969E-08  0.10566000000E+00  0.10566000000E+00 0. -1.
     999900   -1    0    0    0    0 -0.00000000000E+00 -0.00000000000E+00 -0.74505805969E-08  0.93827000000E+00  0.93827000000E+00 0.  1.
     999902    2    1    2    0    0 -0.13305785261E-01 -0.15423466411E-02  0.34620060205E-02  0.10300949633E+01  0.10300020511E+01 0.  0.
     999903    2    3    3    0    0 -0.66354054994E-02  0.80007618030E-01  0.10610360878E+00  0.14035894104E+00  0.44692381737E-01 0.  0.
         14    1    1    2    0    0  0.13305785261E-01  0.15423466411E-02 -0.34620060205E-02  0.13835036692E-01  0.00000000000E+00 0.  1.
     999901    1    3    3    0    0 -0.66703797617E-02 -0.81549964671E-01 -0.10264160276E+00  0.88973602227E+00  0.88000000000E+00 0.  1.
        -11    1    4    4    0    0  0.15869383770E-01  0.43866729935E-01  0.72065240028E-01  0.85847465179E-01  0.51100000000E-03 0. -1.
         11    1    4    4    0    0 -0.22504789270E-01  0.36140888095E-01  0.34038368750E-01  0.54511475861E-01  0.51100000000E-03 0.  1.
</event>
<event>
 8    1  0.2190295E+004  0.1043930E+01  0.7957747E-01            NaN
         13   -1    0    0    0    0  0.00000000000E+00  0.00000000000E+00  0.74505805969E-08  0.10566000000E+00  0.10566000000E+00 0. -1.
     999900   -1    0    0    0    0 -0.00000000000E+00 -0.00000000000E+00 -0.74505805969E-08  0.93827000000E+00  0.93827000000E+00 0. -1.
     999902    2    1    2    0    0  0.11632154749E-01  0.15679160267E-01 -0.36755282352E-02  0.10240641348E+01  0.10238714273E+01 0.  0.
     999903    2    3    3    0    0  0.85234863013E-02  0.71992382664E-01 -0.10653452832E+00  0.13627991740E+00  0.44351518372E-01 0.  0.
         14    1    1    2    0    0 -0.11632154749E-01 -0.15679160267E-01  0.36755282352E-02  0.19865865161E-01  0.00000000000E+00 0. -1.
     999901    1    3    3    0    0  0.31086684478E-02 -0.56313222397E-01  0.10285900008E+00  0.88778421744E+00  0.88000000000E+00 0.  1.
        -11    1    4    4    0    0 -0.93075072079E-02  0.15651623443E-01 -0.54760830884E-01  0.57711460966E-01  0.51100000000E-03 0.  1.
         11    1    4    4    0    0  0.17830993509E-01  0.56340759221E-01 -0.51773697436E-01  0.78568456433E-01  0.51100000000E-03 0. -1.
</event>
<event>
 8    1  0.2190295E+004  0.1043930E+01  0.7957747E-01            NaN
         13   -1    0    0    0    0  0.00000000000E+00  0.00000000000E+00  0.74505805969E-08  0.10566000000E+00  0.10566000000E+00 0. -1.
     999900   -1    0    0    0    0 -0.00000000000E+00 -0.00000000000E+00 -0.74505805969E-08  0.93827000000E+00  0.93827000000E+00 0. -1.
     999902    2    1    2    0    0 -0.27791854017E-02  0.12783908290E-01  0.10165132715E-01  0.10273624985E+01  0.10272289040E+01 0.  0.
     999903    2    3    3    0    0  0.82115020862E-01  0.35259477592E-02  0.10180466798E+00  0.13849212521E+00  0.45393494739E-01 0.  0.
         14    1    1    2    0    0  0.27791854017E-02 -0.12783908290E-01 -0.10165132715E-01  0.16567501495E-01  0.00000000000E+00 0.  1.
     999901    1    3    3    0    0 -0.84894206264E-01  0.92579605311E-02 -0.91639535267E-01  0.88887037329E+00  0.88000000000E+00 0. -1.
        -11    1    4    4    0    0  0.42319558462E-01  0.20286552426E-01  0.72276504644E-01  0.86177975622E-01  0.51100000000E-03 0. -1.
         11    1    4    4    0    0  0.39795462400E-01 -0.16760604667E-01  0.29528163338E-01  0.52314149592E-01  0.51100000000E-03 0.  1.
</event>
<event>
 7    1  0.3114663E+004  0.1043930E+01  0.7957747E-01            NaN
         13   -1    0    0    0    0  0.00000000000E+00  0.00000000000E+00  0.74505805969E-08  0.10566000000E+00  0.10566000000E+00 0.  1.
     999900   -1    0    0    0    0 -0.00000000000E+00 -0.00000000000E+00 -0.74505805969E-08  0.93827000000E+00  0.93827000000E+00 0.  1.
     999903    2    1    2    0    0  0.23883227409E-01 -0.29450814597E-01  0.81619864007E-01  0.10094788003E+00  0.45726504902E-01 0.  0.
         14    1    1    2    0    0 -0.33716405192E-01 -0.20676089797E-01 -0.46161322375E-01  0.60787863523E-01  0.00000000000E+00 0. -1.
     999901    1    1    2    0    0  0.98331777827E-02  0.50126904394E-01 -0.35458541632E-01  0.88219425644E+00  0.88000000000E+00 0. -1.
        -11    1    3    3    0    0 -0.40438377993E-03 -0.15582286341E-02  0.55831459716E-01  0.55857001511E-01  0.51100000000E-03 0.  1.
         11    1    3    3    0    0  0.24287611189E-01 -0.27892585963E-01  0.25788404291E-01  0.45090878521E-01  0.51100000000E-03 0. -1.
</event>
<event>
 8    1  0.2190295E+004  0.1043930E+01  0.7957747E-01            NaN
         13   -1    0    0    0    0  0.00000000000E+00  0.00000000000E+00  0.74505805969E-08  0.10566000000E+00  0.10566000000E+00 0.  1.
     999900   -1    0    0    0    0 -0.00000000000E+00 -0.00000000000E+00 -0.74505805969E-08  0.93827000000E+00  0.93827000000E+00 0. -1.
     999902    2    1    2    0    0 -0.14696745160E-02 -0.13097061774E-01 -0.49687938654E-02  0.10298451896E+01  0.10297488688E+01 0.  0.
     999903    2    3    3    0    0  0.30823254105E-01  0.51740615456E-02 -0.12905318994E+00  0.14036578879E+00  0.45508075379E-01 0.  0.
         14    1    1    2    0    0  0.14696745160E-02  0.13097061774E-01  0.49687938654E-02  0.14084810356E-01  0.00000000000E+00 0.  1.
     999901    1    3    3    0    0 -0.32292928621E-01 -0.18271123320E-01  0.12408439607E+00  0.88947940085E+00  0.88000000000E+00 0.  1.
        -11    1    4    4    0    0  0.10532900504E-01  0.24275148748E-01 -0.50510411986E-01  0.57024448088E-01  0.51100000000E-03 0. -1.
         11    1    4    4    0    0  0.20290353601E-01 -0.19101087203E-01 -0.78542777950E-01  0.83341340706E-01  0.51100000000E-03 0.  1.
</event>
<event>
 7    1  0.2190295E+004  0.1043930E+01  0.7957747E-01            NaN
         13   -1    0    0    0    0  0.00000000000E+00  0.00000000000E+00  0.74505805969E-08  0.10566000000E+00  0.10566000000E+00 0. -1.
     999900   -1    0    0    0    0 -0.00000000000E+00 -0.00000000000E+00 -0.74505805969E-08  0.93827000000E+00  0.93827000000E+00 0.  1.
     999903    2    1    2    0    0 -0.75035154752E-01 -0.67771855612E-01 -0.64915181825E-02  0.11094214084E+00  0.45196459427E-01 0.  0.
         14    1    1    2    0    0 -0.35880866438E-02 -0.38338245796E-01 -0.18636519171E-01  0.42778678139E-01  0.00000000000E+00 0.  1.
     999901    1    1    2    0    0  0.78623241395E-01  0.10611010141E+00  0.25128037353E-01  0.89020918102E+00  0.88000000000E+00 0. -1.
        -11    1    3    3    0    0 -0.49468783985E-01 -0.26870187713E-01 -0.21743840627E-01  0.60350835146E-01  0.51100000000E-03 0.  1.
         11    1    3    3    0    0 -0.25566370767E-01 -0.40901667900E-01  0.15252322444E-01  0.50591305697E-01  0.51100000000E-03 0. -1.
</event>
<event>
 8    1  0.2190295E+004  0.1043930E+01  0.7957747E-01            NaN
         13   -1    0    0    0    0  0.00000000000E+00  0.00000000000E+00  0.74505805969E-08  0.10566000000E+00  0.10566000000E+00 0.  1.
     999900   -1    0    0    0    0 -0.00000000000E+00 -0.00000000000E+00 -0.74505805969E-08  0.93827000000E+00  0.93827000000E+00 0. -1.
     999902    2    1    2    0    0  0.10570016391E-01 -0.31653171508E-02 -0.93624539539E-02  0.10294593392E+01  0.10293576303E+01 0.  0.
     999903    2    3    3    0    0 -0.83721446635E-01 -0.40075907453E-01 -0.94021084348E-01  0.13961645682E+00  0.45137918951E-01 0.  0.
         14    1    1    2    0    0 -0.10570016391E-01  0.31653171508E-02  0.93624539539E-02  0.14470660773E-01  0.00000000000E+00 0. -1.
     999901    1    3    3    0    0  0.94291463026E-01  0.36910590302E-01  0.84658630394E-01  0.88984288241E+00  0.88000000000E+00 0.  1.
        -11    1    4    4    0    0 -0.59009327527E-01 -0.48944055013E-01 -0.74429299127E-01  0.10685318407E+00  0.51100000000E-03 0.  1.
         11    1    4    4    0    0 -0.24712119108E-01  0.88681475599E-02 -0.19591785221E-01  0.32763272747E-01  0.51100000000E-03 0. -1.
</event>
<event>
 8    1  0.2190295E+004  0.1043930E+01  0.7957747E-01            NaN
         13   -1    0    0    0    0  0.00000000000E+00  0.00000000000E+00  0.74505805969E-08  0.10566000000E+00  0.10566000000E+00 0. -1.
     999900   -1    0    0    0    0 -0.00000000000E+00 -0.00000000000E+00 -0.74505805969E-08  0.93827000000E+00  0.93827000000E+00 0.  1.
     999902    2    1    2    0    0 -0.90030243913E-02 -0.26654364758E-03  0.10825727478E-01  0.10298473202E+01  0.10297510287E+01 0.  0.
     999903    2    3    3    0    0 -0.38969062357E-01  0.12676622018E+00 -0.48906539542E-02  0.14008201907E+00  0.44841846215E-01 0.  0.
         14    1    1    2    0    0  0.90030243913E-02  0.26654364758E-03 -0.10825727478E-01  0.14082679757E-01  0.00000000000E+00 0.  1.
     999901    1    3    3    0    0  0.29966037966E-01 -0.12703276383E+00  0.15716381432E-01  0.88976530117E+00  0.88000000000E+00 0. -1.
        -11    1    4    4    0    0 -0.13468977283E-01  0.10607698982E+00 -0.36717249199E-03  0.10693052443E+00  0.51100000000E-03 0. -1.
         11    1    4    4    0    0 -0.25500085074E-01  0.20689230365E-01 -0.45234814622E-02  0.33151494648E-01  0.51100000000E-03 0.  1.
</event>
<event>
 8    1  0.2190295E+004  0.1043930E+01  0.7957747E-01            NaN
         13   -1    0    0    0    0  0.00000000000E+00  0.00000000000E+00  0.74505805969E-08  0.10566000000E+00  0.10566000000E+00 0.  1.
     999900   -1    0    0    0    0 -0.00000000000E+00 -0.00000000000E+00 -0.74505805969E-08  0.93827000000E+00  0.93827000000E+00 0. -1.
     999902    2    1    2    0    0  0.75649371707E-02 -0.90164578402E-02 -0.74176691396E-02  0.10300178973E+01  0.10299239400E+01 0.  0.
     999903    2    3    3    0    0 -0.12885555590E+00  0.10566044520E-01 -0.25682227681E-01  0.13910397360E+00  0.44440331550E-01 0.  0.
         14    1    1    2    0    0 -0.75649371707E-02  0.90164578402E-02  0.74176691396E-02  0.13912102711E-01  0.00000000000E+00 0.  1.
     999901    1    3    3    0    0  0.13642049307E+00 -0.19582502360E-01  0.18264558541E-01  0.89091392369E+00  0.88000000000E+00 0.  1.
        -11    1    4    4    0    0 -0.94894961491E-01 -0.11681887924E-01 -0.23416752210E-01  0.98438435720E-01  0.51100000000E-03 0.  1.
         11    1    4    4    0    0 -0.33960594411E-01  0.22247932444E-01 -0.22654754704E-02  0.40665537878E-01  0.51100000000E-03 0. -1.
</event>
<event>
 8    1  0.2190295E+004  0.1043930E+01  0.7957747E-01            NaN
         13   -1    0    0    0    0  0.00000000000E+00  0.00000000000E+00  0.74505805969E-08  0.10566000000E+00  0.10566000000E+00 0. -1.
     999900   -1    0    0    0    0 -0.00000000000E+00 -0.00000000000E+00 -0.74505805969E-08  0.93827000000E+00  0.93827000000E+00 0. -1.
     999902    2    1    2    0    0  0.53175748331E-02  0.60900117910E-02  0.24536750772E-05  0.10358451468E+01  0.10358135948E+01 0.  0.
     999903    2    3    3    0    0  0.70393696117E-01 -0.53919415569E-02 -0.11898514307E+00  0.14538190497E+00  0.44655218463E-01 0.  0.
         14    1    1    2    0    0 -0.53175748331E-02 -0.60900117910E-02 -0.24536750772E-05  0.80848532293E-02  0.00000000000E+00 0.  1.
     999901    1    3    3    0    0 -0.65076121283E-01  0.11481953348E-01  0.11898759674E+00  0.89046324180E+00  0.88000000000E+00 0.  1.
        -11    1    4    4    0    0  0.62637960336E-01  0.29411978077E-02 -0.65432251087E-01  0.90630046469E-01  0.51100000000E-03 0. -1.
         11    1    4    4    0    0  0.77557357805E-02 -0.83331393646E-02 -0.53552891981E-01  0.54751858504E-01  0.51100000000E-03 0.  1.
</event>
<event>
 8    1  0.2190295E+004  0.1043930E+01  0.7957747E-01            NaN
         13   -1    0    0    0    0  0.00000000000E+00  0.00000000000E+00  0.74505805969E-08  0.10566000000E+00  0.10566000000E+00 0.  1.
     999900   -1    0    0    0    0 -0.00000000000E+00 -0.00000000000E+00 -0.74505805969E-08  0.93827000000E+00  0.93827000000E+00 0. -1.
     999902    2    1    2    0    0 -0.85541627909E-02 -0.93945532288E-02 -0.62175046479E-02  0.10297847289E+01  0.10296875735E+01 0.  0.
     999903    2    3    3    0    0  0.44910795308E-01 -0.11710111115E+00 -0.42687095838E-01  0.14085884025E+00  0.47847413285E-01 0.  0.
         14    1    1    2    0    0  0.85541627909E-02  0.93945532288E-02  0.62175046479E-02  0.14145271134E-01  0.00000000000E+00 0.  1.
     999901    1    3    3    0    0 -0.53464958099E-01  0.10770655792E+00  0.36469591190E-01  0.88892588861E+00  0.88000000000E+00 0. -1.
        -11    1    4    4    0    0  0.40550430423E-01 -0.52694763703E-01 -0.36896156303E-01  0.76043822892E-01  0.51100000000E-03 0.  1.
         11    1    4    4    0    0  0.43603648845E-02 -0.64406347450E-01 -0.57909395346E-02  0.64815017360E-01  0.51100000000E-03 0. -1.
</event>
<event>
 8    1  0.2190295E+004  0.1043930E+01  0.7957747E-01            NaN
         13   -1    0    0    0    0  0.00000000000E+00  0.00000000000E+00  0.74505805969E-08  0.10566000000E+00  0.10566000000E+00 0.  1.
     999900   -1    0    0    0    0 -0.00000000000E+00 -0.00000000000E+00 -0.74505805969E-08  0.93827000000E+00  0.93827000000E+00 0. -1.
     999902    2    1    2    0    0  0.35729608003E-02  0.10526265038E-01  0.82079125973E-02  0.10301119635E+01  0.10300192810E+01 0.  0.
     999903    2    3    3    0    0  0.88708450738E-02  0.86760659496E-01 -0.10025500358E+00  0.14016592315E+00  0.44601752679E-01 0.  0.
         14    1    1    2    0    0 -0.35729608003E-02 -0.10526265038E-01 -0.82079125973E-02  0.13818036537E-01  0.00000000000E+00 0. -1.
     999901    1    3    3    0    0 -0.52978842736E-02 -0.76234394458E-01  0.10846291618E+00  0.88994604031E+00  0.88000000000E+00 0.  1.
        -11    1    4    4    0    0 -0.12314118461E-01  0.46785700061E-01 -0.31066339020E-01  0.57497111099E-01  0.51100000000E-03 0.  1.
         11    1    4    4    0    0  0.21184963535E-01  0.39974959436E-01 -0.69188664561E-01  0.82668812055E-01  0.51100000000E-03 0. -1.
</event>
<event>
 8    1  0.2190295E+004  0.1043930E+01  0.7957747E-01            NaN
         13   -1    0    0    0    0  0.00000000000E+00  0.00000000000E+00  0.74505805969E-08  0.10566000000E+00  0.10566000000E+00 0. -1.
     999900   -1    0    0    0    0 -0.00000000000E+00 -0.00000000000E+00 -0.74505805969E-08  0.93827000000E+00  0.93827000000E+00 0.  1.
     999902    2    1    2    0    0  0.78955318009E-02 -0.66169473347E-02 -0.10343893947E-01  0.10293313851E+01  0.10292278566E+01 0.  0.
     999903    2    3    3    0    0  0.37041403865E-01  0.15744494085E-01  0.12436854194E+00  0.13832243101E+00  0.45228376072E-01 0.  0.
         14    1    1    2    0    0 -0.78955318009E-02  0.66169473347E-02  0.10343893947E-01  0.14598614881E-01  0.00000000000E+00 0. -1.
     999901    1    3    3    0    0 -0.29145872064E-01 -0.22361441420E-01 -0.13471243589E+00  0.89100895411E+00  0.88000000000E+00 0.  1.
        -11    1    4    4    0    0  0.88296583263E-02  0.20385047374E-01  0.94077386486E-01  0.96666068460E-01  0.51100000000E-03 0. -1.
         11    1    4    4    0    0  0.28211745538E-01 -0.46405532888E-02  0.30291155453E-01  0.41656362549E-01  0.51100000000E-03 0.  1.
</event>
<event>
 8    1  0.2190295E+004  0.1043930E+01  0.7957747E-01            NaN
         13   -1    0    0    0    0  0.00000000000E+00  0.00000000000E+00  0.74505805969E-08  0.10566000000E+00  0.10566000000E+00 0.  1.
     999900   -1    0    0    0    0 -0.00000000000E+00 -0.00000000000E+00 -0.74505805969E-08  0.93827000000E+00  0.93827000000E+00 0.  1.
     999902    2    1    2    0    0  0.50104605781E-02 -0.11030125625E-01 -0.38180647678E-02  0.10312277953E+01  0.10311495622E+01 0.  0.
     999903    2    3    3    0    0 -0.12144137585E+00 -0.31756860335E-01 -0.47444473224E-01  0.14087790450E+00  0.42884729116E-01 0.  0.
         14    1    1    2    0    0 -0.50104605781E-02  0.11030125625E-01  0.38180647678E-02  0.12702204733E-01  0.00000000000E+00 0. -1.
     999901    1    3    3    0    0  0.12645183643E+00  0.20726734710E-01  0.43626408456E-01  0.89034989076E+00  0.88000000000E+00 0.  1.
        -11    1    4    4    0    0 -0.80749214519E-01 -0.36159728343E-01 -0.46458788574E-01  0.99933186460E-01  0.51100000000E-03 0. -1.
         11    1    4    4    0    0 -0.40692161331E-01  0.44028680078E-02 -0.98568464916E-03  0.40944718044E-01  0.51100000000E-03 0.  1.
</event>
<event>
 8    1  0.2190295E+004  0.1043930E+01  0.7957747E-01            NaN
         13   -1    0    0    0    0  0.00000000000E+00  0.00000000000E+00  0.74505805969E-08  0.10566000000E+00  0.10566000000E+00 0.  1.
     999900   -1    0    0    0    0 -0.00000000000E+00 -0.00000000000E+00 -0.74505805969E-08  0.93827000000E+00  0.93827000000E+00 0. -1.
     999902    2    1    2    0    0 -0.17449810218E-02 -0.10687476448E-02  0.15330041428E-01  0.10284639937E+01  0.10283476985E+01 0.  0.
     999903    2    3    3    0    0 -0.20778157573E-01 -0.98157777931E-01  0.86303055233E-01  0.14008023075E+00  0.45908305385E-01 0.  0.
         14    1    1    2    0    0  0.17449810218E-02  0.10687476448E-02 -0.15330041428E-01  0.15466006287E-01  0.00000000000E+00 0. -1.
     999901    1    3    3    0    0  0.19033176551E-01  0.97089030287E-01 -0.70973013805E-01  0.88838376297E+00  0.88000000000E+00 0. -1.
        -11    1    4    4    0    0 -0.14147931513E-01 -0.56664894193E-01  0.77670282946E-01  0.97180286961E-01  0.51100000000E-03 0. -1.
         11    1    4    4    0    0 -0.66302260600E-02 -0.41492883739E-01  0.86327722872E-02  0.42899943787E-01  0.51100000000E-03 0.  1.
</event>
<event>
 8    1  0.2190295E+004  0.1043930E+01  0.7957747E-01            NaN
         13   -1    0    0    0    0  0.00000000000E+00  0.00000000000E+00  0.74505805969E-08  0.10566000000E+00  0.10566000000E+00 0. -1.
     999900   -1    0    0    0    0 -0.00000000000E+00 -0.00000000000E+00 -0.74505805969E-08  0.93827000000E+00  0.93827000000E+00 0. -1.
     999902    2    1    2    0    0 -0.10049870187E-01  0.69865306294E-02 -0.64162658869E-02  0.10301104498E+01  0.10300177468E+01 0.  0.
     999903    2    3    3    0    0  0.59061854801E-01 -0.11091902014E+00  0.37797470199E-01  0.13846421728E+00  0.44185506570E-01 0.  0.
         14    1    1    2    0    0  0.10049870187E-01 -0.69865306294E-02  0.64162658869E-02  0.13819550244E-01  0.00000000000E+00 0.  1.
     999901    1    3    3    0    0 -0.69111724988E-01  0.11790555077E+00 -0.44213736086E-01  0.89164623248E+00  0.88000000000E+00 0.  1.
        -11    1    4    4    0    0  0.13568463598E-01 -0.12144221701E-01  0.22016997999E-01  0.28576120223E-01  0.51100000000E-03 0. -1.
         11    1    4    4    0    0  0.45493391203E-01 -0.98774798443E-01  0.15780472200E-01  0.10988809705E+00  0.51100000000E-03 0.  1.
</event>
<event>
 8    1  0.2190295E+004  0.1043930E+01  0.7957747E-01            NaN
         13   -1    0    0    0    0  0.00000000000E+00  0.00000000000E+00  0.74505805969E-08  0.10566000000E+00  0.10566000000E+00 0.  1.
     999900   -1    0    0    0    0 -0.00000000000E+00 -0.00000000000E+00 -0.74505805969E-08  0.93827000000E+00  0.93827000000E+00 0.  1.
     999902    2    1    2    0    0 -0.10152237206E-01  0.57118189409E-02 -0.64491238492E-02  0.10306151964E+01  0.10305291840E+01 0.  0.
     999903    2    3    3    0    0 -0.57908768970E-01 -0.68531600180E-03  0.11934661503E+00  0.14036457015E+00  0.45877040573E-01 0.  0.
         14    1    1    2    0    0  0.10152237206E-01 -0.57118189409E-02  0.64491238492E-02  0.13314803578E-01  0.00000000000E+00 0. -1.
     999901    1    3    3    0    0  0.47756531764E-01  0.63971349427E-02 -0.12579573888E+00  0.89025062627E+00  0.88000000000E+00 0.  1.
        -11    1    4    4    0    0 -0.45584641221E-01 -0.58093403752E-02  0.43258862327E-01  0.63113376092E-01  0.51100000000E-03 0.  1.
         11    1    4    4    0    0 -0.12324127749E-01  0.51240243734E-02  0.76087752704E-01  0.77251194056E-01  0.51100000000E-03 0. -1.
</event>
<event>
 8    1  0.2190295E+004  0.1043930E+01  0.7957747E-01            NaN
         13   -1    0    0    0    0  0.00000000000E+00  0.00000000000E+00  0.74505805969E-08  0.10566000000E+00  0.10566000000E+00 0.  1.
     999900   -1    0    0    0    0 -0.00000000000E+00 -0.00000000000E+00 -0.74505805969E-08  0.93827000000E+00  0.93827000000E+00 0. -1.
     999902    2    1    2    0    0  0.49625692910E-02  0.72072073863E-02 -0.91275780913E-02  0.10312854908E+01  0.10312079712E+01 0.  0.
     999903    2    3    3    0    0 -0.10823362201E+00  0.77940945182E-01 -0.11355983338E-01  0.14121717586E+00  0.44989160147E-01 0.  0.
         14    1    1    2    0    0 -0.49625692910E-02 -0.72072073863E-02  0.91275780913E-02  0.12644509247E-01  0.00000000000E+00 0.  1.
     999901    1    3    3    0    0  0.11319619130E+00 -0.70733737796E-01  0.22284052466E-02  0.89006831489E+00  0.88000000000E+00 0. -1.
        -11    1    4    4    0    0 -0.75660020310E-01  0.72289100900E-01  0.40876434131E-02  0.10472403130E+00  0.51100000000E-03 0. -1.
         11    1    4    4    0    0 -0.32573601701E-01  0.56518442816E-02 -0.15443626751E-01  0.36493144558E-01  0.51100000000E-03 0.  1.
</event>
<event>
 8    1  0.2190295E+004  0.1043930E+01  0.7957747E-01            NaN
         13   -1    0    0    0    0  0.00000000000E+00  0.00000000000E+00  0.74505805969E-08  0.10566000000E+00  0.10566000000E+00 0. -1.
     999900   -1    0    0    0    0 -0.00000000000E+00 -0.00000000000E+00 -0.74505805969E-08  0.93827000000E+00  0.93827000000E+00 0.  1.
     999902    2    1    2    0    0 -0.95133370075E-02 -0.27854456014E-02  0.95571960258E-02  0.10301603855E+01  0.10300683558E+01 0.  0.
     999903    2    3    3    0    0 -0.14629885538E-01 -0.13280600534E+00 -0.25756150417E-02  0.14050948196E+00  0.43414422989E-01 0.  0.
         14    1    1    2    0    0  0.95133370075E-02  0.27854456014E-02 -0.95571960258E-02  0.13769614522E-01  0.00000000000E+00 0. -1.
     999901    1    3    3    0    0  0.51165485302E-02  0.13002055974E+00  0.12132811067E-01  0.88965090352E+00  0.88000000000E+00 0.  1.
        -11    1    4    4    0    0 -0.19162633066E-01 -0.27531114275E-01 -0.96232880362E-02  0.34900394738E-01  0.51100000000E-03 0.  1.
         11    1    4    4    0    0  0.45327475279E-02 -0.10527489106E+00  0.70476729945E-02  0.10560908722E+00  0.51100000000E-03 0. -1.
</event>
<event>
 8    1  0.2190295E+004  0.1043930E+01  0.7957747E-01            NaN
         13   -1    0    0    0    0  0.00000000000E+00  0.00000000000E+00  0.74505805969E-08  0.10566000000E+00  0.10566000000E+00 0.  1.
     999900   -1    0    0    0    0 -0.00000000000E+00 -0.00000000000E+00 -0.74505805969E-08  0.93827000000E+00  0.93827000000E+00 0.  1.
     999902    2    1    2    0    0 -0.11149506776E-01 -0.46338261131E-02 -0.67695645826E-02  0.10300876429E+01  0.10299946316E+01 0.  0.
     999903    2    3    3    0    0  0.95776267275E-01  0.79865898426E-01 -0.41856352935E-01  0.13890617578E+00  0.44624167036E-01 0.  0.
         14    1    1    2    0    0  0.11149506776E-01  0.46338261131E-02  0.67695645826E-02  0.13842357113E-01  0.00000000000E+00 0.  1.
     999901    1    3    3    0    0 -0.10692577405E+00 -0.84499724539E-01  0.35086788352E-01  0.89118146711E+00  0.88000000000E+00 0. -1.
        -11    1    4    4    0    0  0.16571568946E-01  0.76885432569E-02  0.89073584728E-02  0.20330586580E-01  0.51100000000E-03 0.  1.
         11    1    4    4    0    0  0.79204698329E-01  0.72177355169E-01 -0.50763711407E-01  0.11857558920E+00  0.51100000000E-03 0. -1.
</event>
<event>
 8    1  0.2190295E+004  0.1043930E+01  0.7957747E-01            NaN
         13   -1    0    0    0    0  0.00000000000E+00  0.00000000000E+00  0.74505805969E-08  0.10566000000E+00  0.10566000000E+00 0. -1.
     999900   -1    0    0    0    0 -0.00000000000E+00 -0.00000000000E+00 -0.74505805969E-08  0.93827000000E+00  0.93827000000E+00 0.  1.
     999902    2    1    2    0    0  0.70011528748E-02  0.11472589553E-01 -0.33201819808E-02  0.10300858655E+01  0.10299928302E+01 0.  0.
     999903    2    3    3    0    0  0.13335909501E+00 -0.47669792846E-02 -0.46848027490E-02  0.14091101465E+00  0.45017711612E-01 0.  0.
         14    1    1    2    0    0 -0.70011528748E-02 -0.11472589553E-01  0.33201819808E-02  0.13844134535E-01  0.00000000000E+00 0.  1.
     999901    1    3    3    0    0 -0.12635794214E+00  0.16239568838E-01  0.13646207682E-02  0.88917485082E+00  0.88000000000E+00 0. -1.
        -11    1    4    4    0    0  0.62083205061E-01  0.20219301722E-01 -0.14210460288E-02  0.65310221295E-01  0.51100000000E-03 0.  1.
         11    1    4    4    0    0  0.71275889949E-01 -0.24986281007E-01 -0.32637567202E-02  0.75600793352E-01  0.51100000000E-03 0. -1.
</event>
<event>
 8    1  0.2190295E+004  0.1043930E+01  0.7957747E-01            NaN
         13   -1    0    0    0    0  0.00000000000E+00  0.00000000000E+00  0.74505805969E-08  0.10566000000E+00  0.10566000000E+00 0.  1.
     999900   -1    0    0    0    0 -0.00000000000E+00 -0.00000000000E+00 -0.74505805969E-08  0.93827000000E+00  0.93827000000E+00 0.  1.
     999902    2    1    2    0    0  0.24621352467E-02  0.99631717056E-03 -0.14702557118E-01  0.10289894530E+01  0.10288809817E+01 0.  0.
     999903    2    3    3    0    0  0.12595884880E-01  0.13079312192E+00 -0.75203147439E-02  0.13938196205E+00  0.45883321088E-01 0.  0.
         14    1    1    2    0    0 -0.24621352467E-02 -0.99631717056E-03  0.14702557118E-01  0.14940546967E-01  0.00000000000E+00 0.  1.
     999901    1    3    3    0    0 -0.10133749633E-01 -0.12979680475E+00 -0.71822423739E-02  0.88960749098E+00  0.88000000000E+00 0.  1.
        -11    1    4    4    0    0 -0.14508169220E-01  0.62112858092E-01  0.68709318991E-02  0.64155786494E-01  0.51100000000E-03 0.  1.
         11    1    4    4    0    0  0.27104054100E-01  0.68680263828E-01 -0.14391246643E-01  0.75226175558E-01  0.51100000000E-03 0. -1.
</event>
<event>
 8    1  0.2190295E+004  0.1043930E+01  0.7957747E-01            NaN
         13   -1    0    0    0    0  0.00000000000E+00  0.00000000000E+00  0.74505805969E-08  0.10566000000E+00  0.10566000000E+00 0.  1.
     999900   -1    0    0    0    0 -0.00000000000E+00 -0.00000000000E+00 -0.74505805969E-08  0.93827000000E+00  0.93827000000E+00 0.  1.
     999902    2    1    2    0    0  0.10256591319E-01 -0.81419292141E-02 -0.79267853076E-03  0.10308106625E+01  0.10307271729E+01 0.  0.
     999903    2    3    3    0    0  0.42291711367E-01 -0.18594624728E-02 -0.12782323520E+00  0.14109021168E+00  0.42138129100E-01 0.  0.
         14    1    1    2    0    0 -0.10256591319E-01  0.81419292141E-02  0.79267853076E-03  0.13119337486E-01  0.00000000000E+00 0. -1.
     999901    1    3    3    0    0 -0.32035120049E-01 -0.62824667413E-02  0.12703055667E+00  0.88972045083E+00  0.88000000000E+00 0. -1.
        -11    1    4    4    0    0  0.25726044957E-01  0.19762860248E-01 -0.72099991827E-01  0.79063708342E-01  0.51100000000E-03 0. -1.
         11    1    4    4    0    0  0.16565666411E-01 -0.21622322720E-01 -0.55723243372E-01  0.62026503338E-01  0.51100000000E-03 0.  1.
</event>
<event>
 8    1  0.2190295E+004  0.1043930E+01  0.7957747E-01            NaN
         13   -1    0    0    0    0  0.00000000000E+00  0.00000000000E+00  0.74505805969E-08  0.10566000000E+00  0.10566000000E+00 0. -1.
     999900   -1    0    0    0    0 -0.00000000000E+00 -0.00000000000E+00 -0.74505805969E-08  0.93827000000E+00  0.93827000000E+00 0. -1.
     999902    2    1    2    0    0  0.80759396537E-03  0.11650968135E-02  0.15839864646E-01  0.10280268251E+01  0.10279038098E+01 0.  0.
     999903    2    3    3    0    0  0.15779299130E-01 -0.10855769423E+00 -0.68528967701E-01  0.13708275131E+00  0.45405969139E-01 0.  0.
         14    1    1    2    0    0 -0.80759396537E-03 -0.11650968135E-02 -0.15839864646E-01  0.15903174859E-01  0.00000000000E+00 0.  1.
     999901    1    3    3    0    0 -0.14971705165E-01  0.10972279105E+00  0.84368832346E-01  0.89094407384E+00  0.88000000000E+00 0.  1.
        -11    1    4    4    0    0 -0.10805807702E-01 -0.19458178380E-01 -0.27681907088E-01  0.35523728507E-01  0.51100000000E-03 0. -1.
         11    1    4    4    0    0  0.26585106832E-01 -0.89099515852E-01 -0.40847060613E-01  0.10155902280E+00  0.51100000000E-03 0.  1.
</event>
<event>
 8    1  0.2190295E+004  0.1043930E+01  0.7957747E-01            NaN
         13   -1    0    0    0    0  0.00000000000E+00  0.00000000000E+00  0.74505805969E-08  0.10566000000E+00  0.10566000000E+00 0.  1.
     999900   -1    0    0    0    0 -0.00000000000E+00 -0.00000000000E+00 -0.74505805969E-08  0.93827000000E+00  0.93827000000E+00 0.  1.
     999902    2    1    2    0    0  0.55565464246E-02 -0.13040547094E-01 -0.92941340322E-03  0.10297245473E+01  0.10296265578E+01 0.  0.
     999903    2    3    3    0    0  0.21819006749E-01  0.25546354992E-01 -0.12788977310E+00  0.13962772698E+00  0.44848888167E-01 0.  0.
         14    1    1    2    0    0 -0.55565464246E-02  0.13040547094E-01  0.92941340322E-03  0.14205452684E-01  0.00000000000E+00 0.  1.
     999901    1    3    3    0    0 -0.16262460324E-01 -0.38586902086E-01  0.12696035970E+00  0.89009682033E+00  0.88000000000E+00 0. -1.
        -11    1    4    4    0    0  0.25312417486E-01  0.33793456696E-02 -0.30976723772E-01  0.40149184211E-01  0.51100000000E-03 0. -1.
         11    1    4    4    0    0 -0.34934107376E-02  0.22167009322E-01 -0.96913049330E-01  0.99478542774E-01  0.51100000000E-03 0.  1.
</event>
<event>
 8    1  0.2190295E+004  0.1043930E+01  0.7957747E-01            NaN
         13   -1    0    0    0    0  0.00000000000E+00  0.00000000000E+00  0.74505805969E-08  0.10566000000E+00  0.10566000000E+00 0. -1.
     999900   -1    0    0    0    0 -0.00000000000E+00 -0.00000000000E+00 -0.74505805969E-08  0.93827000000E+00  0.93827000000E+00 0. -1.
     999902    2    1    2    0    0  0.49783641352E-02  0.68808735570E-02 -0.50481060877E-02  0.10340500250E+01  0.10340028242E+01 0.  0.
     999903    2    3    3    0    0  0.33957798620E-01 -0.11970906547E+00  0.53063940813E-01  0.14262317425E+00  0.45190658059E-01 0.  0.
         14    1    1    2    0    0 -0.49783641352E-02 -0.68808735570E-02  0.50481060877E-02  0.98799749717E-02  0.00000000000E+00 0.  1.
     999901    1    3    3    0    0 -0.28979434485E-01  0.12658993903E+00 -0.58112046901E-01  0.89142685077E+00  0.88000000000E+00 0. -1.
        -11    1    4    4    0    0 -0.28323829563E-02 -0.23354587924E-01 -0.52911852163E-02  0.24118808683E-01  0.51100000000E-03 0. -1.
         11    1    4    4    0    0  0.36790181576E-01 -0.96354477550E-01  0.58355126029E-01  0.11850436557E+00  0.51100000000E-03 0.  1.
</event>
<event>
 8    1  0.2190295E+004  0.1043930E+01  0.7957747E-01            NaN
         13   -1    0    0    0    0  0.00000000000E+00  0.00000000000E+00  0.74505805969E-08  0.10566000000E+00  0.10566000000E+00 0. -1.
     999900   -1    0    0    0    0 -0.00000000000E+00 -0.00000000000E+00 -0.74505805969E-08  0.93827000000E+00  0.93827000000E+00 0. -1.
     999902    2    1    2    0    0 -0.11652043828E-01 -0.14821479454E-01  0.10118056166E-01  0.10225332376E+01  0.10223093468E+01 0.  0.
     999903    2    3    3    0    0 -0.76507215474E-01  0.46987652259E-01  0.89490367008E-01  0.13443047007E+00  0.44741837372E-01 0.  0.
         14    1    1    2    0    0  0.11652043828E-01  0.14821479454E-01 -0.10118056166E-01  0.21396762352E-01  0.00000000000E+00 0. -1.
     999901    1    3    3    0    0  0.64855171646E-01 -0.61809131713E-01 -0.79372310842E-01  0.88810276758E+00  0.88000000000E+00 0. -1.
        -11    1    4    4    0    0 -0.54736931387E-01  0.43354923325E-01  0.87949708745E-01  0.11229957001E+00  0.51100000000E-03 0.  1.
         11    1    4    4    0    0 -0.21770284087E-01  0.36327289339E-02  0.15406582634E-02  0.22130900063E-01  0.51100000000E-03 0. -1.
</event>
<event>
 8    1  0.2190295E+004  0.1043930E+01  0.7957747E-01            NaN
         13   -1    0    0    0    0  0.00000000000E+00  0.00000000000E+00  0.74505805969E-08  0.10566000000E+00  0.10566000000E+00 0. -1.
     999900   -1    0    0    0    0 -0.00000000000E+00 -0.00000000000E+00 -0.74505805969E-08  0.93827000000E+00  0.93827000000E+00 0. -1.
     999902    2    1    2    0    0 -0.32662918916E-02  0.36726984015E-02 -0.13196335662E-01  0.10298480736E+01  0.10297517924E+01 0.  0.
     999903    2    3    3    0    0 -0.12432171476E+00 -0.39597393901E-01 -0.26844395473E-01  0.14040274879E+00  0.44367419727E-01 0.  0.
         14    1    1    2    0    0  0.32662918916E-02 -0.36726984015E-02  0.13196335662E-01  0.14081926401E-01  0.00000000000E+00 0. -1.
     999901    1    3    3    0    0  0.12105542287E+00  0.43270092302E-01  0.13648059811E-01  0.88944532481E+00  0.88000000000E+00 0.  1.
        -11    1    4    4    0    0 -0.83931282378E-01 -0.20173609140E-01  0.33025613071E-02  0.86386357137E-01  0.51100000000E-03 0. -1.
         11    1    4    4    0    0 -0.40390432384E-01 -0.19423784761E-01 -0.30146956780E-01  0.54016391649E-01  0.51100000000E-03 0.  1.
</event>
<event>
 8    1  0.2190295E+004  0.1043930E+01  0.7957747E-01            NaN
         13   -1    0    0    0    0  0.00000000000E+00  0.00000000000E+00  0.74505805969E-08  0.10566000000E+00  0.10566000000E+00 0. -1.
     999900   -1    0    0    0    0 -0.00000000000E+00 -0.00000000000E+00 -0.74505805969E-08  0.93827000000E+00  0.93827000000E+00 0. -1.
     999902    2    1    2    0    0  0.42713546090E-02 -0.84836791557E-02 -0.11049701028E-01  0.10293590297E+01  0.10292558957E+01 0.  0.
     999903    2    3    3    0    0  0.83985036193E-01  0.83462929034E-01 -0.58406583761E-01  0.13972364141E+00  0.45736419996E-01 0.  0.
         14    1    1    2    0    0 -0.42713546090E-02  0.84836791557E-02  0.11049701028E-01  0.14570970284E-01  0.00000000000E+00 0. -1.
     999901    1    3    3    0    0 -0.79713681584E-01 -0.91946608190E-01  0.47356882733E-01  0.88963538831E+00  0.88000000000E+00 0.  1.
        -11    1    4    4    0    0  0.23576348747E-02  0.18768589647E-01  0.24662807407E-02  0.19083030714E-01  0.51100000000E-03 0.  1.
         11    1    4    4    0    0  0.81627401318E-01  0.64694339387E-01 -0.60872864502E-01  0.12064061069E+00  0.51100000000E-03 0. -1.
</event>
<event>
 8    1  0.2190295E+004  0.1043930E+01  0.7957747E-01            NaN
         13   -1    0    0    0    0  0.00000000000E+00  0.00000000000E+00  0.74505805969E-08  0.10566000000E+00  0.10566000000E+00 0.  1.
     999900   -1    0    0    0    0 -0.00000000000E+00 -0.00000000000E+00 -0.74505805969E-08  0.93827000000E+00  0.93827000000E+00 0.  1.
     999902    2    1    2    0    0  0.16644553691E-01 -0.48899437539E-02  0.49559105513E-02  0.10258879999E+01  0.10257293379E+01 0.  0.
     999903    2    3    3    0    0  0.61655397111E-01  0.25522611619E-01  0.11181720633E+00  0.13776062387E+00  0.44967879218E-01 0.  0.
         14    1    1    2    0    0 -0.16644553691E-01  0.48899437539E-02 -0.49559105513E-02  0.18042000080E-01  0.00000000000E+00 0. -1.
     999901    1    3    3    0    0 -0.45010843420E-01 -0.30412555373E-01 -0.10686129578E+00  0.88812737605E+00  0.88000000000E+00 0.  1.
        -11    1    4    4    0    0  0.13018902253E-01  0.37011617651E-02  0.66278936294E-01  0.67648717147E-01  0.51100000000E-03 0. -1.
         11    1    4    4    0    0  0.48636494858E-01  0.21821449854E-01  0.45538270037E-01  0.70111906726E-01  0.51100000000E-03 0.  1.
</event>
<event>
 8    1  0.2190295E+004  0.1043930E+01  0.7957747E-01            NaN
         13   -1    0    0    0    0  0.00000000000E+00  0.00000000000E+00  0.74505805969E-08  0.10566000000E+00  0.10566000000E+00 0.  1.
     999900   -1    0    0    0    0 -0.00000000000E+00 -0.00000000000E+00 -0.74505805969E-08  0.93827000000E+00  0.93827000000E+00 0. -1.
     999902    2    1    2    0    0  0.11488667136E-01  0.70838619834E-02 -0.36969952322E-02  0.10299357745E+01  0.10298406970E+01 0.  0.
     999903    2    3    3    0    0 -0.54054006949E-01  0.34630557224E-01 -0.11561379328E+00  0.14000317469E+00  0.45969865844E-01 0.  0.
         14    1    1    2    0    0 -0.11488667136E-01 -0.70838619834E-02  0.36969952322E-02  0.13994225485E-01  0.00000000000E+00 0. -1.
     999901    1    3    3    0    0  0.65542674085E-01 -0.27546695241E-01  0.11191679805E+00  0.88993259982E+00  0.88000000000E+00 0.  1.
        -11    1    4    4    0    0 -0.12708984071E-01 -0.54129078972E-02 -0.53766811174E-01  0.55515303771E-01  0.51100000000E-03 0. -1.
         11    1    4    4    0    0 -0.41345022878E-01  0.40043465121E-01 -0.61846982108E-01  0.84487870919E-01  0.51100000000E-03 0.  1.
</event>
<event>
 8    1  0.2190295E+004  0.1043930E+01  0.7957747E-01            NaN
         13   -1    0    0    0    0  0.00000000000E+00  0.00000000000E+00  0.74505805969E-08  0.10566000000E+00  0.10566000000E+00 0.  1.
     999900   -1    0    0    0    0 -0.00000000000E+00 -0.00000000000E+00 -0.74505805969E-08  0.93827000000E+00  0.93827000000E+00 0. -1.
     999902    2    1    2    0    0  0.11139664271E-01 -0.53789593991E-02 -0.12598610073E-02  0.10314956695E+01  0.10314207210E+01 0.  0.
     999903    2    3    3    0    0  0.56159612751E-01 -0.61749716567E-02  0.12253605808E+00  0.14169071395E+00  0.43233557695E-01 0.  0.
         14    1    1    2    0    0 -0.11139664271E-01  0.53789593991E-02  0.12598610073E-02  0.12434330462E-01  0.00000000000E+00 0.  1.
     999901    1    3    3    0    0 -0.45019948480E-01  0.79601225756E-03 -0.12379591909E+00  0.88980495558E+00  0.88000000000E+00 0. -1.
        -11    1    4    4    0    0  0.58259710660E-01 -0.16504676126E-01  0.10275292214E+00  0.11926869811E+00  0.51100000000E-03 0. -1.
         11    1    4    4    0    0 -0.21000979090E-02  0.10329704469E-01  0.19783135944E-01  0.22422015842E-01  0.51100000000E-03 0.  1.
</event>
<event>
 7    1  0.2190295E+004  0.1043930E+01  0.7957747E-01            NaN
         13   -1    0    0    0    0  0.00000000000E+00  0.00000000000E+00  0.74505805969E-08  0.10566000000E+00  0.10566000000E+00 0.  1.
     999900   -1    0    0    0    0 -0.00000000000E+00 -0.00000000000E+00 -0.74505805969E-08  0.93827000000E+00  0.93827000000E+00 0.  1.
     999903    2    1    2    0    0 -0.14529188711E-01 -0.49378826666E-01 -0.11077767265E-01  0.69076075165E-01  0.44714889971E-01 0.  0.
         14    1    1    2    0    0  0.26788438157E-02 -0.26591501385E-01  0.84335309807E-01  0.88468800322E-01  0.00000000000E+00 0.  1.
     999901    1    1    2    0    0  0.11850344896E-01  0.75970328051E-01 -0.73257542542E-01  0.88638512451E+00  0.88000000000E+00 0.  1.
        -11    1    3    3    0    0 -0.74713288987E-02 -0.14222348523E-01 -0.25728984703E-01  0.30337068544E-01  0.51100000000E-03 0.  1.
         11    1    3    3    0    0 -0.70578598127E-02 -0.35156478144E-01  0.14651217438E-01  0.38739006621E-01  0.51100000000E-03 0. -1.
</event>
<event>
 8    1  0.2190295E+004  0.1043930E+01  0.7957747E-01            NaN
         13   -1    0    0    0    0  0.00000000000E+00  0.00000000000E+00  0.74505805969E-08  0.10566000000E+00  0.10566000000E+00 0.  1.
     999900   -1    0    0    0    0 -0.00000000000E+00 -0.00000000000E+00 -0.74505805969E-08  0.93827000000E+00  0.93827000000E+00 0. -1.
     999902    2    1    2    0    0 -0.57981686134E-02  0.11780051066E-01  0.56806204153E-02  0.10296241337E+01  0.10295247442E+01 0.  0.
     999903    2    3    3    0    0 -0.47757901371E-01 -0.34691497996E-01  0.11832969014E+00  0.14023668328E+00  0.46691483091E-01 0.  0.
         14    1    1    2    0    0  0.57981686134E-02 -0.11780051066E-01 -0.56806204153E-02  0.14305866303E-01  0.00000000000E+00 0. -1.
     999901    1    3    3    0    0  0.41959732757E-01  0.46471549062E-01 -0.11264906972E+00  0.88938745041E+00  0.88000000000E+00 0. -1.
        -11    1    4    4    0    0 -0.18472433739E-01  0.35484516489E-02  0.91925138668E-02  0.20942438959E-01  0.51100000000E-03 0.  1.
         11    1    4    4    0    0 -0.29285467632E-01 -0.38239949645E-01  0.10913717627E+00  0.11929424432E+00  0.51100000000E-03 0. -1.
</event>
<event>
 8    1  0.2190295E+004  0.1043930E+01  0.7957747E-01            NaN
         13   -1    0    0    0    0  0.00000000000E+00  0.00000000000E+00  0.74505805969E-08  0.10566000000E+00  0.10566000000E+00 0. -1.
     999900   -1    0    0    0    0 -0.00000000000E+00 -0.00000000000E+00 -0.74505805969E-08  0.93827000000E+00  0.93827000000E+00 0.  1.
     999902    2    1    2    0    0 -0.76382859452E-02  0.76456986538E-02 -0.34095627219E-02  0.10325975140E+01  0.10325353266E+01 0.  0.
     999903    2    3    3    0    0  0.71108744807E-01 -0.11631314165E-01 -0.11373022579E+00  0.14201155706E+00  0.45177173674E-01 0.  0.
         14    1    1    2    0    0  0.76382859452E-02 -0.76456986538E-02  0.34095627219E-02  0.11332485960E-01  0.00000000000E+00 0.  1.
     999901    1    3    3    0    0 -0.78747030752E-01  0.19277012819E-01  0.11032066307E+00  0.89058595698E+00  0.88000000000E+00 0. -1.
        -11    1    4    4    0    0  0.72570403411E-01 -0.70803519541E-02 -0.81225464765E-01  0.10915325044E+00  0.51100000000E-03 0. -1.
         11    1    4    4    0    0 -0.14616586039E-02 -0.45509622111E-02 -0.32504761029E-01  0.32858306613E-01  0.51100000000E-03 0.  1.
</event>
<event>
 8    1  0.2190295E+004  0.1043930E+01  0.7957747E-01            NaN
         13   -1    0    0    0    0  0.00000000000E+00  0.00000000000E+00  0.74505805969E-08  0.10566000000E+00  0.10566000000E+00 0. -1.
     999900   -1    0    0    0    0 -0.00000000000E+00 -0.00000000000E+00 -0.74505805969E-08  0.93827000000E+00  0.93827000000E+00 0.  1.
     999902    2    1    2    0    0 -0.73247912319E-02 -0.14435198572E-01 -0.11820178295E-02  0.10276996368E+01  0.10275714665E+01 0.  0.
     999903    2    3    3    0    0  0.97484278829E-01  0.80645754147E-01 -0.22730420950E-01  0.13613378816E+00  0.44819794297E-01 0.  0.
         14    1    1    2    0    0  0.73247912319E-02  0.14435198572E-01  0.11820178295E-02  0.16230363229E-01  0.00000000000E+00 0. -1.
     999901    1    3    3    0    0 -0.10480907006E+00 -0.95080952719E-01  0.21548403121E-01  0.89156584861E+00  0.88000000000E+00 0. -1.
        -11    1    4    4    0    0  0.63775854982E-01  0.73730159556E-01 -0.27739197456E-01  0.10135689569E+00  0.51100000000E-03 0. -1.
         11    1    4    4    0    0  0.33708423847E-01  0.69155945906E-02  0.50087765063E-02  0.34776892470E-01  0.51100000000E-03 0.  1.
</event>
<event>
 8    1  0.2190295E+004  0.1043930E+01  0.7957747E-01            NaN
         13   -1    0    0    0    0  0.00000000000E+00  0.00000000000E+00  0.74505805969E-08  0.10566000000E+00  0.10566000000E+00 0. -1.
     999900   -1    0    0    0    0 -0.00000000000E+00 -0.00000000000E+00 -0.74505805969E-08  0.93827000000E+00  0.93827000000E+00 0.  1.
     999902    2    1    2    0    0  0.19601921294E-02  0.13909630773E-03 -0.13724428454E-01  0.10300655982E+01  0.10299722884E+01 0.  0.
     999903    2    3    3    0    0 -0.48243716181E-01  0.12425765509E+00  0.10019946711E-01  0.13962208826E+00  0.40329978897E-01 0.  0.
         14    1    1    2    0    0 -0.19601921294E-02 -0.13909630773E-03  0.13724428454E-01  0.13864401803E-01  0.00000000000E+00 0. -1.
     999901    1    3    3    0    0  0.50203908310E-01 -0.12411855878E+00 -0.23744375166E-01  0.89044350994E+00  0.88000000000E+00 0. -1.
        -11    1    4    4    0    0 -0.25644231697E-02  0.16229249767E-01 -0.11909655943E-01  0.20299404914E-01  0.51100000000E-03 0.  1.
         11    1    4    4    0    0 -0.45679293011E-01  0.10802840532E+00  0.21929602655E-01  0.11932268334E+00  0.51100000000E-03 0. -1.
</event>
<event>
 8    1  0.2190295E+004  0.1043930E+01  0.7957747E-01            NaN
         13   -1    0    0    0    0  0.00000000000E+00  0.00000000000E+00  0.74505805969E-08  0.10566000000E+00  0.10566000000E+00 0. -1.
     999900   -1    0    0    0    0 -0.00000000000E+00 -0.00000000000E+00 -0.74505805969E-08  0.93827000000E+00  0.93827000000E+00 0.  1.
     999902    2    1    2    0    0 -0.55382395005E-02  0.38650652271E-02  0.11791125936E-01  0.10303417155E+01  0.10302521095E+01 0.  0.
     999903    2    3    3    0    0 -0.60712204962E-01  0.11892669648E+00  0.13122786592E-01  0.14113694783E+00  0.43793830010E-01 0.  0.
         14    1    1    2    0    0  0.55382395005E-02 -0.38650652271E-02 -0.11791125936E-01  0.13588284542E-01  0.00000000000E+00 0.  1.
     999901    1    3    3    0    0  0.55173965461E-01 -0.11506163126E+00 -0.13316606558E-02  0.88920476763E+00  0.88000000000E+00 0. -1.
        -11    1    4    4    0    0 -0.59021019203E-01  0.70348823319E-01  0.10924759279E-01  0.92477289842E-01  0.51100000000E-03 0.  1.
         11    1    4    4    0    0 -0.16911857586E-02  0.48577873164E-01  0.21980273128E-02  0.48659657988E-01  0.51100000000E-03 0. -1.
</event>
<event>
 8    1  0.2190295E+004  0.1043930E+01  0.7957747E-01            NaN
         13   -1    0    0    0    0  0.00000000000E+00  0.00000000000E+00  0.74505805969E-08  0.10566000000E+00  0.10566000000E+00 0. -1.
     999900   -1    0    0    0    0 -0.00000000000E+00 -0.00000000000E+00 -0.74505805969E-08  0.93827000000E+00  0.93827000000E+00 0.  1.
     999902    2    1    2    0    0  0.10404860899E-02 -0.58689201573E-02 -0.12716633078E-01  0.10298857986E+01  0.10297900362E+01 0.  0.
     999903    2    3    3    0    0 -0.10168321852E+00  0.71492208944E-01 -0.44398868741E-01  0.13997531559E+00  0.46596314885E-01 0.  0.
         14    1    1    2    0    0 -0.10404860899E-02  0.58689201573E-02  0.12716633078E-01  0.14044201364E-01  0.00000000000E+00 0. -1.
     999901    1    3    3    0    0  0.10272370460E+00 -0.77361129101E-01  0.31682235663E-01  0.88991048305E+00  0.88000000000E+00 0. -1.
        -11    1    4    4    0    0 -0.41685805100E-01  0.38744239000E-01 -0.43468449563E-01  0.71614171998E-01  0.51100000000E-03 0. -1.
         11    1    4    4    0    0 -0.59997413415E-01  0.32747969944E-01 -0.93041917802E-03  0.68361143589E-01  0.51100000000E-03 0.  1.
</event>
<event>
 8    1  0.2190295E+004  0.1043930E+01  0.7957747E-01            NaN
         13   -1    0    0    0    0  0.00000000000E+00  0.00000000000E+00  0.74505805969E-08  0.10566000000E+00  0.10566000000E+00 0. -1.
     999900   -1    0    0    0    0 -0.00000000000E+00 -0.00000000000E+00 -0.74505805969E-08  0.93827000000E+00  0.93827000000E+00 0. -1.
     999902    2    1    2    0    0  0.45825149065E-02 -0.40531526925E-02 -0.12507162967E-01  0.10300067599E+01  0.10299126511E+01 0.  0.
     999903    2    3    3    0    0  0.14023109977E-01  0.10134405512E+00 -0.84901777603E-01  0.14071565093E+00  0.46101165440E-01 0.  0.
         14    1    1    2    0    0 -0.45825149065E-02  0.40531526925E-02  0.12507162967E-01  0.13923240107E-01  0.00000000000E+00 0. -1.
     999901    1    3    3    0    0 -0.94405950704E-02 -0.10539720781E+00  0.72394614636E-01  0.88929110896E+00  0.88000000000E+00 0. -1.
        -11    1    4    4    0    0  0.15196149860E-01  0.26421761728E-01 -0.45093759884E-02  0.30816035698E-01  0.51100000000E-03 0. -1.
         11    1    4    4    0    0 -0.11730398827E-02  0.74922293393E-01 -0.80392401615E-01  0.10989961523E+00  0.51100000000E-03 0.  1.
</event>
<event>
 8    1  0.2190295E+004  0.1043930E+01  0.7957747E-01            NaN
         13   -1    0    0    0    0  0.00000000000E+00  0.00000000000E+00  0.74505805969E-08  0.10566000000E+00  0.10566000000E+00 0. -1.
     999900   -1    0    0    0    0 -0.00000000000E+00 -0.00000000000E+00 -0.74505805969E-08  0.93827000000E+00  0.93827000000E+00 0. -1.
     999902    2    1    2    0    0  0.85180291676E-02 -0.95693833216E-02  0.50741949779E-02  0.10301504001E+01  0.10300582360E+01 0.  0.
     999903    2    3    3    0    0 -0.13141204357E-01 -0.13129698287E+00 -0.19381405124E-01  0.14117075623E+00  0.46281255234E-01 0.  0.
         14    1    1    2    0    0 -0.85180291676E-02  0.95693833216E-02 -0.50741949779E-02  0.13779599876E-01  0.00000000000E+00 0.  1.
     999901    1    3    3    0    0  0.21659233524E-01  0.12172759955E+00  0.24455600102E-01  0.88897964390E+00  0.88000000000E+00 0. -1.
        -11    1    4    4    0    0  0.63281106356E-02 -0.66888675298E-01  0.96645894686E-02  0.67880816715E-01  0.51100000000E-03 0.  1.
         11    1    4    4    0    0 -0.19469314992E-01 -0.64408307573E-01 -0.29045994592E-01  0.73289939511E-01  0.51100000000E-03 0. -1.
</event>
<event>
 8    1  0.2190295E+004  0.1043930E+01  0.7957747E-01            NaN
         13   -1    0    0    0    0  0.00000000000E+00  0.00000000000E+00  0.74505805969E-08  0.10566000000E+00  0.10566000000E+00 0. -1.
     999900   -1    0    0    0    0 -0.00000000000E+00 -0.00000000000E+00 -0.74505805969E-08  0.93827000000E+00  0.93827000000E+00 0. -1.
     999902    2    1    2    0    0  0.95231799444E-02 -0.96240153268E-02 -0.54459148312E-02  0.10293364872E+01  0.10292330316E+01 0.  0.
     999903    2    3    3    0    0  0.52331549818E-01  0.96397692815E-01  0.71454991753E-01  0.13861379828E+00  0.45572611755E-01 0.  0.
         14    1    1    2    0    0 -0.95231799444E-02  0.96240153268E-02  0.54459148312E-02  0.14593512792E-01  0.00000000000E+00 0. -1.
     999901    1    3    3    0    0 -0.42808369874E-01 -0.10602170814E+00 -0.76900906584E-01  0.89072268892E+00  0.88000000000E+00 0. -1.
        -11    1    4    4    0    0  0.44588683017E-01  0.98701882831E-01  0.57865341464E-01  0.12279605528E+00  0.51100000000E-03 0.  1.
         11    1    4    4    0    0  0.77428668010E-02 -0.23041900161E-02  0.13589650289E-01  0.15817743009E-01  0.51100000000E-03 0. -1.
</event>
<event>
 8    1  0.2190295E+004  0.1043930E+01  0.7957747E-01            NaN
         13   -1    0    0    0    0  0.00000000000E+00  0.00000000000E+00  0.74505805969E-08  0.10566000000E+00  0.10566000000E+00 0.  1.
     999900   -1    0    0    0    0 -0.00000000000E+00 -0.00000000000E+00 -0.74505805969E-08  0.93827000000E+00  0.93827000000E+00 0.  1.
     999902    2    1    2    0    0 -0.12245591187E-01 -0.88888046901E-02 -0.11647645637E-02  0.10287536358E+01  0.10286416875E+01 0.  0.
     999903    2    3    3    0    0 -0.86287423302E-01 -0.90887079483E-01 -0.45473188748E-01  0.14073947694E+00  0.45097769757E-01 0.  0.
         14    1    1    2    0    0  0.12245591187E-01  0.88888046901E-02  0.11647645637E-02  0.15176364150E-01  0.00000000000E+00 0.  1.
     999901    1    3    3    0    0  0.74041832115E-01  0.81998274793E-01  0.44308424184E-01  0.88801415891E+00  0.88000000000E+00 0. -1.
        -11    1    4    4    0    0 -0.59525350267E-01 -0.73883170146E-01 -0.13726557434E-01  0.95867980343E-01  0.51100000000E-03 0.  1.
         11    1    4    4    0    0 -0.26762073036E-01 -0.17003909338E-01 -0.31746631314E-01  0.44871496596E-01  0.51100000000E-03 0. -1.
</event>
<event>
 8    1  0.2190295E+004  0.1043930E+01  0.7957747E-01            NaN
         13   -1    0    0    0    0  0.00000000000E+00  0.00000000000E+00  0.74505805969E-08  0.10566000000E+00  0.10566000000E+00 0.  1.
     999900   -1    0    0    0    0 -0.00000000000E+00 -0.00000000000E+00 -0.74505805969E-08  0.93827000000E+00  0.93827000000E+00 0. -1.
     999902    2    1    2    0    0  0.77702206615E-04  0.90512851300E-02  0.10030803826E-01  0.10304189369E+01  0.10303303532E+01 0.  0.
     999903    2    3    3    0    0  0.64972812879E-01  0.10320807111E+00  0.57113574974E-01  0.14177183988E+00  0.44316157107E-01 0.  0.
         14    1    1    2    0    0 -0.77702206615E-04 -0.90512851300E-02 -0.10030803826E-01  0.13511063079E-01  0.00000000000E+00 0. -1.
     999901    1    3    3    0    0 -0.64895110673E-01 -0.94156785984E-01 -0.47082771149E-01  0.88864709704E+00  0.88000000000E+00 0.  1.
        -11    1    4    4    0    0  0.16352796902E-01  0.55169349468E-01  0.91406552669E-02  0.58265631267E-01  0.51100000000E-03 0. -1.
         11    1    4    4    0    0  0.48620015978E-01  0.48038721646E-01  0.47972919707E-01  0.83506208615E-01  0.51100000000E-03 0.  1.
</event>
<event>
 8    1  0.2190295E+004  0.1043930E+01  0.7957747E-01            NaN
         13   -1    0    0    0    0  0.00000000000E+00  0.00000000000E+00  0.74505805969E-08  0.10566000000E+00  0.10566000000E+00 0.  1.
     999900   -1    0    0    0    0 -0.00000000000E+00 -0.00000000000E+00 -0.74505805969E-08  0.93827000000E+00  0.93827000000E+00 0.  1.
     999902    2    1    2    0    0 -0.63360546960E-02 -0.12022559509E-01  0.16622321674E-02  0.10302387421E+01  0.10301477638E+01 0.  0.
     999903    2    3    3    0    0  0.32878559283E-01 -0.14480053845E-01 -0.12552936742E+00  0.14022664770E+00  0.51139212176E-01 0.  0.
         14    1    1    2    0    0  0.63360546960E-02  0.12022559509E-01 -0.16622321674E-02  0.13691257869E-01  0.00000000000E+00 0.  1.
     999901    1    3    3    0    0 -0.39214613979E-01  0.24574943364E-02  0.12719159958E+00  0.89001209443E+00  0.88000000000E+00 0. -1.
        -11    1    4    4    0    0  0.39403369538E-01 -0.12537560976E-01 -0.52270888379E-01  0.66650752877E-01  0.51100000000E-03 0.  1.
         11    1    4    4    0    0 -0.65248102553E-02 -0.19424928690E-02 -0.73258479036E-01  0.73575894824E-01  0.51100000000E-03 0. -1.
</event>
<event>
 8    1  0.2190295E+004  0.1043930E+01  0.7957747E-01            NaN
         13   -1    0    0    0    0  0.00000000000E+00  0.00000000000E+00  0.74505805969E-08  0.10566000000E+00  0.10566000000E+00 0. -1.
     999900   -1    0    0    0    0 -0.00000000000E+00 -0.00000000000E+00 -0.74505805969E-08  0.93827000000E+00  0.93827000000E+00 0.  1.
     999902    2    1    2    0    0 -0.13577552907E-01 -0.40429399083E-02  0.23162736081E-02  0.10295751949E+01  0.10294751194E+01 0.  0.
     999903    2    3    3    0    0 -0.31862496769E-01  0.12341168001E+00 -0.42618061915E-01  0.13907077952E+00  0.35759209316E-01 0.  0.
         14    1    1    2    0    0  0.13577552907E-01  0.40429399083E-02 -0.23162736081E-02  0.14354805101E-01  0.00000000000E+00 0. -1.
     999901    1    3    3    0    0  0.18284943862E-01 -0.12745461992E+00  0.44934335523E-01  0.89050441538E+00  0.88000000000E+00 0. -1.
        -11    1    4    4    0    0 -0.20786574670E-01  0.58304094318E-01 -0.38501411196E-01  0.72897660359E-01  0.51100000000E-03 0.  1.
         11    1    4    4    0    0 -0.11075922099E-01  0.65107585690E-01 -0.41166507189E-02  0.66173119156E-01  0.51100000000E-03 0. -1.
</event>
<event>
 8    1  0.2190295E+004  0.1043930E+01  0.7957747E-01            NaN
         13   -1    0    0    0    0  0.00000000000E+00  0.00000000000E+00  0.74505805969E-08  0.10566000000E+00  0.10566000000E+00 0.  1.
     999900   -1    0    0    0    0 -0.00000000000E+00 -0.00000000000E+00 -0.74505805969E-08  0.93827000000E+00  0.93827000000E+00 0. -1.
     999902    2    1    2    0    0 -0.11903782350E-01 -0.35227948455E-02 -0.71514889502E-02  0.10296033147E+01  0.10295036337E+01 0.  0.
     999903    2    3    3    0    0  0.49062905216E-01 -0.97240375246E-01 -0.72910347378E-01  0.14009550172E+00  0.49476980525E-01 0.  0.
         14    1    1    2    0    0  0.11903782350E-01  0.35227948455E-02  0.71514889502E-02  0.14326685310E-01  0.00000000000E+00 0. -1.
     999901    1    3    3    0    0 -0.60966687566E-01  0.93717580401E-01  0.65758858427E-01  0.88950781297E+00  0.88000000000E+00 0.  1.
        -11    1    4    4    0    0  0.81135072724E-02 -0.39280593607E-01 -0.52846017118E-01  0.66345735964E-01  0.51100000000E-03 0. -1.
         11    1    4    4    0    0  0.40949397944E-01 -0.57959781639E-01 -0.20064330259E-01  0.73749765758E-01  0.51100000000E-03 0.  1.
</event>
<event>
 8    1  0.2190295E+004  0.1043930E+01  0.7957747E-01            NaN
         13   -1    0    0    0    0  0.00000000000E+00  0.00000000000E+00  0.74505805969E-08  0.10566000000E+00  0.10566000000E+00 0.  1.
     999900   -1    0    0    0    0 -0.00000000000E+00 -0.00000000000E+00 -0.74505805969E-08  0.93827000000E+00  0.93827000000E+00 0.  1.
     999902    2    1    2    0    0  0.15120614980E-02 -0.10831958613E-01 -0.94144152124E-02  0.10294991694E+01  0.10293980236E+01 0.  0.
     999903    2    3    3    0    0  0.49083437093E-01  0.59776581335E-01 -0.10748074554E+00  0.13996805314E+00  0.45348889344E-01 0.  0.
         14    1    1    2    0    0 -0.15120614980E-02  0.10831958613E-01  0.94144152124E-02  0.14430830577E-01  0.00000000000E+00 0.  1.
     999901    1    3    3    0    0 -0.47571375595E-01 -0.70608539948E-01  0.98066330330E-01  0.88953111628E+00  0.88000000000E+00 0. -1.
        -11    1    4    4    0    0  0.51611082471E-01  0.33323527656E-01 -0.61954067894E-01  0.87250954029E-01  0.51100000000E-03 0. -1.
         11    1    4    4    0    0 -0.25276453782E-02  0.26453053679E-01 -0.45526677648E-01  0.52717099112E-01  0.51100000000E-03 0.  1.
</event>
<event>
 8    1  0.2190295E+004  0.1043930E+01  0.7957747E-01            NaN
         13   -1    0    0    0    0  0.00000000000E+00  0.00000000000E+00  0.74505805969E-08  0.10566000000E+00  0.10566000000E+00 0. -1.
     999900   -1    0    0    0    0 -0.00000000000E+00 -0.00000000000E+00 -0.74505805969E-08  0.93827000000E+00  0.93827000000E+00 0. -1.
     999902    2    1    2    0    0  0.61654807129E-02 -0.95958020171E-02  0.70089352013E-02  0.10305427769E+01  0.10304558202E+01 0.  0.
     999903    2    3    3    0    0 -0.32373642372E-01  0.69595661389E-01 -0.10640029066E+00  0.13890484347E+00  0.45628115042E-01 0.  0.
         14    1    1    2    0    0 -0.61654807129E-02  0.95958020171E-02 -0.70089352013E-02  0.13387223066E-01  0.00000000000E+00 0.  1.
     999901    1    3    3    0    0  0.38539123085E-01 -0.79191463406E-01  0.11340922586E+00  0.89163793347E+00  0.88000000000E+00 0.  1.
        -11    1    4    4    0    0 -0.19079287146E-01  0.58269111982E-01 -0.10472199426E+00  0.12135182657E+00  0.51100000000E-03 0.  1.
         11    1    4    4    0    0 -0.13294355227E-01  0.11326549407E-01 -0.16782963953E-02  0.17553016896E-01  0.51100000000E-03 0. -1.
</event>
<event>
 8    1  0.2860094E+004  0.1043930E+01  0.7957747E-01            NaN
         13   -1    0    0    0    0  0.00000000000E+00  0.00000000000E+00  0.74505805969E-08  0.10566000000E+00  0.10566000000E+00 0. -1.
     999900   -1    0    0    0    0 -0.00000000000E+00 -0.00000000000E+00 -0.74505805969E-08  0.93827000000E+00  0.93827000000E+00 0.  1.
     999902    2    1    2    0    0 -0.80113105202E-03  0.11224482767E-01  0.71577751702E-02  0.10305934124E+01  0.10305071164E+01 0.  0.
     999903    2    3    3    0    0 -0.90726858914E-01  0.98708736006E-01  0.33646770543E-02  0.14168705133E+00  0.45706913816E-01 0.  0.
         14    1    1    2    0    0  0.80113105202E-03 -0.11224482767E-01 -0.71577751702E-02  0.13336587635E-01  0.00000000000E+00 0.  1.
     999901    1    3    3    0    0  0.89925727862E-01 -0.87484253239E-01  0.37930981159E-02  0.88890636104E+00  0.88000000000E+00 0. -1.
        -11    1    4    4    0    0 -0.21400946974E-01  0.56418916841E-01 -0.11344980954E-02  0.60354311493E-01  0.51100000000E-03 0. -1.
         11    1    4    4    0    0 -0.69325911940E-01  0.42289819165E-01  0.44991751497E-02  0.81332739837E-01  0.51100000000E-03 0.  1.
</event>
<event>
 8    1  0.2190295E+004  0.1043930E+01  0.7957747E-01            NaN
         13   -1    0    0    0    0  0.00000000000E+00  0.00000000000E+00  0.74505805969E-08  0.10566000000E+00  0.10566000000E+00 0.  1.
     999900   -1    0    0    0    0 -0.00000000000E+00 -0.00000000000E+00 -0.74505805969E-08  0.93827000000E+00  0.93827000000E+00 0. -1.
     999902    2    1    2    0    0  0.68073787946E-03 -0.10056052898E-01  0.97959291175E-02  0.10298748290E+01  0.10297789159E+01 0.  0.
     999903    2    3    3    0    0  0.71099691337E-01  0.46255878132E-01 -0.99875307234E-01  0.13849520021E+00  0.44844967561E-01 0.  0.
         14    1    1    2    0    0 -0.68073787946E-03  0.10056052898E-01 -0.97959291175E-02  0.14055170978E-01  0.00000000000E+00 0. -1.
     999901    1    3    3    0    0 -0.70418953457E-01 -0.56311931030E-01  0.10967123635E+00  0.89137962881E+00  0.88000000000E+00 0. -1.
        -11    1    4    4    0    0  0.10846482706E-01  0.89052264361E-02  0.22022956381E-02  0.14214797644E-01  0.51100000000E-03 0.  1.
         11    1    4    4    0    0  0.60253208631E-01  0.37350651696E-01 -0.10207760287E+00  0.12428040256E+00  0.51100000000E-03 0. -1.
</event>
<event>
 8    1  0.2190295E+004  0.1043930E+01  0.7957747E-01            NaN
         13   -1    0    0    0    0  0.00000000000E+00  0.00000000000E+00  0.74505805969E-08  0.10566000000E+00  0.10566000000E+00 0.  1.
     999900   -1    0    0    0    0 -0.00000000000E+00 -0.00000000000E+00 -0.74505805969E-08  0.93827000000E+00  0.93827000000E+00 0.  1.
     999902    2    1    2    0    0 -0.10747534318E-01  0.12237934507E-01 -0.11786222742E-02  0.10276000984E+01  0.10274703386E+01 0.  0.
     999903    2    3    3    0    0  0.76756750923E-01 -0.50631145545E-01 -0.90624839510E-01  0.13652762834E+00  0.44405180481E-01 0.  0.
         14    1    1    2    0    0  0.10747534318E-01 -0.12237934507E-01  0.11786222742E-02  0.16329901573E-01  0.00000000000E+00 0. -1.
     999901    1    3    3    0    0 -0.87504285241E-01  0.62869080052E-01  0.89446217236E-01  0.89107247008E+00  0.88000000000E+00 0. -1.
        -11    1    4    4    0    0  0.25169063503E-01 -0.11272533760E-01 -0.33682372657E-02  0.27787729635E-01  0.51100000000E-03 0. -1.
         11    1    4    4    0    0  0.51587687420E-01 -0.39358611785E-01 -0.87256602244E-01  0.10873989871E+00  0.51100000000E-03 0.  1.
</event>
<event>
 8    1  0.2190295E+004  0.1043930E+01  0.7957747E-01            NaN
         13   -1    0    0    0    0  0.00000000000E+00  0.00000000000E+00  0.74505805969E-08  0.10566000000E+00  0.10566000000E+00 0. -1.
     999900   -1    0    0    0    0 -0.00000000000E+00 -0.00000000000E+00 -0.74505805969E-08  0.93827000000E+00  0.93827000000E+00 0. -1.
     999902    2    1    2    0    0  0.12155408106E-01  0.40964293316E-02 -0.48929284761E-02  0.10302013647E+01  0.10301098855E+01 0.  0.
     999903    2    3    3    0    0  0.42449599341E-01 -0.10347922838E+00 -0.72065050955E-01  0.14059338684E+00  0.45422567770E-01 0.  0.
         14    1    1    2    0    0 -0.12155408106E-01 -0.40964293316E-02  0.48929284761E-02  0.13728635349E-01  0.00000000000E+00 0. -1.
     999901    1    3    3    0    0 -0.30294191235E-01  0.10757565771E+00  0.67172122479E-01  0.88960797782E+00  0.88000000000E+00 0. -1.
        -11    1    4    4    0    0  0.33845361488E-01 -0.77490298389E-01 -0.75034666793E-01  0.11305183404E+00  0.51100000000E-03 0.  1.
         11    1    4    4    0    0  0.86042378529E-02 -0.25988929988E-01  0.29696158385E-02  0.27541552792E-01  0.51100000000E-03 0. -1.
</event>
<event>
 8    1  0.2190295E+004  0.1043930E+01  0.7957747E-01            NaN
         13   -1    0    0    0    0  0.00000000000E+00  0.00000000000E+00  0.74505805969E-08  0.10566000000E+00  0.10566000000E+00 0.  1.
     999900   -1    0    0    0    0 -0.00000000000E+00 -0.00000000000E+00 -0.74505805969E-08  0.93827000000E+00  0.93827000000E+00 0. -1.
     999902    2    1    2    0    0 -0.54988270243E-02 -0.11420656915E-01 -0.54861349839E-02  0.10301181869E+01  0.10300255885E+01 0.  0.
     999903    2    3    3    0    0 -0.51176586622E-01 -0.12215520629E+00 -0.24512139634E-01  0.14179922001E+00  0.44330986518E-01 0.  0.
         14    1    1    2    0    0  0.54988270243E-02  0.11420656915E-01  0.54861349839E-02  0.13811813062E-01  0.00000000000E+00 0.  1.
     999901    1    3    3    0    0  0.45677759598E-01  0.11073454937E+00  0.19026004651E-01  0.88831896693E+00  0.88000000000E+00 0.  1.
        -11    1    4    4    0    0 -0.43421729230E-01 -0.12177051720E+00 -0.16002516712E-01  0.13026836566E+00  0.51100000000E-03 0.  1.
         11    1    4    4    0    0 -0.77548573920E-02 -0.38468908350E-03 -0.85096229227E-02  0.11530854355E-01  0.51100000000E-03 0. -1.
</event>
<event>
 8    1  0.2190295E+004  0.1043930E+01  0.7957747E-01            NaN
         13   -1    0    0    0    0  0.00000000000E+00  0.00000000000E+00  0.74505805969E-08  0.10566000000E+00  0.10566000000E+00 0.  1.
     999900   -1    0    0    0    0 -0.00000000000E+00 -0.00000000000E+00 -0.74505805969E-08  0.93827000000E+00  0.93827000000E+00 0. -1.
     999902    2    1    2    0    0  0.10549034399E-01  0.39009700701E-02 -0.80831684843E-02  0.10300794655E+01  0.10299863435E+01 0.  0.
     999903    2    3    3    0    0  0.49446051346E-01  0.73262801845E-01  0.97498832631E-01  0.14020778899E+00  0.48372012570E-01 0.  0.
         14    1    1    2    0    0 -0.10549034399E-01 -0.39009700701E-02  0.80831684843E-02  0.13850534538E-01  0.00000000000E+00 0. -1.
     999901    1    3    3    0    0 -0.38897016947E-01 -0.69361831775E-01 -0.10558200112E+00  0.88987167648E+00  0.88000000000E+00 0. -1.
        -11    1    4    4    0    0  0.44738783658E-01  0.42493705653E-01  0.36416742090E-01  0.71649940745E-01  0.51100000000E-03 0. -1.
         11    1    4    4    0    0  0.47072676881E-02  0.30769096192E-01  0.61082090542E-01  0.68557848241E-01  0.51100000000E-03 0.  1.
</event>
<event>
 8    1  0.2190295E+004  0.1043930E+01  0.7957747E-01            NaN
         13   -1    0    0    0    0  0.00000000000E+00  0.00000000000E+00  0.74505805969E-08  0.10566000000E+00  0.10566000000E+00 0.  1.
     999900   -1    0    0    0    0 -0.00000000000E+00 -0.00000000000E+00 -0.74505805969E-08  0.93827000000E+00  0.93827000000E+00 0.  1.
     999902    2    1    2    0    0  0.14683528961E-02 -0.11953435830E-01 -0.91416880878E-02  0.10288101075E+01  0.10286989969E+01 0.  0.
     999903    2    3    3    0    0  0.62886949619E-01 -0.49317557764E-01  0.10392708908E+00  0.13866805703E+00  0.45177430865E-01 0.  0.
         14    1    1    2    0    0 -0.14683528961E-02  0.11953435830E-01  0.91416880878E-02  0.15119892509E-01  0.00000000000E+00 0.  1.
     999901    1    3    3    0    0 -0.61418596723E-01  0.37364121934E-01 -0.11306877717E+00  0.89014205046E+00  0.88000000000E+00 0.  1.
        -11    1    4    4    0    0  0.35562109939E-01 -0.44909765453E-01  0.42624779458E-01  0.71405067336E-01  0.51100000000E-03 0.  1.
         11    1    4    4    0    0  0.27324839680E-01 -0.44077923106E-02  0.61302309621E-01  0.67262989693E-01  0.51100000000E-03 0. -1.
</event>
<event>
 8    1  0.2190295E+004  0.1043930E+01  0.7957747E-01            NaN
         13   -1    0    0    0    0  0.00000000000E+00  0.00000000000E+00  0.74505805969E-08  0.10566000000E+00  0.10566000000E+00 0. -1.
     999900   -1    0    0    0    0 -0.00000000000E+00 -0.00000000000E+00 -0.74505805969E-08  0.93827000000E+00  0.93827000000E+00 0.  1.
     999902    2    1    2    0    0 -0.13781100325E-02  0.14839241536E-02  0.14053625115E-01  0.10297312114E+01  0.10296333144E+01 0.  0.
     999903    2    3    3    0    0  0.11478640927E+00  0.13057469364E-01  0.65198559939E-01  0.14054959508E+00  0.46442644194E-01 0.  0.
         14    1    1    2    0    0  0.13781100325E-02 -0.14839241536E-02 -0.14053625115E-01  0.14198788576E-01  0.00000000000E+00 0.  1.
     999901    1    3    3    0    0 -0.11616451930E+00 -0.11573545210E-01 -0.51144934825E-01  0.88918161635E+00  0.88000000000E+00 0. -1.
        -11    1    4    4    0    0  0.76001332898E-01  0.30515010550E-01  0.40565418214E-01  0.91395747970E-01  0.51100000000E-03 0.  1.
         11    1    4    4    0    0  0.38785076368E-01 -0.17457541186E-01  0.24633141725E-01  0.49153847106E-01  0.51100000000E-03 0. -1.
</event>
<event>
 8    1  0.2190295E+004  0.1043930E+01  0.7957747E-01            NaN
         13   -1    0    0    0    0  0.00000000000E+00  0.00000000000E+00  0.74505805969E-08  0.10566000000E+00  0.10566000000E+00 0.  1.
     999900   -1    0    0    0    0 -0.00000000000E+00 -0.00000000000E+00 -0.74505805969E-08  0.93827000000E+00  0.93827000000E+00 0.  1.
     999902    2    1    2    0    0  0.10927375095E-01 -0.27456939208E-02 -0.63843063589E-02  0.10309798753E+01  0.10308985389E+01 0.  0.
     999903    2    3    3    0    0 -0.40369094947E-01  0.12119882130E+00 -0.37003206499E-01  0.14028852152E+00  0.44640943847E-01 0.  0.
         14    1    1    2    0    0 -0.10927375095E-01  0.27456939208E-02  0.63843063589E-02  0.12950124681E-01  0.00000000000E+00 0. -1.
     999901    1    3    3    0    0  0.51296470042E-01 -0.12394451522E+00  0.30618900140E-01  0.89069135380E+00  0.88000000000E+00 0.  1.
        -11    1    4    4    0    0 -0.33669485550E-01  0.34038424030E-01 -0.11905667916E-01  0.49338165928E-01  0.51100000000E-03 0.  1.
         11    1    4    4    0    0 -0.66996093972E-02  0.87160397267E-01 -0.25097538583E-01  0.90950355589E-01  0.51100000000E-03 0. -1.
</event>
<event>
 8    1  0.2190295E+004  0.1043930E+01  0.7957747E-01            NaN
         13   -1    0    0    0    0  0.00000000000E+00  0.00000000000E+00  0.74505805969E-08  0.10566000000E+00  0.10566000000E+00 0.  1.
     999900   -1    0    0    0    0 -0.00000000000E+00 -0.00000000000E+00 -0.74505805969E-08  0.93827000000E+00  0.93827000000E+00 0.  1.
     999902    2    1    2    0    0  0.71883764675E-02 -0.11174474863E-01  0.32179023435E-02  0.10302589891E+01  0.10301682814E+01 0.  0.
     999903    2    3    3    0    0 -0.92910641286E-01  0.86695042250E-01 -0.31863906655E-01  0.13850286261E+00  0.44936808841E-01 0.  0.
         14    1    1    2    0    0 -0.71883764675E-02  0.11174474863E-01 -0.32179023435E-02  0.13671010942E-01  0.00000000000E+00 0.  1.
     999901    1    3    3    0    0  0.10009901775E+00 -0.97869517113E-01  0.35081808999E-01  0.89175612645E+00  0.88000000000E+00 0.  1.
        -11    1    4    4    0    0 -0.62901196086E-01  0.81126539621E-01 -0.15354215747E-01  0.10379830905E+00  0.51100000000E-03 0. -1.
         11    1    4    4    0    0 -0.30009445200E-01  0.55685026293E-02 -0.16509690908E-01  0.34704553557E-01  0.51100000000E-03 0.  1.
</event>
<event>
 8    1  0.2190295E+004  0.1043930E+01  0.7957747E-01            NaN
         13   -1    0    0    0    0  0.00000000000E+00  0.00000000000E+00  0.74505805969E-08  0.10566000000E+00  0.10566000000E+00 0. -1.
     999900   -1    0    0    0    0 -0.00000000000E+00 -0.00000000000E+00 -0.74505805969E-08  0.93827000000E+00  0.93827000000E+00 0.  1.
     999902    2    1    2    0    0 -0.10185097371E-01  0.80192243651E-02 -0.23200899909E-02  0.10307608320E+01  0.10306767029E+01 0.  0.
     999903    2    3    3    0    0 -0.63256469785E-01 -0.11683082760E+00 -0.53419998250E-02  0.14036022668E+00  0.44962573580E-01 0.  0.
         14    1    1    2    0    0  0.10185097371E-01 -0.80192243651E-02  0.23200899909E-02  0.13169167986E-01  0.00000000000E+00 0.  1.
     999901    1    3    3    0    0  0.53071372414E-01  0.12485005197E+00  0.30219098341E-02  0.89040060534E+00  0.88000000000E+00 0.  1.
        -11    1    4    4    0    0 -0.35966944576E-01 -0.52994784602E-01  0.18970759139E-01  0.66799843715E-01  0.51100000000E-03 0. -1.
         11    1    4    4    0    0 -0.27289525209E-01 -0.63836043000E-01 -0.24312758963E-01  0.73560382961E-01  0.51100000000E-03 0.  1.
</event>
<event>
 7    1  0.2190295E+004  0.1043930E+01  0.7957747E-01            NaN
         13   -1    0    0    0    0  0.00000000000E+00  0.00000000000E+00  0.74505805969E-08  0.10566000000E+00  0.10566000000E+00 0. -1.
     999900   -1    0    0    0    0 -0.00000000000E+00 -0.00000000000E+00 -0.74505805969E-08  0.93827000000E+00  0.93827000000E+00 0. -1.
     999903    2    1    2    0    0  0.10503292696E+00  0.52015563242E-01 -0.15871846787E-01  0.12745467727E+00  0.47489416416E-01 0.  0.
         14    1    1    2    0    0 -0.13973223031E-01 -0.24866526749E-01  0.13022045156E-01  0.31355522233E-01  0.00000000000E+00 0. -1.
     999901    1    1    2    0    0 -0.91059703933E-01 -0.27149036493E-01  0.28498016308E-02  0.88511980050E+00  0.88000000000E+00 0.  1.
        -11    1    3    3    0    0  0.50919335470E-01  0.12336964417E-01 -0.27777403540E-01  0.59302821890E-01  0.51100000000E-03 0.  1.
         11    1    3    3    0    0  0.54113591494E-01  0.39678598825E-01  0.11905556753E-01  0.68151855380E-01  0.51100000000E-03 0. -1.
</event>
<event>
 8    1  0.2190295E+004  0.1043930E+01  0.7957747E-01            NaN
         13   -1    0    0    0    0  0.00000000000E+00  0.00000000000E+00  0.74505805969E-08  0.10566000000E+00  0.10566000000E+00 0. -1.
     999900   -1    0    0    0    0 -0.00000000000E+00 -0.00000000000E+00 -0.74505805969E-08  0.93827000000E+00  0.93827000000E+00 0.  1.
     999902    2    1    2    0    0 -0.78230630086E-02  0.10267983949E-01  0.52397003202E-02  0.10299985152E+01  0.10299042941E+01 0.  0.
     999903    2    3    3    0    0  0.40820222069E-01  0.57184857525E-01  0.11363876293E+00  0.14077541666E+00  0.44357085527E-01 0.  0.
         14    1    1    2    0    0  0.78230630086E-02 -0.10267983949E-01 -0.52397003202E-02  0.13931484797E-01  0.00000000000E+00 0.  1.
     999901    1    3    3    0    0 -0.48643285077E-01 -0.46916873576E-01 -0.10839906261E+00  0.88922309854E+00  0.88000000000E+00 0.  1.
        -11    1    4    4    0    0  0.39230593535E-01  0.64538393644E-01  0.10238728336E+00  0.12723073779E+00  0.51100000000E-03 0. -1.
         11    1    4    4    0    0  0.15896285342E-02 -0.73535361186E-02  0.11251479564E-01  0.13544678871E-01  0.51100000000E-03 0.  1.
</event>
<event>
 8    1  0.2190295E+004  0.1043930E+01  0.7957747E-01            NaN
         13   -1    0    0    0    0  0.00000000000E+00  0.00000000000E+00  0.74505805969E-08  0.10566000000E+00  0.10566000000E+00 0.  1.
     999900   -1    0    0    0    0 -0.00000000000E+00 -0.00000000000E+00 -0.74505805969E-08  0.93827000000E+00  0.93827000000E+00 0. -1.
     999902    2    1    2    0    0 -0.94190399200E-02 -0.18391418373E-02  0.14325546279E-01  0.10266869715E+01  0.10265421645E+01 0.  0.
     999903    2    3    3    0    0  0.11214964452E+00  0.59122997905E-02 -0.60490374560E-01  0.13515096443E+00  0.44656463328E-01 0.  0.
         14    1    1    2    0    0  0.94190399200E-02  0.18391418373E-02 -0.14325546279E-01  0.17243028501E-01  0.00000000000E+00 0. -1.
     999901    1    3    3    0    0 -0.12156868444E+00 -0.77514416278E-02  0.74815920839E-01  0.89153600707E+00  0.88000000000E+00 0.  1.
        -11    1    4    4    0    0 -0.76522131938E-03  0.23830143333E-02  0.42393520302E-02  0.49494997339E-02  0.51100000000E-03 0. -1.
         11    1    4    4    0    0  0.11291486584E+00  0.35292854572E-02 -0.64729726590E-01  0.13020146470E+00  0.51100000000E-03 0.  1.
</event>
<event>
 8    1  0.2190295E+004  0.1043930E+01  0.7957747E-01            NaN
         13   -1    0    0    0    0  0.00000000000E+00  0.00000000000E+00  0.74505805969E-08  0.10566000000E+00  0.10566000000E+00 0. -1.
     999900   -1    0    0    0    0 -0.00000000000E+00 -0.00000000000E+00 -0.74505805969E-08  0.93827000000E+00  0.93827000000E+00 0. -1.
     999902    2    1    2    0    0  0.13133866482E-05 -0.85586547738E-03  0.13792160874E-01  0.10301113094E+01  0.10300186181E+01 0.  0.
     999903    2    3    3    0    0 -0.67057621424E-01 -0.49810168483E-01  0.10514342579E+00  0.14149526292E+00  0.44586903525E-01 0.  0.
         14    1    1    2    0    0 -0.13133866482E-05  0.85586547738E-03 -0.13792160874E-01  0.13818690568E-01  0.00000000000E+00 0.  1.
     999901    1    3    3    0    0  0.67058934810E-01  0.48954303006E-01 -0.91351264917E-01  0.88861604651E+00  0.88000000000E+00 0. -1.
        -11    1    4    4    0    0 -0.59250198344E-01 -0.39585969444E-01  0.55820467929E-01  0.90519725704E-01  0.51100000000E-03 0.  1.
         11    1    4    4    0    0 -0.78074230797E-02 -0.10224199039E-01  0.49322957861E-01  0.50975537214E-01  0.51100000000E-03 0. -1.
</event>
<event>
 8    1  0.2190295E+004  0.1043930E+01  0.7957747E-01            NaN
         13   -1    0    0    0    0  0.00000000000E+00  0.00000000000E+00  0.74505805969E-08  0.10566000000E+00  0.10566000000E+00 0.  1.
     999900   -1    0    0    0    0 -0.00000000000E+00 -0.00000000000E+00 -0.74505805969E-08  0.93827000000E+00  0.93827000000E+00 0. -1.
     999902    2    1    2    0    0 -0.13842385290E-01  0.42814500984E-02  0.90368216240E-02  0.10268535077E+01  0.10267115075E+01 0.  0.
     999903    2    3    3    0    0 -0.26693244475E-01  0.96679908546E-01  0.85140514391E-01  0.13865623692E+00  0.43784824184E-01 0.  0.
         14    1    1    2    0    0  0.13842385290E-01 -0.42814500984E-02 -0.90368216240E-02  0.17076492337E-01  0.00000000000E+00 0. -1.
     999901    1    3    3    0    0  0.12850859185E-01 -0.92398458447E-01 -0.76103692767E-01  0.88819727074E+00  0.88000000000E+00 0. -1.
        -11    1    4    4    0    0 -0.20036222700E-01  0.69310336033E-01  0.83618289565E-01  0.11044298245E+00  0.51100000000E-03 0. -1.
         11    1    4    4    0    0 -0.66570217755E-02  0.27369572513E-01  0.15222248253E-02  0.28213254471E-01  0.51100000000E-03 0.  1.
</event>
<event>
 8    1  0.2190295E+004  0.1043930E+01  0.7957747E-01            NaN
         13   -1    0    0    0    0  0.00000000000E+00  0.00000000000E+00  0.74505805969E-08  0.10566000000E+00  0.10566000000E+00 0. -1.
     999900   -1    0    0    0    0 -0.00000000000E+00 -0.00000000000E+00 -0.74505805969E-08  0.93827000000E+00  0.93827000000E+00 0.  1.
     999902    2    1    2    0    0 -0.72735950903E-02 -0.11343266724E-01  0.14132854300E-02  0.10303811159E+01  0.10302920322E+01 0.  0.
     999903    2    3    3    0    0  0.12446764230E+00  0.25221264450E-01  0.35048303723E-01  0.13918863777E+00  0.44908653171E-01 0.  0.
         14    1    1    2    0    0  0.72735950903E-02  0.11343266724E-01 -0.14132854300E-02  0.13548884132E-01  0.00000000000E+00 0.  1.
     999901    1    3    3    0    0 -0.13174123739E+00 -0.36564531174E-01 -0.33635018293E-01  0.89119247810E+00  0.88000000000E+00 0.  1.
        -11    1    4    4    0    0  0.75571773711E-01  0.17903435682E-01 -0.15390798196E-02  0.77680472956E-01  0.51100000000E-03 0. -1.
         11    1    4    4    0    0  0.48895868588E-01  0.73178287675E-02  0.36587383543E-01  0.61508164811E-01  0.51100000000E-03 0.  1.
</event>
<event>
 8    1  0.2190295E+004  0.1043930E+01  0.7957747E-01            NaN
         13   -1    0    0    0    0  0.00000000000E+00  0.00000000000E+00  0.74505805969E-08  0.10566000000E+00  0.10566000000E+00 0. -1.
     999900   -1    0    0    0    0 -0.00000000000E+00 -0.00000000000E+00 -0.74505805969E-08  0.93827000000E+00  0.93827000000E+00 0.  1.
     999902    2    1    2    0    0  0.27075947705E-02  0.13909480707E-01  0.13853864606E-02  0.10296918815E+01  0.10295934376E+01 0.  0.
     999903    2    3    3    0    0 -0.82369349587E-02 -0.94457855785E-01  0.89624961549E-01  0.13859733827E+00  0.46759542619E-01 0.  0.
         14    1    1    2    0    0 -0.27075947705E-02 -0.13909480707E-01 -0.13853864606E-02  0.14238118507E-01  0.00000000000E+00 0. -1.
     999901    1    3    3    0    0  0.10944529729E-01  0.10836733649E+00 -0.88239575089E-01  0.89109454322E+00  0.88000000000E+00 0.  1.
        -11    1    4    4    0    0 -0.12172141538E-01 -0.35094138522E-01  0.86977451717E-02  0.38153263036E-01  0.51100000000E-03 0.  1.
         11    1    4    4    0    0  0.39352065788E-02 -0.59363717263E-01  0.80927216378E-01  0.10044407523E+00  0.51100000000E-03 0. -1.
</event>
<event>
 8    1  0.2190295E+004  0.1043930E+01  0.7957747E-01            NaN
         13   -1    0    0    0    0  0.00000000000E+00  0.00000000000E+00  0.74505805969E-08  0.10566000000E+00  0.10566000000E+00 0.  1.
     999900   -1    0    0    0    0 -0.00000000000E+00 -0.00000000000E+00 -0.74505805969E-08  0.93827000000E+00  0.93827000000E+00 0.  1.
     999902    2    1    2    0    0  0.10608604892E-01  0.81015161872E-02  0.25009019999E-02  0.10303494414E+01  0.10302599379E+01 0.  0.
     999903    2    3    3    0    0 -0.10356841120E+00 -0.28587265732E-01  0.76379309177E-01  0.13914773760E+00  0.44549370915E-01 0.  0.
         14    1    1    2    0    0 -0.10608604892E-01 -0.81015161872E-02 -0.25009019999E-02  0.13580558645E-01  0.00000000000E+00 0.  1.
     999901    1    3    3    0    0  0.11417701609E+00  0.36688781920E-01 -0.73878407177E-01  0.89120170375E+00  0.88000000000E+00 0. -1.
        -11    1    4    4    0    0 -0.45222781279E-01 -0.13716013605E-01  0.78227947395E-02  0.47902883153E-01  0.51100000000E-03 0. -1.
         11    1    4    4    0    0 -0.58345629923E-01 -0.14871252128E-01  0.68556514438E-01  0.91244854451E-01  0.51100000000E-03 0.  1.
</event>
<event>
 8    1  0.2190295E+004  0.1043930E+01  0.7957747E-01            NaN
         13   -1    0    0    0    0  0.00000000000E+00  0.00000000000E+00  0.74505805969E-08  0.10566000000E+00  0.10566000000E+00 0.  1.
     999900   -1    0    0    0    0 -0.00000000000E+00 -0.00000000000E+00 -0.74505805969E-08  0.93827000000E+00  0.93827000000E+00 0. -1.
     999902    2    1    2    0    0  0.12716916196E-01  0.39703170521E-02 -0.49584731835E-02  0.10297148732E+01  0.10296167492E+01 0.  0.
     999903    2    3    3    0    0 -0.26757051428E-01  0.42894900034E-01  0.12164226731E+00  0.13892810586E+00  0.44139156693E-01 0.  0.
         14    1    1    2    0    0 -0.12716916196E-01 -0.39703170521E-02  0.49584731835E-02  0.14215126849E-01  0.00000000000E+00 0.  1.
     999901    1    3    3    0    0  0.39473967624E-01 -0.38924582982E-01 -0.12660074049E+00  0.89078676729E+00  0.88000000000E+00 0. -1.
        -11    1    4    4    0    0  0.49909104255E-02  0.32699787987E-01  0.70460438743E-01  0.77840348600E-01  0.51100000000E-03 0.  1.
         11    1    4    4    0    0 -0.31747961854E-01  0.10195112047E-01  0.51181828563E-01  0.61087757264E-01  0.51100000000E-03 0. -1.
</event>
<event>
 8    1  0.2190295E+004  0.1043930E+01  0.7957747E-01            NaN
         13   -1    0    0    0    0  0.00000000000E+00  0.00000000000E+00  0.74505805969E-08  0.10566000000E+00  0.10566000000E+00 0.  1.
     999900   -1    0    0    0    0 -0.00000000000E+00 -0.00000000000E+00 -0.74505805969E-08  0.93827000000E+00  0.93827000000E+00 0. -1.
     999902    2    1    2    0    0 -0.31056975542E-02 -0.89119478926E-02 -0.10097880647E-01  0.10301084456E+01  0.10300157156E+01 0.  0.
     999903    2    3    3    0    0 -0.49119979957E-01 -0.38712743622E-01  0.11605672948E+00  0.13942309865E+00  0.45367246229E-01 0.  0.
         14    1    1    2    0    0  0.31056975542E-02  0.89119478926E-02  0.10097880647E-01  0.13821554403E-01  0.00000000000E+00 0. -1.
     999901    1    3    3    0    0  0.46014282403E-01  0.29800795730E-01 -0.12615461012E+00  0.89068534695E+00  0.88000000000E+00 0. -1.
        -11    1    4    4    0    0 -0.82313445051E-02 -0.21128086229E-01  0.76779186193E-01  0.80059075772E-01  0.51100000000E-03 0.  1.
         11    1    4    4    0    0 -0.40888635452E-01 -0.17584657393E-01  0.39277543285E-01  0.59364022878E-01  0.51100000000E-03 0. -1.
</event>
<event>
 8    1  0.2190295E+004  0.1043930E+01  0.7957747E-01            NaN
         13   -1    0    0    0    0  0.00000000000E+00  0.00000000000E+00  0.74505805969E-08  0.10566000000E+00  0.10566000000E+00 0.  1.
     999900   -1    0    0    0    0 -0.00000000000E+00 -0.00000000000E+00 -0.74505805969E-08  0.93827000000E+00  0.93827000000E+00 0.  1.
     999902    2    1    2    0    0  0.28783246571E-02  0.81321168537E-02 -0.10874557372E-01  0.10300493633E+01  0.10299558334E+01 0.  0.
     999903    2    3    3    0    0  0.87258248110E-01  0.83658781657E-01 -0.54725953370E-01  0.14170979223E+00  0.49738733711E-01 0.  0.
         14    1    1    2    0    0 -0.28783246571E-02 -0.81321168537E-02  0.10874557372E-01  0.13880636707E-01  0.00000000000E+00 0.  1.
     999901    1    3    3    0    0 -0.84379923453E-01 -0.75526664803E-01  0.43851395999E-01  0.88833957106E+00  0.88000000000E+00 0. -1.
        -11    1    4    4    0    0  0.44107398095E-01  0.61139677715E-01 -0.54510430169E-01  0.93033170837E-01  0.51100000000E-03 0. -1.
         11    1    4    4    0    0  0.43150850016E-01  0.22519103942E-01 -0.21552320166E-03  0.48676621398E-01  0.51100000000E-03 0.  1.
</event>
<event>
 8    1  0.2190295E+004  0.1043930E+01  0.7957747E-01            NaN
         13   -1    0    0    0    0  0.00000000000E+00  0.00000000000E+00  0.74505805969E-08  0.10566000000E+00  0.10566000000E+00 0. -1.
     999900   -1    0    0    0    0 -0.00000000000E+00 -0.00000000000E+00 -0.74505805969E-08  0.93827000000E+00  0.93827000000E+00 0. -1.
     999902    2    1    2    0    0 -0.12148008252E-01 -0.11876733050E-02 -0.31953188354E-02  0.10313127604E+01  0.10312355769E+01 0.  0.
     999903    2    3    3    0    0 -0.17424554544E-01 -0.77196365889E-01  0.10783509907E+00  0.14106958184E+00  0.44825487417E-01 0.  0.
         14    1    1    2    0    0  0.12148008252E-01  0.11876733050E-02  0.31953188354E-02  0.12617239588E-01  0.00000000000E+00 0.  1.
     999901    1    3    3    0    0  0.52765462920E-02  0.76008692584E-01 -0.11103041791E+00  0.89024317857E+00  0.88000000000E+00 0. -1.
        -11    1    4    4    0    0  0.13081819491E-01 -0.40973312672E-01  0.59282644892E-01  0.73243699107E-01  0.51100000000E-03 0.  1.
         11    1    4    4    0    0 -0.30506374035E-01 -0.36223053217E-01  0.48552454178E-01  0.67825882735E-01  0.51100000000E-03 0. -1.
</event>
<event>
 8    1  0.2190295E+004  0.1043930E+01  0.7957747E-01            NaN
         13   -1    0    0    0    0  0.00000000000E+00  0.00000000000E+00  0.74505805969E-08  0.10566000000E+00  0.10566000000E+00 0. -1.
     999900   -1    0    0    0    0 -0.00000000000E+00 -0.00000000000E+00 -0.74505805969E-08  0.93827000000E+00  0.93827000000E+00 0.  1.
     999902    2    1    2    0    0  0.32373247267E-02  0.10083553427E-01  0.73195854090E-02  0.10310562029E+01  0.10309758285E+01 0.  0.
     999903    2    3    3    0    0 -0.12676319352E+00 -0.61039513945E-02  0.40898394163E-01  0.14072496878E+00  0.44996363623E-01 0.  0.
         14    1    1    2    0    0 -0.32373247267E-02 -0.10083553427E-01 -0.73195854090E-02  0.12873797096E-01  0.00000000000E+00 0.  1.
     999901    1    3    3    0    0  0.13000051825E+00  0.16187504821E-01 -0.33578808754E-01  0.89033123412E+00  0.88000000000E+00 0.  1.
        -11    1    4    4    0    0 -0.10879634282E+00 -0.21203757043E-01  0.37438923759E-01  0.11699648566E+00  0.51100000000E-03 0.  1.
         11    1    4    4    0    0 -0.17966850700E-01  0.15099805649E-01  0.34594704033E-02  0.23728483120E-01  0.51100000000E-03 0. -1.
</event>
<event>
 8    1  0.2190295E+004  0.1043930E+01  0.7957747E-01            NaN
         13   -1    0    0    0    0  0.00000000000E+00  0.00000000000E+00  0.74505805969E-08  0.10566000000E+00  0.10566000000E+00 0.  1.
     999900   -1    0    0    0    0 -0.00000000000E+00 -0.00000000000E+00 -0.74505805969E-08  0.93827000000E+00  0.93827000000E+00 0. -1.
     999902    2    1    2    0    0 -0.69721042491E-02  0.70959456678E-02  0.90365734945E-02  0.10304904188E+01  0.10304027760E+01 0.  0.
     999903    2    3    3    0    0 -0.81842567317E-01 -0.63184792063E-01 -0.82615511977E-01  0.13979121417E+00  0.45008187780E-01 0.  0.
         14    1    1    2    0    0  0.69721042491E-02 -0.70959456678E-02 -0.90365734945E-02  0.13439581210E-01  0.00000000000E+00 0. -1.
     999901    1    3    3    0    0  0.74870463068E-01  0.70280737731E-01  0.91652085472E-01  0.89069920462E+00  0.88000000000E+00 0.  1.
        -11    1    4    4    0    0 -0.74871619697E-01 -0.67950901960E-01 -0.64866570295E-01  0.12012917038E+00  0.51100000000E-03 0.  1.
         11    1    4    4    0    0 -0.69709476205E-02  0.47661098967E-02 -0.17748941682E-01  0.19662043792E-01  0.51100000000E-03 0. -1.
</event>
<event>
 8    1  0.2190295E+004  0.1043930E+01  0.7957747E-01            NaN
         13   -1    0    0    0    0  0.00000000000E+00  0.00000000000E+00  0.74505805969E-08  0.10566000000E+00  0.10566000000E+00 0.  1.
     999900   -1    0    0    0    0 -0.00000000000E+00 -0.00000000000E+00 -0.74505805969E-08  0.93827000000E+00  0.93827000000E+00 0. -1.
     999902    2    1    2    0    0 -0.12720366186E-01 -0.88937935970E-02 -0.95826440070E-03  0.10283792588E+01  0.10282616760E+01 0.  0.
     999903    2    3    3    0    0  0.63256486990E-01  0.10784085497E+00 -0.34118311865E-01  0.13680814605E+00  0.43833508555E-01 0.  0.
         14    1    1    2    0    0  0.12720366186E-01  0.88937935970E-02  0.95826440070E-03  0.15550741175E-01  0.00000000000E+00 0.  1.
     999901    1    3    3    0    0 -0.75976853176E-01 -0.11673464857E+00  0.33160047464E-01  0.89157111278E+00  0.88000000000E+00 0.  1.
        -11    1    4    4    0    0  0.54844151237E-01  0.51475943936E-01 -0.15039006308E-01  0.76707799869E-01  0.51100000000E-03 0. -1.
         11    1    4    4    0    0  0.84123357530E-02  0.56364911036E-01 -0.19079305557E-01  0.60100346176E-01  0.51100000000E-03 0.  1.
</event>
<event>
 8    1  0.2190295E+004  0.1043930E+01  0.7957747E-01            NaN
         13   -1    0    0    0    0  0.00000000000E+00  0.00000000000E+00  0.74505805969E-08  0.10566000000E+00  0.10566000000E+00 0.  1.
     999900   -1    0    0    0    0 -0.00000000000E+00 -0.00000000000E+00 -0.74505805969E-08  0.93827000000E+00  0.93827000000E+00 0. -1.
     999902    2    1    2    0    0 -0.10924800365E-01  0.57118479432E-02 -0.82715830443E-02  0.10290842748E+01  0.10289771859E+01 0.  0.
     999903    2    3    3    0    0 -0.57224786721E-02 -0.81944966390E-01 -0.10340007114E+00  0.13961240315E+00  0.45302584060E-01 0.  0.
         14    1    1    2    0    0  0.10924800365E-01 -0.57118479432E-02  0.82715830443E-02  0.14845725176E-01  0.00000000000E+00 0.  1.
     999901    1    3    3    0    0 -0.52023216926E-02  0.87656814333E-01  0.95128488098E-01  0.88947187167E+00  0.88000000000E+00 0.  1.
        -11    1    4    4    0    0 -0.18253092394E-01 -0.62791301805E-01 -0.52707138228E-01  0.83989442822E-01  0.51100000000E-03 0. -1.
         11    1    4    4    0    0  0.12530613722E-01 -0.19153664585E-01 -0.50692932915E-01  0.55622960329E-01  0.51100000000E-03 0.  1.
</event>
<event>
 8    1  0.2190295E+004  0.1043930E+01  0.7957747E-01            NaN
         13   -1    0    0    0    0  0.00000000000E+00  0.00000000000E+00  0.74505805969E-08  0.10566000000E+00  0.10566000000E+00 0.  1.
     999900   -1    0    0    0    0 -0.00000000000E+00 -0.00000000000E+00 -0.74505805969E-08  0.93827000000E+00  0.93827000000E+00 0. -1.
     999902    2    1    2    0    0  0.11161042506E-01  0.62246301777E-02  0.54463510024E-02  0.10300383612E+01  0.10299446819E+01 0.  0.
     999903    2    3    3    0    0  0.58167033118E-01 -0.89795886628E-02  0.12031176933E+00  0.14119934550E+00  0.44702310623E-01 0.  0.
         14    1    1    2    0    0 -0.11161042506E-01 -0.62246301777E-02 -0.54463510024E-02  0.13891638849E-01  0.00000000000E+00 0. -1.
     999901    1    3    3    0    0 -0.47005990613E-01  0.15204218840E-01 -0.11486541833E+00  0.88883901566E+00  0.88000000000E+00 0. -1.
        -11    1    4    4    0    0 -0.84302939266E-03  0.11395648908E-01  0.20325280504E-01  0.23322728425E-01  0.51100000000E-03 0.  1.
         11    1    4    4    0    0  0.59010062511E-01 -0.20375237571E-01  0.99986488825E-01  0.11787661707E+00  0.51100000000E-03 0. -1.
</event>
<event>
 8    1  0.2190295E+004  0.1043930E+01  0.7957747E-01            NaN
         13   -1    0    0    0    0  0.00000000000E+00  0.00000000000E+00  0.74505805969E-08  0.10566000000E+00  0.10566000000E+00 0.  1.
     999900   -1    0    0    0    0 -0.00000000000E+00 -0.00000000000E+00 -0.74505805969E-08  0.93827000000E+00  0.93827000000E+00 0.  1.
     999902    2    1    2    0    0 -0.11855576817E-01  0.83166702009E-02  0.35927256670E-02  0.10290092298E+01  0.10289010476E+01 0.  0.
     999903    2    3    3    0    0 -0.64648945025E-01 -0.34565150572E-01 -0.10947608585E+00  0.13917185906E+00  0.44828085537E-01 0.  0.
         14    1    1    2    0    0  0.11855576817E-01 -0.83166702009E-02 -0.35927256670E-02  0.14920770175E-01  0.00000000000E+00 0. -1.
     999901    1    3    3    0    0  0.52793368208E-01  0.42881820773E-01  0.11306881152E+00  0.88983737077E+00  0.88000000000E+00 0. -1.
        -11    1    4    4    0    0 -0.50378745767E-01 -0.29009219362E-02 -0.73566285805E-01  0.89211506552E-01  0.51100000000E-03 0.  1.
         11    1    4    4    0    0 -0.14270199258E-01 -0.31664228636E-01 -0.35909800046E-01  0.49960352504E-01  0.51100000000E-03 0. -1.
</event>
<event>
 8    1  0.2190295E+004  0.1043930E+01  0.7957747E-01            NaN
         13   -1    0    0    0    0  0.00000000000E+00  0.00000000000E+00  0.74505805969E-08  0.10566000000E+00  0.10566000000E+00 0.  1.
     999900   -1    0    0    0    0 -0.00000000000E+00 -0.00000000000E+00 -0.74505805969E-08  0.93827000000E+00  0.93827000000E+00 0.  1.
     999902    2    1    2    0    0  0.56389087816E-02  0.55540030274E-02 -0.10832137446E-01  0.10305143583E+01  0.10304270295E+01 0.  0.
     999903    2    3    3    0    0 -0.11094074449E+00 -0.38883990388E-01  0.59031062360E-01  0.13897276219E+00  0.44821298631E-01 0.  0.
         14    1    1    2    0    0 -0.56389087816E-02 -0.55540030274E-02  0.10832137446E-01  0.13415641748E-01  0.00000000000E+00 0. -1.
     999901    1    3    3    0    0  0.11657965327E+00  0.44437993415E-01 -0.69863199806E-01  0.89154159606E+00  0.88000000000E+00 0.  1.
        -11    1    4    4    0    0 -0.10226825383E+00 -0.22424608504E-01  0.59365094154E-01  0.12035835797E+00  0.51100000000E-03 0.  1.
         11    1    4    4    0    0 -0.86724906586E-02 -0.16459381884E-01 -0.33403179391E-03  0.18614404220E-01  0.51100000000E-03 0. -1.
</event>
<event>
 8    1  0.2190295E+004  0.1043930E+01  0.7957747E-01            NaN
         13   -1    0    0    0    0  0.00000000000E+00  0.00000000000E+00  0.74505805969E-08  0.10566000000E+00  0.10566000000E+00 0.  1.
     999900   -1    0    0    0    0 -0.00000000000E+00 -0.00000000000E+00 -0.74505805969E-08  0.93827000000E+00  0.93827000000E+00 0. -1.
     999902    2    1    2    0    0  0.86164974545E-02 -0.10431910154E-01 -0.52700901984E-02  0.10294095789E+01  0.10293071643E+01 0.  0.
     999903    2    3    3    0    0  0.39435687378E-01  0.29013980192E-02 -0.12659061273E+00  0.14045161097E+00  0.46237217095E-01 0.  0.
         14    1    1    2    0    0 -0.86164974545E-02  0.10431910154E-01  0.52700901984E-02  0.14520421087E-01  0.00000000000E+00 0.  1.
     999901    1    3    3    0    0 -0.30819189923E-01 -0.13333308173E-01  0.12132052253E+00  0.88895796794E+00  0.88000000000E+00 0.  1.
        -11    1    4    4    0    0  0.29852759658E-01  0.17997991544E-01 -0.45006986751E-01  0.56929824663E-01  0.51100000000E-03 0. -1.
         11    1    4    4    0    0  0.95829277193E-02 -0.15096593525E-01 -0.81583625979E-01  0.83521786311E-01  0.51100000000E-03 0.  1.
</event>
<event>
 8    1  0.2190295E+004  0.1043930E+01  0.7957747E-01            NaN
         13   -1    0    0    0    0  0.00000000000E+00  0.00000000000E+00  0.74505805969E-08  0.10566000000E+00  0.10566000000E+00 0. -1.
     999900   -1    0    0    0    0 -0.00000000000E+00 -0.00000000000E+00 -0.74505805969E-08  0.93827000000E+00  0.93827000000E+00 0.  1.
     999902    2    1    2    0    0  0.10278405269E-01  0.76313305263E-02  0.11831843892E-01  0.10264979792E+01  0.10263499529E+01 0.  0.
     999903    2    3    3    0    0 -0.15760578178E-01  0.12265490962E+00 -0.38625559082E-01  0.13719802869E+00  0.45152437162E-01 0.  0.
         14    1    1    2    0    0 -0.10278405269E-01 -0.76313305263E-02 -0.11831843892E-01  0.17432020834E-01  0.00000000000E+00 0.  1.
     999901    1    3    3    0    0  0.26038983448E-01 -0.11502357910E+00  0.50457402974E-01  0.88929995048E+00  0.88000000000E+00 0. -1.
        -11    1    4    4    0    0 -0.52449445156E-02  0.11279790268E+00 -0.21745181991E-01  0.11499561015E+00  0.51100000000E-03 0.  1.
         11    1    4    4    0    0 -0.10515633662E-01  0.98570069397E-02 -0.16880377091E-01  0.22202418536E-01  0.51100000000E-03 0. -1.
</event>
<event>
 8    1  0.2190295E+004  0.1043930E+01  0.7957747E-01            NaN
         13   -1    0    0    0    0  0.00000000000E+00  0.00000000000E+00  0.74505805969E-08  0.10566000000E+00  0.10566000000E+00 0. -1.
     999900   -1    0    0    0    0 -0.00000000000E+00 -0.00000000000E+00 -0.74505805969E-08  0.93827000000E+00  0.93827000000E+00 0. -1.
     999902    2    1    2    0    0 -0.10619923144E-01  0.12225000035E-01  0.19902889302E-03  0.10277351550E+01  0.10276075495E+01 0.  0.
     999903    2    3    3    0    0 -0.10888466673E+00  0.74403356660E-01  0.13682218157E-01  0.13998299120E+00  0.44903280517E-01 0.  0.
         14    1    1    2    0    0  0.10619923144E-01 -0.12225000035E-01 -0.19902889302E-03  0.16194845042E-01  0.00000000000E+00 0.  1.
     999901    1    3    3    0    0  0.98264743583E-01 -0.62178356625E-01 -0.13483189264E-01  0.88775216376E+00  0.88000000000E+00 0.  1.
        -11    1    4    4    0    0 -0.11614415577E-01  0.25322698553E-01 -0.77950827320E-02  0.28933685334E-01  0.51100000000E-03 0.  1.
         11    1    4    4    0    0 -0.97270251150E-01  0.49080658107E-01  0.21477300889E-01  0.11104930587E+00  0.51100000000E-03 0. -1.
</event>
<event>
 8    1  0.2190295E+004  0.1043930E+01  0.7957747E-01            NaN
         13   -1    0    0    0    0  0.00000000000E+00  0.00000000000E+00  0.74505805969E-08  0.10566000000E+00  0.10566000000E+00 0. -1.
     999900   -1    0    0    0    0 -0.00000000000E+00 -0.00000000000E+00 -0.74505805969E-08  0.93827000000E+00  0.93827000000E+00 0. -1.
     999902    2    1    2    0    0  0.71719274321E-02  0.11702905149E-01  0.84815093543E-03  0.10301781313E+01  0.10300863403E+01 0.  0.
     999903    2    3    3    0    0  0.11729017537E+00  0.57283921289E-01  0.30219035823E-01  0.14165896640E+00  0.45996084171E-01 0.  0.
         14    1    1    2    0    0 -0.71719274321E-02 -0.11702905149E-01 -0.84815093543E-03  0.13751868674E-01  0.00000000000E+00 0.  1.
     999901    1    3    3    0    0 -0.11011824794E+00 -0.45581016140E-01 -0.29370884887E-01  0.88851916493E+00  0.88000000000E+00 0. -1.
        -11    1    4    4    0    0  0.28856697598E-01  0.19049851105E-01 -0.11813149831E-01  0.36543364012E-01  0.51100000000E-03 0. -1.
         11    1    4    4    0    0  0.88433477772E-01  0.38234070184E-01  0.42032185653E-01  0.10511560239E+00  0.51100000000E-03 0.  1.
</event>
<event>
 8    1  0.2190295E+004  0.1043930E+01  0.7957747E-01            NaN
         13   -1    0    0    0    0  0.00000000000E+00  0.00000000000E+00  0.74505805969E-08  0.10566000000E+00  0.10566000000E+00 0. -1.
     999900   -1    0    0    0    0 -0.00000000000E+00 -0.00000000000E+00 -0.74505805969E-08  0.93827000000E+00  0.93827000000E+00 0.  1.
     999902    2    1    2    0    0 -0.19445870069E-01  0.12311286983E-01 -0.15261348481E-01  0.10163144535E+01  0.10159391960E+01 0.  0.
     999903    2    3    3    0    0 -0.36809033600E-01 -0.76736436243E-01  0.82039837604E-01  0.12631529775E+00  0.44515546606E-01 0.  0.
         14    1    1    2    0    0  0.19445870069E-01 -0.12311286983E-01  0.15261348481E-01  0.27615546480E-01  0.00000000000E+00 0. -1.
     999901    1    3    3    0    0  0.17363163530E-01  0.89047723225E-01 -0.97301186085E-01  0.88999915577E+00  0.88000000000E+00 0.  1.
        -11    1    4    4    0    0 -0.16081586134E-01 -0.22521662331E-01  0.56470173364E-01  0.62888665811E-01  0.51100000000E-03 0. -1.
         11    1    4    4    0    0 -0.20727447465E-01 -0.54214773911E-01  0.25569664240E-01  0.63426631938E-01  0.51100000000E-03 0.  1.
</event>
<event>
 8    1  0.2190295E+004  0.1043930E+01  0.7957747E-01            NaN
         13   -1    0    0    0    0  0.00000000000E+00  0.00000000000E+00  0.74505805969E-08  0.10566000000E+00  0.10566000000E+00 0. -1.
     999900   -1    0    0    0    0 -0.00000000000E+00 -0.00000000000E+00 -0.74505805969E-08  0.93827000000E+00  0.93827000000E+00 0.  1.
     999902    2    1    2    0    0  0.84856179212E-03 -0.27167766340E-02  0.12915757625E-01  0.10307043534E+01  0.10306194964E+01 0.  0.
     999903    2    3    3    0    0  0.10999409553E+00  0.57055959953E-01 -0.45695521020E-01  0.14001876941E+00  0.46509047833E-01 0.  0.
         14    1    1    2    0    0 -0.84856179212E-03  0.27167766340E-02 -0.12915757625E-01  0.13225646578E-01  0.00000000000E+00 0.  1.
     999901    1    3    3    0    0 -0.10914553373E+00 -0.59772736587E-01  0.58611278645E-01  0.89068558401E+00  0.88000000000E+00 0. -1.
        -11    1    4    4    0    0  0.81834402513E-01  0.17354065203E-01 -0.30042895064E-01  0.88886836362E-01  0.51100000000E-03 0. -1.
         11    1    4    4    0    0  0.28159693014E-01  0.39701894750E-01 -0.15652625957E-01  0.51131933053E-01  0.51100000000E-03 0.  1.
</event>
<event>
 8    1  0.2190295E+004  0.1043930E+01  0.7957747E-01            NaN
         13   -1    0    0    0    0  0.00000000000E+00  0.00000000000E+00  0.74505805969E-08  0.10566000000E+00  0.10566000000E+00 0.  1.
     999900   -1    0    0    0    0 -0.00000000000E+00 -0.00000000000E+00 -0.74505805969E-08  0.93827000000E+00  0.93827000000E+00 0.  1.
     999902    2    1    2    0    0  0.84230964184E-02 -0.85791930123E-02 -0.61724993602E-02  0.10304151617E+01  0.10303265281E+01 0.  0.
     999903    2    3    3    0    0  0.28809166646E-01  0.49502817661E-01  0.11890723959E+00  0.13944150725E+00  0.44994502749E-01 0.  0.
         14    1    1    2    0    0 -0.84230964184E-02  0.85791930123E-02  0.61724993602E-02  0.13514838303E-01  0.00000000000E+00 0. -1.
     999901    1    3    3    0    0 -0.20386070227E-01 -0.58082010673E-01 -0.12507973895E+00  0.89097365445E+00  0.88000000000E+00 0.  1.
        -11    1    4    4    0    0  0.14285787852E-01  0.60128227269E-02  0.44391464182E-02  0.16130868347E-01  0.51100000000E-03 0.  1.
         11    1    4    4    0    0  0.14523378794E-01  0.43489994934E-01  0.11446809317E+00  0.12331063890E+00  0.51100000000E-03 0. -1.
</event>
<event>
 8    1  0.2190295E+004  0.1043930E+01  0.7957747E-01            NaN
         13   -1    0    0    0    0  0.00000000000E+00  0.00000000000E+00  0.74505805969E-08  0.10566000000E+00  0.10566000000E+00 0. -1.
     999900   -1    0    0    0    0 -0.00000000000E+00 -0.00000000000E+00 -0.74505805969E-08  0.93827000000E+00  0.93827000000E+00 0.  1.
     999902    2    1    2    0    0  0.11743389144E-01  0.69572819260E-02  0.21200547032E-02  0.10301167603E+01  0.10300241425E+01 0.  0.
     999903    2    3    3    0    0 -0.10692609272E+00  0.59845406526E-01 -0.48177371581E-01  0.13915692348E+00  0.45043625900E-01 0.  0.
         14    1    1    2    0    0 -0.11743389144E-01 -0.69572819260E-02 -0.21200547032E-02  0.13813239748E-01  0.00000000000E+00 0.  1.
     999901    1    3    3    0    0  0.11866948186E+00 -0.52888124600E-01  0.50297426285E-01  0.89095983677E+00  0.88000000000E+00 0. -1.
        -11    1    4    4    0    0 -0.10450343872E-01  0.12451330591E-01  0.77188347890E-02  0.18002412395E-01  0.51100000000E-03 0. -1.
         11    1    4    4    0    0 -0.96475748845E-01  0.47394075934E-01 -0.55896206370E-01  0.12115451109E+00  0.51100000000E-03 0.  1.
</event>
<event>
 8    1  0.2190295E+004  0.1043930E+01  0.7957747E-01            NaN
         13   -1    0    0    0    0  0.00000000000E+00  0.00000000000E+00  0.74505805969E-08  0.10566000000E+00  0.10566000000E+00 0. -1.
     999900   -1    0    0    0    0 -0.00000000000E+00 -0.00000000000E+00 -0.74505805969E-08  0.93827000000E+00  0.93827000000E+00 0. -1.
     999902    2    1    2    0    0  0.95011824334E-02  0.81633762997E-02 -0.38330041958E-02  0.10308301870E+01  0.10307469473E+01 0.  0.
     999903    2    3    3    0    0  0.13095596883E+00  0.31608669520E-01 -0.74916074309E-02  0.14217146041E+00  0.44811005498E-01 0.  0.
         14    1    1    2    0    0 -0.95011824334E-02 -0.81633762997E-02  0.38330041958E-02  0.13099813030E-01  0.00000000000E+00 0.  1.
     999901    1    3    3    0    0 -0.12145478639E+00 -0.23445293221E-01  0.36586032351E-02  0.88865872656E+00  0.88000000000E+00 0. -1.
        -11    1    4    4    0    0  0.77869821800E-01  0.40799661961E-01 -0.11372751593E-02  0.87919713825E-01  0.51100000000E-03 0.  1.
         11    1    4    4    0    0  0.53086147025E-01 -0.91909924405E-02 -0.63543322716E-02  0.54251746586E-01  0.51100000000E-03 0. -1.
</event>
<event>
 8    1  0.2190295E+004  0.1043930E+01  0.7957747E-01            NaN
         13   -1    0    0    0    0  0.00000000000E+00  0.00000000000E+00  0.74505805969E-08  0.10566000000E+00  0.10566000000E+00 0. -1.
     999900   -1    0    0    0    0 -0.00000000000E+00 -0.00000000000E+00 -0.74505805969E-08  0.93827000000E+00  0.93827000000E+00 0. -1.
     999902    2    1    2    0    0 -0.10481098172E-01  0.83930448826E-02  0.39039932812E-02  0.10299465174E+01  0.10298515869E+01 0.  0.
     999903    2    3    3    0    0 -0.98518694376E-01 -0.18950946742E-01 -0.86395636301E-01  0.14053528784E+00  0.47126315698E-01 0.  0.
         14    1    1    2    0    0  0.10481098172E-01 -0.83930448826E-02 -0.39039932812E-02  0.13983482572E-01  0.00000000000E+00 0.  1.
     999901    1    3    3    0    0  0.88037596204E-01  0.27343991624E-01  0.90299629582E-01  0.88941122959E+00  0.88000000000E+00 0.  1.
        -11    1    4    4    0    0 -0.83335483780E-01  0.36111376849E-02 -0.61189081456E-01  0.10345147646E+00  0.51100000000E-03 0. -1.
         11    1    4    4    0    0 -0.15183210596E-01 -0.22562084427E-01 -0.25206554845E-01  0.37083811372E-01  0.51100000000E-03 0.  1.
</event>
<event>
 7    1  0.2190295E+004  0.1043930E+01  0.7957747E-01            NaN
         13   -1    0    0    0    0  0.00000000000E+00  0.00000000000E+00  0.74505805969E-08  0.10566000000E+00  0.10566000000E+00 0. -1.
     999900   -1    0    0    0    0 -0.00000000000E+00 -0.00000000000E+00 -0.74505805969E-08  0.93827000000E+00  0.93827000000E+00 0. -1.
     999903    2    1    2    0    0 -0.83537799640E-01 -0.80573054011E-01 -0.52707126021E-02  0.12432526948E+00  0.44253940153E-01 0.  0.
         14    1    1    2    0    0  0.10412061787E-01 -0.15197380463E-01 -0.24789216081E-01  0.30884893354E-01  0.00000000000E+00 0.  1.
     999901    1    1    2    0    0  0.73125737853E-01  0.95770434474E-01  0.30059928683E-01  0.88871983716E+00  0.88000000000E+00 0. -1.
        -11    1    3    3    0    0 -0.63570906392E-02  0.27478520004E-02  0.72764128776E-02  0.10058359577E-01  0.51100000000E-03 0. -1.
         11    1    3    3    0    0 -0.77180709001E-01 -0.83320906012E-01 -0.12547125480E-01  0.11426690991E+00  0.51100000000E-03 0.  1.
</event>
<event>
 8    1  0.2190295E+004  0.1043930E+01  0.7957747E-01            NaN
         13   -1    0    0    0    0  0.00000000000E+00  0.00000000000E+00  0.74505805969E-08  0.10566000000E+00  0.10566000000E+00 0.  1.
     999900   -1    0    0    0    0 -0.00000000000E+00 -0.00000000000E+00 -0.74505805969E-08  0.93827000000E+00  0.93827000000E+00 0. -1.
     999902    2    1    2    0    0  0.94454189098E-02 -0.80032592546E-02 -0.80119152362E-02  0.10291835129E+01  0.10290778611E+01 0.  0.
     999903    2    3    3    0    0  0.58160200518E-01  0.70244009835E-01  0.93778929773E-01  0.13853367079E+00  0.45609872068E-01 0.  0.
         14    1    1    2    0    0 -0.94454189098E-02  0.80032592546E-02  0.80119152362E-02  0.14746487135E-01  0.00000000000E+00 0.  1.
     999901    1    3    3    0    0 -0.48714781609E-01 -0.78247269090E-01 -0.10179084501E+00  0.89064984208E+00  0.88000000000E+00 0. -1.
        -11    1    4    4    0    0  0.41570538629E-01  0.73919445337E-01  0.80903381480E-01  0.11720841410E+00  0.51100000000E-03 0.  1.
         11    1    4    4    0    0  0.16589661889E-01 -0.36754355017E-02  0.12875548293E-01  0.21325256682E-01  0.51100000000E-03 0. -1.
</event>
<event>
 8    1  0.2190295E+004  0.1043930E+01  0.7957747E-01            NaN
         13   -1    0    0    0    0  0.00000000000E+00  0.00000000000E+00  0.74505805969E-08  0.10566000000E+00  0.10566000000E+00 0. -1.
     999900   -1    0    0    0    0 -0.00000000000E+00 -0.00000000000E+00 -0.74505805969E-08  0.93827000000E+00  0.93827000000E+00 0.  1.
     999902    2    1    2    0    0 -0.25444517432E-02  0.77104507106E-02  0.11076883810E-01  0.10301960042E+01  0.10301044532E+01 0.  0.
     999903    2    3    3    0    0  0.59124351534E-01  0.11897972758E+00  0.13683122141E-01  0.14104433789E+00  0.45325631822E-01 0.  0.
         14    1    1    2    0    0  0.25444517432E-02 -0.77104507106E-02 -0.11076883810E-01  0.13733995769E-01  0.00000000000E+00 0.  1.
     999901    1    3    3    0    0 -0.61668803277E-01 -0.11126927687E+00 -0.26062383307E-02  0.88915166634E+00  0.88000000000E+00 0.  1.
        -11    1    4    4    0    0  0.96886087989E-02 -0.12950753575E-02 -0.22189181648E-02  0.10036487407E-01  0.51100000000E-03 0. -1.
         11    1    4    4    0    0  0.49435742735E-01  0.12027480294E+00  0.15902040306E-01  0.13100785049E+00  0.51100000000E-03 0.  1.
</event>
<event>
 8    1  0.2190295E+004  0.1043930E+01  0.7957747E-01            NaN
         13   -1    0    0    0    0  0.00000000000E+00  0.00000000000E+00  0.74505805969E-08  0.10566000000E+00  0.10566000000E+00 0. -1.
     999900   -1    0    0    0    0 -0.00000000000E+00 -0.00000000000E+00 -0.74505805969E-08  0.93827000000E+00  0.93827000000E+00 0. -1.
     999902    2    1    2    0    0 -0.18603766499E-01 -0.18346752092E-02 -0.11904624154E-01  0.10217672782E+01  0.10215268888E+01 0.  0.
     999903    2    3    3    0    0  0.11474246758E+00  0.99174082609E-02  0.40887386595E-01  0.13007993053E+00  0.44551330957E-01 0.  0.
         14    1    1    2    0    0  0.18603766499E-01  0.18346752092E-02  0.11904624154E-01  0.22162721794E-01  0.00000000000E+00 0.  1.
     999901    1    3    3    0    0 -0.13334623408E+00 -0.11752083470E-01 -0.52792010749E-01  0.89168734768E+00  0.88000000000E+00 0. -1.
        -11    1    4    4    0    0  0.47799375553E-01  0.11795549480E-01  0.39453457305E-01  0.63093198565E-01  0.51100000000E-03 0.  1.
         11    1    4    4    0    0  0.66943092030E-01 -0.18781412190E-02  0.14339292899E-02  0.66986731964E-01  0.51100000000E-03 0. -1.
</event>
<event>
 8    1  0.2190295E+004  0.1043930E+01  0.7957747E-01            NaN
         13   -1    0    0    0    0  0.00000000000E+00  0.00000000000E+00  0.74505805969E-08  0.10566000000E+00  0.10566000000E+00 0.  1.
     999900   -1    0    0    0    0 -0.00000000000E+00 -0.00000000000E+00 -0.74505805969E-08  0.93827000000E+00  0.93827000000E+00 0. -1.
     999902    2    1    2    0    0 -0.60386664804E-02  0.11643932910E-01  0.32874950231E-02  0.10304076374E+01  0.10303189045E+01 0.  0.
     999903    2    3    3    0    0 -0.76571789062E-01 -0.36714386625E-01 -0.10246917451E+00  0.13995947968E+00  0.43330579996E-01 0.  0.
         14    1    1    2    0    0  0.60386664804E-02 -0.11643932910E-01 -0.32874950231E-02  0.13522362590E-01  0.00000000000E+00 0. -1.
     999901    1    3    3    0    0  0.70533122581E-01  0.48358319535E-01  0.10575666953E+00  0.89044815773E+00  0.88000000000E+00 0.  1.
        -11    1    4    4    0    0 -0.34881697751E-01 -0.11021988312E-01 -0.75865905257E-01  0.84226562115E-01  0.51100000000E-03 0. -1.
         11    1    4    4    0    0 -0.41690091311E-01 -0.25692398313E-01 -0.26603269254E-01  0.55732917568E-01  0.51100000000E-03 0.  1.
</event>
<event>
 8    1  0.2190295E+004  0.1043930E+01  0.7957747E-01            NaN
         13   -1    0    0    0    0  0.00000000000E+00  0.00000000000E+00  0.74505805969E-08  0.10566000000E+00  0.10566000000E+00 0. -1.
     999900   -1    0    0    0    0 -0.00000000000E+00 -0.00000000000E+00 -0.74505805969E-08  0.93827000000E+00  0.93827000000E+00 0. -1.
     999902    2    1    2    0    0 -0.10679024822E-01 -0.70205789076E-02  0.54307727358E-02  0.10300439137E+01  0.10299503099E+01 0.  0.
     999903    2    3    3    0    0 -0.45620746309E-01 -0.22995547967E-01 -0.12244245132E+00  0.13997218349E+00  0.44609534262E-01 0.  0.
         14    1    1    2    0    0  0.10679024822E-01  0.70205789076E-02 -0.54307727358E-02  0.13886086268E-01  0.00000000000E+00 0.  1.
     999901    1    3    3    0    0  0.34941721487E-01  0.15974969059E-01  0.12787322406E+00  0.89007173024E+00  0.88000000000E+00 0.  1.
        -11    1    4    4    0    0 -0.20307761361E-01 -0.30193290947E-01 -0.95984277882E-01  0.10265126746E+00  0.51100000000E-03 0.  1.
         11    1    4    4    0    0 -0.25312984948E-01  0.71977429800E-02 -0.26458173438E-01  0.37320916034E-01  0.51100000000E-03 0. -1.
</event>
<event>
 8    1  0.2190295E+004  0.1043930E+01  0.7957747E-01            NaN
         13   -1    0    0    0    0  0.00000000000E+00  0.00000000000E+00  0.74505805969E-08  0.10566000000E+00  0.10566000000E+00 0.  1.
     999900   -1    0    0    0    0 -0.00000000000E+00 -0.00000000000E+00 -0.74505805969E-08  0.93827000000E+00  0.93827000000E+00 0.  1.
     999902    2    1    2    0    0 -0.52989451425E-02 -0.12705217507E-01 -0.29939079007E-02  0.10298422445E+01  0.10297458830E+01 0.  0.
     999903    2    3    3    0    0  0.33482502555E-01  0.11170430523E+00 -0.59607346235E-01  0.13844625421E+00  0.44893204344E-01 0.  0.
         14    1    1    2    0    0  0.52989451425E-02  0.12705217507E-01  0.29939079007E-02  0.14087755536E-01  0.00000000000E+00 0. -1.
     999901    1    3    3    0    0 -0.38781447697E-01 -0.12440952274E+00  0.56613438334E-01  0.89139599025E+00  0.88000000000E+00 0.  1.
        -11    1    4    4    0    0 -0.19427187495E-02  0.22227097567E-01 -0.30714445930E-01  0.37966515934E-01  0.51100000000E-03 0.  1.
         11    1    4    4    0    0  0.35425221304E-01  0.89477207664E-01 -0.28892900305E-01  0.10047973828E+00  0.51100000000E-03 0. -1.
</event>
<event>
 8    1  0.2190295E+004  0.1043930E+01  0.7957747E-01            NaN
         13   -1    0    0    0    0  0.00000000000E+00  0.00000000000E+00  0.74505805969E-08  0.10566000000E+00  0.10566000000E+00 0. -1.
     999900   -1    0    0    0    0 -0.00000000000E+00 -0.00000000000E+00 -0.74505805969E-08  0.93827000000E+00  0.93827000000E+00 0.  1.
     999902    2    1    2    0    0 -0.74029568791E-02  0.89996769341E-02 -0.84678351395E-02  0.10295250638E+01  0.10294242832E+01 0.  0.
     999903    2    3    3    0    0 -0.46871975971E-01  0.10885102083E+00  0.60146223926E-01  0.14034792539E+00  0.45104822810E-01 0.  0.
         14    1    1    2    0    0  0.74029568791E-02 -0.89996769341E-02  0.84678351395E-02  0.14404936217E-01  0.00000000000E+00 0. -1.
     999901    1    3    3    0    0  0.39469019092E-01 -0.99851343895E-01 -0.68614059066E-01  0.88917713840E+00  0.88000000000E+00 0.  1.
        -11    1    4    4    0    0 -0.15611421533E-01  0.76684428763E-01  0.21550933696E-01  0.81172174796E-01  0.51100000000E-03 0. -1.
         11    1    4    4    0    0 -0.31260554438E-01  0.32166592066E-01  0.38595290230E-01  0.59175750590E-01  0.51100000000E-03 0.  1.
</event>
<event>
 8    1  0.2190295E+004  0.1043930E+01  0.7957747E-01            NaN
         13   -1    0    0    0    0  0.00000000000E+00  0.00000000000E+00  0.74505805969E-08  0.10566000000E+00  0.10566000000E+00 0.  1.
     999900   -1    0    0    0    0 -0.00000000000E+00 -0.00000000000E+00 -0.74505805969E-08  0.93827000000E+00  0.93827000000E+00 0. -1.
     999902    2    1    2    0    0 -0.37131120408E-02  0.13305314969E-01  0.30646424406E-02  0.10297804191E+01  0.10296832041E+01 0.  0.
     999903    2    3    3    0    0 -0.30185453557E-01  0.31369524580E-01 -0.12567299925E+00  0.13983633041E+00  0.43188978720E-01 0.  0.
         14    1    1    2    0    0  0.37131120408E-02 -0.13305314969E-01 -0.30646424406E-02  0.14149580939E-01  0.00000000000E+00 0. -1.
     999901    1    3    3    0    0  0.26472341516E-01 -0.18064209611E-01  0.12873764169E+00  0.88994408865E+00  0.88000000000E+00 0.  1.
        -11    1    4    4    0    0  0.72115723273E-02  0.11155087754E-01 -0.61067258120E-01  0.62497311091E-01  0.51100000000E-03 0.  1.
         11    1    4    4    0    0 -0.37397025885E-01  0.20214436827E-01 -0.64605741132E-01  0.77339019320E-01  0.51100000000E-03 0. -1.
</event>
<event>
 8    1  0.2190295E+004  0.1043930E+01  0.7957747E-01            NaN
         13   -1    0    0    0    0  0.00000000000E+00  0.00000000000E+00  0.74505805969E-08  0.10566000000E+00  0.10566000000E+00 0. -1.
     999900   -1    0    0    0    0 -0.00000000000E+00 -0.00000000000E+00 -0.74505805969E-08  0.93827000000E+00  0.93827000000E+00 0. -1.
     999902    2    1    2    0    0 -0.10282049351E-01 -0.78017593367E-02  0.63066097680E-05  0.10310231016E+01  0.10309423107E+01 0.  0.
     999903    2    3    3    0    0  0.17873663669E-01  0.13035548650E+00  0.15792282262E-01  0.13965933419E+00  0.44083020922E-01 0.  0.
         14    1    1    2    0    0  0.10282049351E-01  0.78017593367E-02 -0.63066097680E-05  0.12906898441E-01  0.00000000000E+00 0.  1.
     999901    1    3    3    0    0 -0.28155713020E-01 -0.13815724584E+00 -0.15785975652E-01  0.89136376737E+00  0.88000000000E+00 0. -1.
        -11    1    4    4    0    0 -0.84855199006E-02  0.49080552819E-01  0.20999302455E-01  0.54056789930E-01  0.51100000000E-03 0.  1.
         11    1    4    4    0    0  0.26359183570E-01  0.81274933680E-01 -0.52070201934E-02  0.85602544258E-01  0.51100000000E-03 0. -1.
</event>
<event>
 8    1  0.2190295E+004  0.1043930E+01  0.7957747E-01            NaN
         13   -1    0    0    0    0  0.00000000000E+00  0.00000000000E+00  0.74505805969E-08  0.10566000000E+00  0.10566000000E+00 0. -1.
     999900   -1    0    0    0    0 -0.00000000000E+00 -0.00000000000E+00 -0.74505805969E-08  0.93827000000E+00  0.93827000000E+00 0.  1.
     999902    2    1    2    0    0  0.10418749342E-01 -0.40464427067E-02  0.35807030163E-02  0.10321934984E+01  0.10321267716E+01 0.  0.
     999903    2    3    3    0    0 -0.72428719182E-01  0.10063342323E+00  0.53820366509E-01  0.14070844456E+00  0.39105361369E-01 0.  0.
         14    1    1    2    0    0 -0.10418749342E-01  0.40464427067E-02 -0.35807030163E-02  0.11736501631E-01  0.00000000000E+00 0.  1.
     999901    1    3    3    0    0  0.82847468524E-01 -0.10467986593E+00 -0.50239663492E-01  0.89148505381E+00  0.88000000000E+00 0. -1.
        -11    1    4    4    0    0 -0.36856097664E-01  0.49056697388E-01  0.55446071948E-02  0.61611162004E-01  0.51100000000E-03 0. -1.
         11    1    4    4    0    0 -0.35572621518E-01  0.51576725838E-01  0.48275759314E-01  0.79097282558E-01  0.51100000000E-03 0.  1.
</event>
<event>
 8    1  0.2190295E+004  0.1043930E+01  0.7957747E-01            NaN
         13   -1    0    0    0    0  0.00000000000E+00  0.00000000000E+00  0.74505805969E-08  0.10566000000E+00  0.10566000000E+00 0.  1.
     999900   -1    0    0    0    0 -0.00000000000E+00 -0.00000000000E+00 -0.74505805969E-08  0.93827000000E+00  0.93827000000E+00 0.  1.
     999902    2    1    2    0    0  0.11788614530E-01  0.69015165638E-02  0.32055416127E-02  0.10298986829E+01  0.10298030973E+01 0.  0.
     999903    2    3    3    0    0  0.34874230020E-01  0.68288054683E-01  0.10979513816E+00  0.14104402951E+00  0.44260315903E-01 0.  0.
         14    1    1    2    0    0 -0.11788614530E-01 -0.69015165638E-02 -0.32055416127E-02  0.14031317132E-01  0.00000000000E+00 0. -1.
     999901    1    3    3    0    0 -0.23085615490E-01 -0.61386538119E-01 -0.10658959655E+00  0.88885465336E+00  0.88000000000E+00 0.  1.
        -11    1    4    4    0    0  0.41815916156E-01  0.46328065635E-01  0.94995801253E-01  0.11366320375E+00  0.51100000000E-03 0.  1.
         11    1    4    4    0    0 -0.69416861356E-02  0.21959989048E-01  0.14799336912E-01  0.27380825762E-01  0.51100000000E-03 0. -1.
</event>
<event>
 8    1  0.2190295E+004  0.1043930E+01  0.7957747E-01            NaN
         13   -1    0    0    0    0  0.00000000000E+00  0.00000000000E+00  0.74505805969E-08  0.10566000000E+00  0.10566000000E+00 0. -1.
     999900   -1    0    0    0    0 -0.00000000000E+00 -0.00000000000E+00 -0.74505805969E-08  0.93827000000E+00  0.93827000000E+00 0. -1.
     999902    2    1    2    0    0 -0.98491584744E-02  0.62750435668E-02  0.73852877263E-02  0.10301124543E+01  0.10300197784E+01 0.  0.
     999903    2    3    3    0    0  0.74687070216E-01  0.31964453807E-01  0.10542716100E+00  0.14027059831E+00  0.44283966717E-01 0.  0.
         14    1    1    2    0    0  0.98491584744E-02 -0.62750435668E-02 -0.73852877263E-02  0.13817545702E-01  0.00000000000E+00 0.  1.
     999901    1    3    3    0    0 -0.84536228690E-01 -0.25689410240E-01 -0.98041873274E-01  0.88984185599E+00  0.88000000000E+00 0.  1.
        -11    1    4    4    0    0  0.67569628377E-01  0.18337918705E-01  0.59655763490E-01  0.91983722365E-01  0.51100000000E-03 0.  1.
         11    1    4    4    0    0  0.71174418382E-02  0.13626535101E-01  0.45771397510E-01  0.48286875942E-01  0.51100000000E-03 0. -1.
</event>
<event>
 8    1  0.2190295E+004  0.1043930E+01  0.7957747E-01            NaN
         13   -1    0    0    0    0  0.00000000000E+00  0.00000000000E+00  0.74505805969E-08  0.10566000000E+00  0.10566000000E+00 0. -1.
     999900   -1    0    0    0    0 -0.00000000000E+00 -0.00000000000E+00 -0.74505805969E-08  0.93827000000E+00  0.93827000000E+00 0. -1.
     999902    2    1    2    0    0 -0.66345932408E-02 -0.11314291136E-01 -0.29434333654E-02  0.10304877230E+01  0.10304000448E+01 0.  0.
     999903    2    3    3    0    0  0.18073792462E-01  0.41428040390E-01  0.12380756186E+00  0.13950058916E+00  0.45707302446E-01 0.  0.
         14    1    1    2    0    0  0.66345932408E-02  0.11314291136E-01  0.29434333654E-02  0.13442277015E-01  0.00000000000E+00 0.  1.
     999901    1    3    3    0    0 -0.24708385702E-01 -0.52742331526E-01 -0.12675099522E+00  0.89098713383E+00  0.88000000000E+00 0. -1.
        -11    1    4    4    0    0  0.20570577307E-01  0.54754503474E-02  0.18539136227E-01  0.28232780598E-01  0.51100000000E-03 0. -1.
         11    1    4    4    0    0 -0.24967848449E-02  0.35952590043E-01  0.10526842563E+00  0.11126780856E+00  0.51100000000E-03 0.  1.
</event>
<event>
 8    1  0.2190295E+004  0.1043930E+01  0.7957747E-01            NaN
         13   -1    0    0    0    0  0.00000000000E+00  0.00000000000E+00  0.74505805969E-08  0.10566000000E+00  0.10566000000E+00 0.  1.
     999900   -1    0    0    0    0 -0.00000000000E+00 -0.00000000000E+00 -0.74505805969E-08  0.93827000000E+00  0.93827000000E+00 0.  1.
     999902    2    1    2    0    0  0.79798163261E-02 -0.12200721526E-01  0.38589760990E-02  0.10288493246E+01  0.10287387938E+01 0.  0.
     999903    2    3    3    0    0 -0.35704231030E-01  0.40525592055E-01  0.12114375405E+00  0.13843140065E+00  0.39627361929E-01 0.  0.
         14    1    1    2    0    0 -0.79798163261E-02  0.12200721526E-01 -0.38589760990E-02  0.15080675412E-01  0.00000000000E+00 0.  1.
     999901    1    3    3    0    0  0.43684047356E-01 -0.52726313581E-01 -0.11728477796E+00  0.89041792394E+00  0.88000000000E+00 0.  1.
        -11    1    4    4    0    0 -0.28222720108E-01  0.31065000166E-01  0.11898010822E+00  0.12616688725E+00  0.51100000000E-03 0. -1.
         11    1    4    4    0    0 -0.74815109212E-02  0.94605918883E-02  0.21636458369E-02  0.12264513396E-01  0.51100000000E-03 0.  1.
</event>
<event>
 8    1  0.2190295E+004  0.1043930E+01  0.7957747E-01            NaN
         13   -1    0    0    0    0  0.00000000000E+00  0.00000000000E+00  0.74505805969E-08  0.10566000000E+00  0.10566000000E+00 0.  1.
     999900   -1    0    0    0    0 -0.00000000000E+00 -0.00000000000E+00 -0.74505805969E-08  0.93827000000E+00  0.93827000000E+00 0.  1.
     999902    2    1    2    0    0 -0.12582277305E-01 -0.21925304521E-01  0.97201242116E-02  0.10168465457E+01  0.10164858012E+01 0.  0.
     999903    2    3    3    0    0 -0.27338325612E-01  0.43931134469E-01  0.10885402046E+00  0.12871235491E+00  0.45170166195E-01 0.  0.
         14    1    1    2    0    0  0.12582277305E-01  0.21925304521E-01 -0.97201242116E-02  0.27083454271E-01  0.00000000000E+00 0. -1.
     999901    1    3    3    0    0  0.14756048307E-01 -0.65856438991E-01 -0.99133896244E-01  0.88813419082E+00  0.88000000000E+00 0.  1.
        -11    1    4    4    0    0 -0.28895685611E-01  0.19041145693E-01  0.29321870966E-01  0.45360325331E-01  0.51100000000E-03 0. -1.
         11    1    4    4    0    0  0.15573599984E-02  0.24889988776E-01  0.79532149490E-01  0.83352029579E-01  0.51100000000E-03 0.  1.
</event>
<event>
 8    1  0.2190295E+004  0.1043930E+01  0.7957747E-01            NaN
         13   -1    0    0    0    0  0.00000000000E+00  0.00000000000E+00  0.74505805969E-08  0.10566000000E+00  0.10566000000E+00 0. -1.
     999900   -1    0    0    0    0 -0.00000000000E+00 -0.00000000000E+00 -0.74505805969E-08  0.93827000000E+00  0.93827000000E+00 0. -1.
     999902    2    1    2    0    0  0.13217194553E-02 -0.13079888355E-01  0.17144472244E-02  0.10306721815E+01  0.10305869085E+01 0.  0.
     999903    2    3    3    0    0 -0.13190358264E+00 -0.16696686601E-01  0.35222569049E-02  0.14063547973E+00  0.45701175127E-01 0.  0.
         14    1    1    2    0    0 -0.13217194553E-02  0.13079888355E-01 -0.17144472244E-02  0.13257818485E-01  0.00000000000E+00 0. -1.
     999901    1    3    3    0    0  0.13322530210E+00  0.36167982464E-02 -0.18078096805E-02  0.89003670178E+00  0.88000000000E+00 0. -1.
        -11    1    4    4    0    0 -0.19290397653E-01 -0.19664000205E-01 -0.34521522411E-02  0.27766361335E-01  0.51100000000E-03 0.  1.
         11    1    4    4    0    0 -0.11261318499E+00  0.29673136041E-02  0.69744091461E-02  0.11286911840E+00  0.51100000000E-03 0. -1.
</event>
<event>
 8    1  0.2190295E+004  0.1043930E+01  0.7957747E-01            NaN
         13   -1    0    0    0    0  0.00000000000E+00  0.00000000000E+00  0.74505805969E-08  0.10566000000E+00  0.10566000000E+00 0. -1.
     999900   -1    0    0    0    0 -0.00000000000E+00 -0.00000000000E+00 -0.74505805969E-08  0.93827000000E+00  0.93827000000E+00 0. -1.
     999902    2    1    2    0    0 -0.49273720433E-03 -0.11923370802E-01 -0.63293620993E-02  0.10304218400E+01  0.10303332946E+01 0.  0.
     999903    2    3    3    0    0  0.66790311918E-01  0.11310845157E+00 -0.11069456716E-01  0.13902830527E+00  0.44179963937E-01 0.  0.
         14    1    1    2    0    0  0.49273720433E-03  0.11923370802E-01  0.63293620993E-02  0.13508159972E-01  0.00000000000E+00 0. -1.
     999901    1    3    3    0    0 -0.67283049123E-01 -0.12503182237E+00  0.47400946170E-02  0.89139353475E+00  0.88000000000E+00 0.  1.
        -11    1    4    4    0    0  0.73315912740E-01  0.10091106687E+00 -0.94526045676E-02  0.12509148385E+00  0.51100000000E-03 0. -1.
         11    1    4    4    0    0 -0.65256008219E-02  0.12197384699E-01 -0.16168521487E-02  0.13936821425E-01  0.51100000000E-03 0.  1.
</event>
<event>
 8    1  0.2190295E+004  0.1043930E+01  0.7957747E-01            NaN
         13   -1    0    0    0    0  0.00000000000E+00  0.00000000000E+00  0.74505805969E-08  0.10566000000E+00  0.10566000000E+00 0.  1.
     999900   -1    0    0    0    0 -0.00000000000E+00 -0.00000000000E+00 -0.74505805969E-08  0.93827000000E+00  0.93827000000E+00 0.  1.
     999902    2    1    2    0    0  0.21626207592E-02  0.13051969652E-01 -0.38361152719E-02  0.10301551453E+01  0.10300630451E+01 0.  0.
     999903    2    3    3    0    0 -0.95774429450E-01  0.92797811998E-01 -0.10138732095E-01  0.14111589528E+00  0.45019182189E-01 0.  0.
         14    1    1    2    0    0 -0.21626207592E-02 -0.13051969652E-01  0.38361152719E-02  0.13774854653E-01  0.00000000000E+00 0.  1.
     999901    1    3    3    0    0  0.97937050209E-01 -0.79745842346E-01  0.63026168227E-02  0.88903925006E+00  0.88000000000E+00 0.  1.
        -11    1    4    4    0    0 -0.48781841191E-01  0.50123406105E-01  0.17154025184E-01  0.72017675404E-01  0.51100000000E-03 0. -1.
         11    1    4    4    0    0 -0.46992588258E-01  0.42674405894E-01 -0.27292757279E-01  0.69098219879E-01  0.51100000000E-03 0.  1.
</event>
<event>
 8    1  0.2190295E+004  0.1043930E+01  0.7957747E-01            NaN
         13   -1    0    0    0    0  0.00000000000E+00  0.00000000000E+00  0.74505805969E-08  0.10566000000E+00  0.10566000000E+00 0.  1.
     999900   -1    0    0    0    0 -0.00000000000E+00 -0.00000000000E+00 -0.74505805969E-08  0.93827000000E+00  0.93827000000E+00 0. -1.
     999902    2    1    2    0    0 -0.93178441713E-02  0.94942435998E-02 -0.70584366805E-02  0.10288706371E+01  0.10287604209E+01 0.  0.
     999903    2    3    3    0    0  0.92642860435E-02 -0.12384546086E+00 -0.40605862561E-01  0.13800016275E+00  0.44403644804E-01 0.  0.
         14    1    1    2    0    0  0.93178441713E-02 -0.94942435998E-02  0.70584366805E-02  0.15059362865E-01  0.00000000000E+00 0.  1.
     999901    1    3    3    0    0 -0.18582130215E-01  0.13333970446E+00  0.33547425880E-01  0.89087047439E+00  0.88000000000E+00 0.  1.
        -11    1    4    4    0    0  0.15681222452E-01 -0.10158184657E+00 -0.15698318565E-01  0.10397822184E+00  0.51100000000E-03 0. -1.
         11    1    4    4    0    0 -0.64169364084E-02 -0.22263614294E-01 -0.24907543996E-01  0.34021940909E-01  0.51100000000E-03 0.  1.
</event>
<event>
 8    1  0.2190295E+004  0.1043930E+01  0.7957747E-01            NaN
         13   -1    0    0    0    0  0.00000000000E+00  0.00000000000E+00  0.74505805969E-08  0.10566000000E+00  0.10566000000E+00 0.  1.
     999900   -1    0    0    0    0 -0.00000000000E+00 -0.00000000000E+00 -0.74505805969E-08  0.93827000000E+00  0.93827000000E+00 0. -1.
     999902    2    1    2    0    0  0.99453307899E-02 -0.86395633740E-02 -0.15107619127E-02  0.10306697564E+01  0.10305844520E+01 0.  0.
     999903    2    3    3    0    0 -0.19169940674E-01  0.11961720035E+00  0.47595173311E-01  0.13954188150E+00  0.50307801834E-01 0.  0.
         14    1    1    2    0    0 -0.99453307899E-02  0.86395633740E-02  0.15107619127E-02  0.13260243639E-01  0.00000000000E+00 0. -1.
     999901    1    3    3    0    0  0.29115271464E-01 -0.12825676373E+00 -0.49105935224E-01  0.89112787486E+00  0.88000000000E+00 0. -1.
        -11    1    4    4    0    0  0.68835642790E-02  0.40858956719E-01 -0.43464618369E-02  0.41665221142E-01  0.51100000000E-03 0.  1.
         11    1    4    4    0    0 -0.26053504953E-01  0.78758243634E-01  0.51941635148E-01  0.97876660361E-01  0.51100000000E-03 0. -1.
</event>
<event>
 8    1  0.2190295E+004  0.1043930E+01  0.7957747E-01            NaN
         13   -1    0    0    0    0  0.00000000000E+00  0.00000000000E+00  0.74505805969E-08  0.10566000000E+00  0.10566000000E+00 0.  1.
     999900   -1    0    0    0    0 -0.00000000000E+00 -0.00000000000E+00 -0.74505805969E-08  0.93827000000E+00  0.93827000000E+00 0.  1.
     999902    2    1    2    0    0  0.12029725500E-01 -0.74348922196E-02 -0.57811111279E-02  0.10286521348E+01  0.10285386728E+01 0.  0.
     999903    2    3    3    0    0 -0.57294796323E-01 -0.91996204612E-01  0.75230472617E-01  0.13819192710E+00  0.41126504294E-01 0.  0.
         14    1    1    2    0    0 -0.12029725500E-01  0.74348922196E-02  0.57811111279E-02  0.15277865158E-01  0.00000000000E+00 0.  1.
     999901    1    3    3    0    0  0.69324521823E-01  0.84561312393E-01 -0.81011583744E-01  0.89046020775E+00  0.88000000000E+00 0.  1.
        -11    1    4    4    0    0 -0.61421093146E-01 -0.76345939704E-01  0.72208331613E-01  0.12171917461E+00  0.51100000000E-03 0. -1.
         11    1    4    4    0    0  0.41262968235E-02 -0.15650264908E-01  0.30221410037E-02  0.16472752485E-01  0.51100000000E-03 0.  1.
</event>
<event>
 8    1  0.2190295E+004  0.1043930E+01  0.7957747E-01            NaN
         13   -1    0    0    0    0  0.00000000000E+00  0.00000000000E+00  0.74505805969E-08  0.10566000000E+00  0.10566000000E+00 0.  1.
     999900   -1    0    0    0    0 -0.00000000000E+00 -0.00000000000E+00 -0.74505805969E-08  0.93827000000E+00  0.93827000000E+00 0.  1.
     999902    2    1    2    0    0 -0.34794600997E-02  0.14442410489E-01 -0.15018524755E-02  0.10289986429E+01  0.10288903060E+01 0.  0.
     999903    2    3    3    0    0 -0.82519715700E-01 -0.90052868347E-01 -0.46192000479E-01  0.13817664351E+00  0.45167038063E-01 0.  0.
         14    1    1    2    0    0  0.34794600997E-02 -0.14442410489E-01  0.15018524755E-02  0.14931357078E-01  0.00000000000E+00 0. -1.
     999901    1    3    3    0    0  0.79040255600E-01  0.10449527884E+00  0.44690148003E-01  0.89082199941E+00  0.88000000000E+00 0. -1.
        -11    1    4    4    0    0 -0.77931639588E-01 -0.60753109638E-01 -0.44761302735E-01  0.10848094820E+00  0.51100000000E-03 0.  1.
         11    1    4    4    0    0 -0.45880761113E-02 -0.29299758709E-01 -0.14306977432E-02  0.29695695308E-01  0.51100000000E-03 0. -1.
</event>
<event>
 8    1  0.2190295E+004  0.1043930E+01  0.7957747E-01            NaN
         13   -1    0    0    0    0  0.00000000000E+00  0.00000000000E+00  0.74505805969E-08  0.10566000000E+00  0.10566000000E+00 0. -1.
     999900   -1    0    0    0    0 -0.00000000000E+00 -0.00000000000E+00 -0.74505805969E-08  0.93827000000E+00  0.93827000000E+00 0. -1.
     999902    2    1    2    0    0 -0.10453401069E-01 -0.82471274821E-02 -0.47093386314E-02  0.10298067364E+01  0.10297098852E+01 0.  0.
     999903    2    3    3    0    0  0.55576466903E-01 -0.71065532305E-01 -0.97473473360E-01  0.14024994776E+00  0.45054592243E-01 0.  0.
         14    1    1    2    0    0  0.10453401069E-01  0.82471274821E-02  0.47093386314E-02  0.14123263644E-01  0.00000000000E+00 0. -1.
     999901    1    3    3    0    0 -0.66029867971E-01  0.62818404823E-01  0.92764134729E-01  0.88955678860E+00  0.88000000000E+00 0.  1.
        -11    1    4    4    0    0 -0.55884241810E-02 -0.10763762226E-01 -0.25292396678E-01  0.28054509669E-01  0.51100000000E-03 0.  1.
         11    1    4    4    0    0  0.61164891084E-01 -0.60301770079E-01 -0.72181076682E-01  0.11219543809E+00  0.51100000000E-03 0. -1.
</event>
<event>
 8    1  0.2190295E+004  0.1043930E+01  0.7957747E-01            NaN
         13   -1    0    0    0    0  0.00000000000E+00  0.00000000000E+00  0.74505805969E-08  0.10566000000E+00  0.10566000000E+00 0.  1.
     999900   -1    0    0    0    0 -0.00000000000E+00 -0.00000000000E+00 -0.74505805969E-08  0.93827000000E+00  0.93827000000E+00 0.  1.
     999902    2    1    2    0    0 -0.39120128402E-02  0.12822831381E-01 -0.80570240658E-02  0.10282888848E+01  0.10281699208E+01 0.  0.
     999903    2    3    3    0    0  0.91876746724E-01  0.93457381838E-01 -0.15591431664E-01  0.13939396157E+00  0.44854932520E-01 0.  0.
         14    1    1    2    0    0  0.39120128402E-02 -0.12822831381E-01  0.80570240658E-02  0.15641115238E-01  0.00000000000E+00 0. -1.
     999901    1    3    3    0    0 -0.95788759564E-01 -0.80634550457E-01  0.75344075980E-02  0.88889492320E+00  0.88000000000E+00 0.  1.
        -11    1    4    4    0    0  0.65006659322E-01  0.36963126614E-01  0.54969367398E-03  0.74784368483E-01  0.51100000000E-03 0.  1.
         11    1    4    4    0    0  0.26870087402E-01  0.56494255223E-01 -0.16141125338E-01  0.64609593083E-01  0.51100000000E-03 0. -1.
</event>
<event>
 8    1  0.2190295E+004  0.1043930E+01  0.7957747E-01            NaN
         13   -1    0    0    0    0  0.00000000000E+00  0.00000000000E+00  0.74505805969E-08  0.10566000000E+00  0.10566000000E+00 0.  1.
     999900   -1    0    0    0    0 -0.00000000000E+00 -0.00000000000E+00 -0.74505805969E-08  0.93827000000E+00  0.93827000000E+00 0. -1.
     999902    2    1    2    0    0 -0.10144830109E-02  0.13418436161E-01 -0.16739293197E-02  0.10303695559E+01  0.10302803192E+01 0.  0.
     999903    2    3    3    0    0  0.10242003008E+00 -0.72794884442E-01 -0.38901920844E-01  0.13934915294E+00  0.45998578413E-01 0.  0.
         14    1    1    2    0    0  0.10144830109E-02 -0.13418436161E-01  0.16739293197E-02  0.13560444099E-01  0.00000000000E+00 0. -1.
     999901    1    3    3    0    0 -0.10343451309E+00  0.86213320603E-01  0.37227991524E-01  0.89102040297E+00  0.88000000000E+00 0.  1.
        -11    1    4    4    0    0  0.35089665220E-01 -0.46409439687E-01 -0.32756283593E-01  0.66770921314E-01  0.51100000000E-03 0. -1.
         11    1    4    4    0    0  0.67330364860E-01 -0.26385444755E-01 -0.61456372510E-02  0.72578231622E-01  0.51100000000E-03 0.  1.
</event>
<event>
 8    1  0.2190295E+004  0.1043930E+01  0.7957747E-01            NaN
         13   -1    0    0    0    0  0.00000000000E+00  0.00000000000E+00  0.74505805969E-08  0.10566000000E+00  0.10566000000E+00 0.  1.
     999900   -1    0    0    0    0 -0.00000000000E+00 -0.00000000000E+00 -0.74505805969E-08  0.93827000000E+00  0.93827000000E+00 0. -1.
     999902    2    1    2    0    0 -0.11934483385E-01  0.30165638020E-02  0.51265759430E-02  0.10305953335E+01  0.10305090626E+01 0.  0.
     999903    2    3    3    0    0  0.32897939945E-01 -0.12327281216E+00  0.35776991741E-01  0.13992232912E+00  0.44942233798E-01 0.  0.
         14    1    1    2    0    0  0.11934483385E-01 -0.30165638020E-02 -0.51265759430E-02  0.13334666540E-01  0.00000000000E+00 0. -1.
     999901    1    3    3    0    0 -0.44832423329E-01  0.12628937596E+00 -0.30650415798E-01  0.89067300434E+00  0.88000000000E+00 0. -1.
        -11    1    4    4    0    0  0.41921953331E-02 -0.22908871348E-01  0.26254631975E-01  0.35099255110E-01  0.51100000000E-03 0.  1.
         11    1    4    4    0    0  0.28705744611E-01 -0.10036394081E+00  0.95223597667E-02  0.10482307402E+00  0.51100000000E-03 0. -1.
</event>
<event>
 8    1  0.2190295E+004  0.1043930E+01  0.7957747E-01            NaN
         13   -1    0    0    0    0  0.00000000000E+00  0.00000000000E+00  0.74505805969E-08  0.10566000000E+00  0.10566000000E+00 0.  1.
     999900   -1    0    0    0    0 -0.00000000000E+00 -0.00000000000E+00 -0.74505805969E-08  0.93827000000E+00  0.93827000000E+00 0. -1.
     999902    2    1    2    0    0 -0.12781415366E-01 -0.25436328898E-02 -0.50504263538E-02  0.10299535393E+01  0.10298587047E+01 0.  0.
     999903    2    3    3    0    0 -0.51619613369E-02 -0.80885818915E-01 -0.10618294316E+00  0.14067105318E+00  0.44094968395E-01 0.  0.
         14    1    1    2    0    0  0.12781415366E-01  0.25436328898E-02  0.50504263538E-02  0.13976460689E-01  0.00000000000E+00 0.  1.
     999901    1    3    3    0    0 -0.76194540294E-02  0.78342186025E-01  0.10113251680E+00  0.88928248613E+00  0.88000000000E+00 0.  1.
        -11    1    4    4    0    0  0.18962510991E-01 -0.25139134892E-01 -0.34542376306E-01  0.46743874551E-01  0.51100000000E-03 0.  1.
         11    1    4    4    0    0 -0.24124472328E-01 -0.55746684023E-01 -0.71640566851E-01  0.93927178625E-01  0.51100000000E-03 0. -1.
</event>
<event>
 8    1  0.2190295E+004  0.1043930E+01  0.7957747E-01            NaN
         13   -1    0    0    0    0  0.00000000000E+00  0.00000000000E+00  0.74505805969E-08  0.10566000000E+00  0.10566000000E+00 0. -1.
     999900   -1    0    0    0    0 -0.00000000000E+00 -0.00000000000E+00 -0.74505805969E-08  0.93827000000E+00  0.93827000000E+00 0.  1.
     999902    2    1    2    0    0  0.69186593734E-02  0.18355769929E-02 -0.11820241749E-01  0.10301113421E+01  0.10300186512E+01 0.  0.
     999903    2    3    3    0    0 -0.62746662980E-01  0.11444897583E+00  0.19853263283E-01  0.13964054212E+00  0.45493045147E-01 0.  0.
         14    1    1    2    0    0 -0.69186593734E-02 -0.18355769929E-02  0.11820241749E-01  0.13818657874E-01  0.00000000000E+00 0. -1.
     999901    1    3    3    0    0  0.69665322353E-01 -0.11261339884E+00 -0.31673505032E-01  0.89047080000E+00  0.88000000000E+00 0. -1.
        -11    1    4    4    0    0 -0.22200404645E-01  0.12353692181E-01 -0.73816731689E-02  0.26461706232E-01  0.51100000000E-03 0. -1.
         11    1    4    4    0    0 -0.40546258335E-01  0.10209528365E+00  0.27234936452E-01  0.11317883589E+00  0.51100000000E-03 0.  1.
</event>
<event>
 8    1  0.2190295E+004  0.1043930E+01  0.7957747E-01            NaN
         13   -1    0    0    0    0  0.00000000000E+00  0.00000000000E+00  0.74505805969E-08  0.10566000000E+00  0.10566000000E+00 0.  1.
     999900   -1    0    0    0    0 -0.00000000000E+00 -0.00000000000E+00 -0.74505805969E-08  0.93827000000E+00  0.93827000000E+00 0. -1.
     999902    2    1    2    0    0 -0.29714022071E-02 -0.21695727111E-02 -0.14095946095E-01  0.10293618164E+01  0.10292587221E+01 0.  0.
     999903    2    3    3    0    0  0.12605627906E+00 -0.22575909591E-01 -0.41018571909E-01  0.13931159934E+00  0.36405237067E-01 0.  0.
         14    1    1    2    0    0  0.29714022071E-02  0.21695727111E-02  0.14095946095E-01  0.14568183591E-01  0.00000000000E+00 0.  1.
     999901    1    3    3    0    0 -0.12902768127E+00  0.20406336880E-01  0.26922625814E-01  0.89005021707E+00  0.88000000000E+00 0.  1.
        -11    1    4    4    0    0  0.52444984010E-01 -0.10801054034E-01  0.13480986899E-02  0.53565078242E-01  0.51100000000E-03 0.  1.
         11    1    4    4    0    0  0.73611295050E-01 -0.11774855556E-01 -0.42366670599E-01  0.85746521101E-01  0.51100000000E-03 0. -1.
</event>
<event>
 8    1  0.2190295E+004  0.1043930E+01  0.7957747E-01            NaN
         13   -1    0    0    0    0  0.00000000000E+00  0.00000000000E+00  0.74505805969E-08  0.10566000000E+00  0.10566000000E+00 0. -1.
     999900   -1    0    0    0    0 -0.00000000000E+00 -0.00000000000E+00 -0.74505805969E-08  0.93827000000E+00  0.93827000000E+00 0. -1.
     999902    2    1    2    0    0  0.10489927304E-01  0.11267665995E-01  0.13928647109E-02  0.10284723500E+01  0.10283561814E+01 0.  0.
     999903    2    3    3    0    0 -0.22697576095E-01  0.12830742671E+00 -0.23298663159E-01  0.13976014262E+00  0.44856371349E-01 0.  0.
         14    1    1    2    0    0 -0.10489927304E-01 -0.11267665995E-01 -0.13928647109E-02  0.15457650012E-01  0.00000000000E+00 0. -1.
     999901    1    3    3    0    0  0.33187503399E-01 -0.11703976072E+00  0.24691527870E-01  0.88871220736E+00  0.88000000000E+00 0. -1.
        -11    1    4    4    0    0 -0.28271235062E-01  0.80845949298E-01 -0.31527513290E-01  0.91266507905E-01  0.51100000000E-03 0. -1.
         11    1    4    4    0    0  0.55736589669E-02  0.47461477415E-01  0.82288501310E-02  0.48493634718E-01  0.51100000000E-03 0.  1.
</event>
<event>
 8    1  0.2190295E+004  0.1043930E+01  0.7957747E-01            NaN
         13   -1    0    0    0    0  0.00000000000E+00  0.00000000000E+00  0.74505805969E-08  0.10566000000E+00  0.10566000000E+00 0.  1.
     999900   -1    0    0    0    0 -0.00000000000E+00 -0.00000000000E+00 -0.74505805969E-08  0.93827000000E+00  0.93827000000E+00 0. -1.
     999902    2    1    2    0    0 -0.13123624984E-01  0.54536711445E-02 -0.26175590518E-02  0.10294792672E+01  0.10293778403E+01 0.  0.
     999903    2    3    3    0    0 -0.74619299277E-01  0.76002524807E-01 -0.79330757113E-01  0.14119790784E+00  0.47948478113E-01 0.  0.
         14    1    1    2    0    0  0.13123624984E-01 -0.54536711445E-02  0.26175590518E-02  0.14450732752E-01  0.00000000000E+00 0. -1.
     999901    1    3    3    0    0  0.61495674293E-01 -0.70548853662E-01  0.76713198061E-01  0.88828135941E+00  0.88000000000E+00 0. -1.
        -11    1    4    4    0    0  0.35650964344E-02  0.20453431127E-01 -0.16696108785E-01  0.26647212369E-01  0.51100000000E-03 0.  1.
         11    1    4    4    0    0 -0.78184395712E-01  0.55549093680E-01 -0.62634648328E-01  0.11455069547E+00  0.51100000000E-03 0. -1.
</event>
<event>
 8    1  0.2190295E+004  0.1043930E+01  0.7957747E-01            NaN
         13   -1    0    0    0    0  0.00000000000E+00  0.00000000000E+00  0.74505805969E-08  0.10566000000E+00  0.10566000000E+00 0. -1.
     999900   -1    0    0    0    0 -0.00000000000E+00 -0.00000000000E+00 -0.74505805969E-08  0.93827000000E+00  0.93827000000E+00 0.  1.
     999902    2    1    2    0    0  0.49479619474E-02  0.42005340264E-02 -0.33732534866E-02  0.10366152442E+01  0.10365894360E+01 0.  0.
     999903    2    3    3    0    0 -0.55141822529E-01 -0.85161952274E-01 -0.92352560316E-01  0.14559686435E+00  0.48747028683E-01 0.  0.
         14    1    1    2    0    0 -0.49479619474E-02 -0.42005340264E-02  0.33732534866E-02  0.73147558145E-02  0.00000000000E+00 0. -1.
     999901    1    3    3    0    0  0.60089784476E-01  0.89362486301E-01  0.88979306829E-01  0.89101837983E+00  0.88000000000E+00 0. -1.
        -11    1    4    4    0    0 -0.45979095617E-01 -0.68307518950E-01 -0.43534945302E-01  0.93142616252E-01  0.51100000000E-03 0.  1.
         11    1    4    4    0    0 -0.91627269114E-02 -0.16854433324E-01 -0.48817615014E-01  0.52454248100E-01  0.51100000000E-03 0. -1.
</event>
<event>
 8    1  0.2190295E+004  0.1043930E+01  0.7957747E-01            NaN
         13   -1    0    0    0    0  0.00000000000E+00  0.00000000000E+00  0.74505805969E-08  0.10566000000E+00  0.10566000000E+00 0. -1.
     999900   -1    0    0    0    0 -0.00000000000E+00 -0.00000000000E+00 -0.74505805969E-08  0.93827000000E+00  0.93827000000E+00 0.  1.
     999902    2    1    2    0    0 -0.64623727082E-02 -0.14289919148E-01 -0.89543879957E-02  0.10258705118E+01  0.10257115393E+01 0.  0.
     999903    2    3    3    0    0  0.27975675353E-01  0.11840475618E+00 -0.37830102725E-01  0.13478821316E+00  0.43982053583E-01 0.  0.
         14    1    1    2    0    0  0.64623727082E-02  0.14289919148E-01  0.89543879957E-02  0.18059488217E-01  0.00000000000E+00 0.  1.
     999901    1    3    3    0    0 -0.34438048061E-01 -0.13269467533E+00  0.28875714729E-01  0.89108229862E+00  0.88000000000E+00 0. -1.
        -11    1    4    4    0    0  0.33154516045E-01  0.53244206088E-01 -0.27978235380E-01  0.68681949537E-01  0.51100000000E-03 0. -1.
         11    1    4    4    0    0 -0.51788406915E-02  0.65160550093E-01 -0.98518673442E-02  0.66106263625E-01  0.51100000000E-03 0.  1.
</event>
<event>
 8    1  0.2190295E+004  0.1043930E+01  0.7957747E-01            NaN
         13   -1    0    0    0    0  0.00000000000E+00  0.00000000000E+00  0.74505805969E-08  0.10566000000E+00  0.10566000000E+00 0.  1.
     999900   -1    0    0    0    0 -0.00000000000E+00 -0.00000000000E+00 -0.74505805969E-08  0.93827000000E+00  0.93827000000E+00 0. -1.
     999902    2    1    2    0    0  0.83410190836E-02 -0.11010368577E-01 -0.73715360165E-03  0.10300972775E+01  0.10300043966E+01 0.  0.
     999903    2    3    3    0    0 -0.41594904031E-01  0.12048469292E+00  0.29406174941E-01  0.13841730811E+00  0.45254069314E-01 0.  0.
         14    1    1    2    0    0 -0.83410190836E-02  0.11010368577E-01  0.73715360165E-03  0.13832722472E-01  0.00000000000E+00 0.  1.
     999901    1    3    3    0    0  0.49935923115E-01 -0.13149506149E+00 -0.30143328542E-01  0.89167996942E+00  0.88000000000E+00 0. -1.
        -11    1    4    4    0    0 -0.42335322745E-01  0.10602236100E+00  0.10568935469E-01  0.11465157697E+00  0.51100000000E-03 0.  1.
         11    1    4    4    0    0  0.74041871329E-03  0.14462331914E-01  0.18837239472E-01  0.23765731131E-01  0.51100000000E-03 0. -1.
</event>
<event>
 8    1  0.2190295E+004  0.1043930E+01  0.7957747E-01            NaN
         13   -1    0    0    0    0  0.00000000000E+00  0.00000000000E+00  0.74505805969E-08  0.10566000000E+00  0.10566000000E+00 0. -1.
     999900   -1    0    0    0    0 -0.00000000000E+00 -0.00000000000E+00 -0.74505805969E-08  0.93827000000E+00  0.93827000000E+00 0. -1.
     999902    2    1    2    0    0 -0.15291957892E-02 -0.66054939609E-02 -0.12708661561E-01  0.10295257968E+01  0.10294250265E+01 0.  0.
     999903    2    3    3    0    0  0.33342441108E-01  0.94679805847E-01  0.84310763229E-01  0.13773685779E+00  0.42274734563E-01 0.  0.
         14    1    1    2    0    0  0.15291957892E-02  0.66054939609E-02  0.12708661561E-01  0.14404203168E-01  0.00000000000E+00 0. -1.
     999901    1    3    3    0    0 -0.34871636897E-01 -0.10128529981E+00 -0.97019424791E-01  0.89178893905E+00  0.88000000000E+00 0. -1.
        -11    1    4    4    0    0 -0.14067848368E-02  0.57519415673E-01  0.38140754968E-01  0.69032170280E-01  0.51100000000E-03 0.  1.
         11    1    4    4    0    0  0.34749225945E-01  0.37160390173E-01  0.46170008261E-01  0.68704687507E-01  0.51100000000E-03 0. -1.
</event>
<event>
 8    1  0.2190295E+004  0.1043930E+01  0.7957747E-01            NaN
         13   -1    0    0    0    0  0.00000000000E+00  0.00000000000E+00  0.74505805969E-08  0.10566000000E+00  0.10566000000E+00 0.  1.
     999900   -1    0    0    0    0 -0.00000000000E+00 -0.00000000000E+00 -0.74505805969E-08  0.93827000000E+00  0.93827000000E+00 0. -1.
     999902    2    1    2    0    0 -0.13268526868E-01  0.31393063669E-02 -0.28175169997E-02  0.10300070890E+01  0.10299129846E+01 0.  0.
     999903    2    3    3    0    0 -0.82997754381E-01  0.32730014852E-01 -0.10144945952E+00  0.14126301147E+00  0.41271836258E-01 0.  0.
         14    1    1    2    0    0  0.13268526868E-01 -0.31393063669E-02  0.28175169997E-02  0.13922911038E-01  0.00000000000E+00 0. -1.
     999901    1    3    3    0    0  0.69729227513E-01 -0.29590708485E-01  0.98631942516E-01  0.88874407750E+00  0.88000000000E+00 0. -1.
        -11    1    4    4    0    0 -0.31272905076E-02 -0.48268264496E-02  0.11879625226E-02  0.58949618700E-02  0.51100000000E-03 0.  1.
         11    1    4    4    0    0 -0.79870463874E-01  0.37556841302E-01 -0.10263742204E+00  0.13536804960E+00  0.51100000000E-03 0. -1.
</event>
<event>
 8    1  0.2190295E+004  0.1043930E+01  0.7957747E-01            NaN
         13   -1    0    0    0    0  0.00000000000E+00  0.00000000000E+00  0.74505805969E-08  0.10566000000E+00  0.10566000000E+00 0. -1.
     999900   -1    0    0    0    0 -0.00000000000E+00 -0.00000000000E+00 -0.74505805969E-08  0.93827000000E+00  0.93827000000E+00 0. -1.
     999902    2    1    2    0    0 -0.12087369509E-01  0.44706560838E-02 -0.78355158238E-04  0.10310421217E+01  0.10309615702E+01 0.  0.
     999903    2    3    3    0    0 -0.26841746640E-01  0.13043146185E+00 -0.16582239199E-01  0.14179738912E+00  0.45811388333E-01 0.  0.
         14    1    1    2    0    0  0.12087369509E-01 -0.44706560838E-02  0.78355158238E-04  0.12887878297E-01  0.00000000000E+00 0. -1.
     999901    1    3    3    0    0  0.14754377131E-01 -0.12596080577E+00  0.16503884040E-01  0.88924473258E+00  0.88000000000E+00 0.  1.
        -11    1    4    4    0    0 -0.32581920728E-01  0.12229961374E+00 -0.52069435787E-02  0.12667340077E+00  0.51100000000E-03 0.  1.
         11    1    4    4    0    0  0.57401740885E-02  0.81318481113E-02 -0.11375295620E-01  0.15123988353E-01  0.51100000000E-03 0. -1.
</event>
<event>
 8    1  0.2190295E+004  0.1043930E+01  0.7957747E-01            NaN
         13   -1    0    0    0    0  0.00000000000E+00  0.00000000000E+00  0.74505805969E-08  0.10566000000E+00  0.10566000000E+00 0.  1.
     999900   -1    0    0    0    0 -0.00000000000E+00 -0.00000000000E+00 -0.74505805969E-08  0.93827000000E+00  0.93827000000E+00 0.  1.
     999902    2    1    2    0    0  0.92297744145E-02 -0.90113686765E-02 -0.55059664262E-02  0.10299046955E+01  0.10298091923E+01 0.  0.
     999903    2    3    3    0    0  0.29775927159E-01 -0.12703355297E+00  0.30317356431E-01  0.14106573882E+00  0.44229754129E-01 0.  0.
         14    1    1    2    0    0 -0.92297744145E-02  0.90113686765E-02  0.55059664262E-02  0.14025304540E-01  0.00000000000E+00 0.  1.
     999901    1    3    3    0    0 -0.20546152744E-01  0.11802218429E+00 -0.35823322857E-01  0.88883895664E+00  0.88000000000E+00 0.  1.
        -11    1    4    4    0    0  0.14649089476E-01 -0.82696426529E-01  0.40316758252E-01  0.93161134064E-01  0.51100000000E-03 0.  1.
         11    1    4    4    0    0  0.15126837683E-01 -0.44337126439E-01 -0.99994018212E-02  0.47904604757E-01  0.51100000000E-03 0. -1.
</event>
<event>
 8    1  0.2190295E+004  0.1043930E+01  0.7957747E-01            NaN
         13   -1    0    0    0    0  0.00000000000E+00  0.00000000000E+00  0.74505805969E-08  0.10566000000E+00  0.10566000000E+00 0.  1.
     999900   -1    0    0    0    0 -0.00000000000E+00 -0.00000000000E+00 -0.74505805969E-08  0.93827000000E+00  0.93827000000E+00 0. -1.
     999902    2    1    2    0    0  0.11678216296E-01 -0.91512529859E-02  0.94601069642E-03  0.10290632215E+01  0.10289558264E+01 0.  0.
     999903    2    3    3    0    0  0.83251773860E-01 -0.15152194579E-01 -0.10249695972E+00  0.14009796144E+00  0.44287302874E-01 0.  0.
         14    1    1    2    0    0 -0.11678216296E-01  0.91512529859E-02 -0.94601069642E-03  0.14866778511E-01  0.00000000000E+00 0. -1.
     999901    1    3    3    0    0 -0.71573557564E-01  0.60009415931E-02  0.10344297042E+00  0.88896526005E+00  0.88000000000E+00 0.  1.
        -11    1    4    4    0    0  0.68475538307E-01 -0.10696698383E-01 -0.50224920845E-01  0.85592771293E-01  0.51100000000E-03 0.  1.
         11    1    4    4    0    0  0.14776235553E-01 -0.44554961958E-02 -0.52272038879E-01  0.54505190148E-01  0.51100000000E-03 0. -1.
</event>
<event>
 8    1  0.2190295E+004  0.1043930E+01  0.7957747E-01            NaN
         13   -1    0    0    0    0  0.00000000000E+00  0.00000000000E+00  0.74505805969E-08  0.10566000000E+00  0.10566000000E+00 0. -1.
     999900   -1    0    0    0    0 -0.00000000000E+00 -0.00000000000E+00 -0.74505805969E-08  0.93827000000E+00  0.93827000000E+00 0. -1.
     999902    2    1    2    0    0 -0.10437724968E-01 -0.48641970866E-02 -0.78780045799E-02  0.10299775998E+01  0.10298830936E+01 0.  0.
     999903    2    3    3    0    0  0.11204638782E+00 -0.41490530551E-01 -0.55307272024E-01  0.13947584144E+00  0.46029977836E-01 0.  0.
         14    1    1    2    0    0  0.10437724968E-01  0.48641970866E-02  0.78780045799E-02  0.13952400222E-01  0.00000000000E+00 0. -1.
     999901    1    3    3    0    0 -0.12248411278E+00  0.36626333465E-01  0.47429267444E-01  0.89050175833E+00  0.88000000000E+00 0.  1.
        -11    1    4    4    0    0  0.25723279922E-01  0.97540966051E-02 -0.92780702221E-02  0.29037445456E-01  0.51100000000E-03 0.  1.
         11    1    4    4    0    0  0.86323107893E-01 -0.51244627156E-01 -0.46029201802E-01  0.11043839599E+00  0.51100000000E-03 0. -1.
</event>
<event>
 8    1  0.2190295E+004  0.1043930E+01  0.7957747E-01            NaN
         13   -1    0    0    0    0  0.00000000000E+00  0.00000000000E+00  0.74505805969E-08  0.10566000000E+00  0.10566000000E+00 0. -1.
     999900   -1    0    0    0    0 -0.00000000000E+00 -0.00000000000E+00 -0.74505805969E-08  0.93827000000E+00  0.93827000000E+00 0. -1.
     999902    2    1    2    0    0  0.12306194922E-01  0.69178012665E-02  0.29644459467E-02  0.10295048016E+01  0.10294037353E+01 0.  0.
     999903    2    3    3    0    0 -0.13047239365E+00 -0.71310638889E-02 -0.10777973650E-02  0.13787739308E+00  0.43989956787E-01 0.  0.
         14    1    1    2    0    0 -0.12306194922E-01 -0.69178012665E-02 -0.29644459467E-02  0.14425198355E-01  0.00000000000E+00 0. -1.
     999901    1    3    3    0    0  0.14277858858E+00  0.14048865155E-01  0.40422433117E-02  0.89162740856E+00  0.88000000000E+00 0.  1.
        -11    1    4    4    0    0 -0.11723304489E-01  0.12882282216E-01 -0.96945083880E-03  0.17452507533E-01  0.51100000000E-03 0. -1.
         11    1    4    4    0    0 -0.11874908916E+00 -0.20013346105E-01 -0.10834652618E-03  0.12042488555E+00  0.51100000000E-03 0.  1.
</event>
<event>
 8    1  0.2190295E+004  0.1043930E+01  0.7957747E-01            NaN
         13   -1    0    0    0    0  0.00000000000E+00  0.00000000000E+00  0.74505805969E-08  0.10566000000E+00  0.10566000000E+00 0.  1.
     999900   -1    0    0    0    0 -0.00000000000E+00 -0.00000000000E+00 -0.74505805969E-08  0.93827000000E+00  0.93827000000E+00 0. -1.
     999902    2    1    2    0    0  0.97748824804E-03  0.15569632904E-01 -0.78790266839E-03  0.10283098290E+01  0.10281911858E+01 0.  0.
     999903    2    3    3    0    0  0.92169107224E-01  0.83626250456E-01  0.44682166765E-01  0.13981945662E+00  0.45436662849E-01 0.  0.
         14    1    1    2    0    0 -0.97748824804E-03 -0.15569632904E-01  0.78790266839E-03  0.15620171018E-01  0.00000000000E+00 0.  1.
     999901    1    3    3    0    0 -0.91191618976E-01 -0.68056617552E-01 -0.45470069434E-01  0.88849037236E+00  0.88000000000E+00 0.  1.
        -11    1    4    4    0    0  0.33141677614E-01  0.58861607829E-01  0.14706063383E-01  0.69134572339E-01  0.51100000000E-03 0. -1.
         11    1    4    4    0    0  0.59027429610E-01  0.24764642627E-01  0.29976103383E-01  0.70684884281E-01  0.51100000000E-03 0.  1.
</event>
<event>
 8    1  0.2190295E+004  0.1043930E+01  0.7957747E-01            NaN
         13   -1    0    0    0    0  0.00000000000E+00  0.00000000000E+00  0.74505805969E-08  0.10566000000E+00  0.10566000000E+00 0. -1.
     999900   -1    0    0    0    0 -0.00000000000E+00 -0.00000000000E+00 -0.74505805969E-08  0.93827000000E+00  0.93827000000E+00 0.  1.
     999902    2    1    2    0    0 -0.16260452678E-02 -0.11000107241E-01 -0.78024281488E-02  0.10303460290E+01  0.10302564803E+01 0.  0.
     999903    2    3    3    0    0 -0.10509652651E+00  0.49350092495E-01 -0.63447875336E-01  0.14048946592E+00  0.47232887240E-01 0.  0.
         14    1    1    2    0    0  0.16260452678E-02  0.11000107241E-01  0.78024281488E-02  0.13583970978E-01  0.00000000000E+00 0. -1.
     999901    1    3    3    0    0  0.10347048124E+00 -0.60350199736E-01  0.55645447187E-01  0.88985656310E+00  0.88000000000E+00 0. -1.
        -11    1    4    4    0    0 -0.90947738661E-01  0.26968157279E-01 -0.33726072046E-01  0.10068009600E+00  0.51100000000E-03 0.  1.
         11    1    4    4    0    0 -0.14148787849E-01  0.22381935216E-01 -0.29721803290E-01  0.39809369920E-01  0.51100000000E-03 0. -1.
</event>
<event>
 8    1  0.2190295E+004  0.1043930E+01  0.7957747E-01            NaN
         13   -1    0    0    0    0  0.00000000000E+00  0.00000000000E+00  0.74505805969E-08  0.10566000000E+00  0.10566000000E+00 0. -1.
     999900   -1    0    0    0    0 -0.00000000000E+00 -0.00000000000E+00 -0.74505805969E-08  0.93827000000E+00  0.93827000000E+00 0.  1.
     999902    2    1    2    0    0  0.16123190628E-01 -0.13811372663E-02 -0.74623356112E-02  0.10261100317E+01  0.10259552846E+01 0.  0.
     999903    2    3    3    0    0  0.72526919654E-01  0.43520005615E-01  0.97794146200E-01  0.13691015531E+00  0.45017225941E-01 0.  0.
         14    1    1    2    0    0 -0.16123190628E-01  0.13811372663E-02  0.74623356112E-02  0.17819968265E-01  0.00000000000E+00 0. -1.
     999901    1    3    3    0    0 -0.56403729026E-01 -0.44901142881E-01 -0.10525648181E+00  0.88919987643E+00  0.88000000000E+00 0.  1.
        -11    1    4    4    0    0  0.27068424559E-02  0.19800251694E-01  0.33818808436E-01  0.39285492084E-01  0.51100000000E-03 0. -1.
         11    1    4    4    0    0  0.69820077198E-01  0.23719753921E-01  0.63975337764E-01  0.97624663221E-01  0.51100000000E-03 0.  1.
</event>
<event>
 8    1  0.2190295E+004  0.1043930E+01  0.7957747E-01            NaN
         13   -1    0    0    0    0  0.00000000000E+00  0.00000000000E+00  0.74505805969E-08  0.10566000000E+00  0.10566000000E+00 0.  1.
     999900   -1    0    0    0    0 -0.00000000000E+00 -0.00000000000E+00 -0.74505805969E-08  0.93827000000E+00  0.93827000000E+00 0.  1.
     999902    2    1    2    0    0 -0.81589256352E-02 -0.83032725288E-02  0.74571056284E-02  0.10301053544E+01  0.10300125826E+01 0.  0.
     999903    2    3    3    0    0  0.34789150676E-01 -0.66061052242E-01  0.11107053118E+00  0.14110803136E+00  0.44726569179E-01 0.  0.
         14    1    1    2    0    0  0.81589256352E-02  0.83032725288E-02 -0.74571056284E-02  0.13824645622E-01  0.00000000000E+00 0. -1.
     999901    1    3    3    0    0 -0.42948076311E-01  0.57757779713E-01 -0.10361342555E+00  0.88899732302E+00  0.88000000000E+00 0.  1.
        -11    1    4    4    0    0  0.35800404046E-03 -0.47533019402E-01  0.67559948532E-01  0.82608255441E-01  0.51100000000E-03 0. -1.
         11    1    4    4    0    0  0.34431146636E-01 -0.18528032840E-01  0.43510582647E-01  0.58499775921E-01  0.51100000000E-03 0.  1.
</event>
<event>
 7    1  0.2190295E+004  0.1043930E+01  0.7957747E-01            NaN
         13   -1    0    0    0    0  0.00000000000E+00  0.00000000000E+00  0.74505805969E-08  0.10566000000E+00  0.10566000000E+00 0. -1.
     999900   -1    0    0    0    0 -0.00000000000E+00 -0.00000000000E+00 -0.74505805969E-08  0.93827000000E+00  0.93827000000E+00 0.  1.
     999903    2    1    2    0    0 -0.91656043047E-01  0.62727573172E-01 -0.31534127748E-01  0.12392073388E+00  0.45015201993E-01 0.  0.
         14    1    1    2    0    0  0.53052049457E-02  0.23199216825E-01 -0.18599412898E-01  0.30204089474E-01  0.00000000000E+00 0.  1.
     999901    1    1    2    0    0  0.86350838102E-01 -0.85926789997E-01  0.50133540646E-01  0.88980517664E+00  0.88000000000E+00 0.  1.
        -11    1    3    3    0    0 -0.41111452212E-01  0.47618832047E-01 -0.90848768315E-03  0.62918925129E-01  0.51100000000E-03 0. -1.
         11    1    3    3    0    0 -0.50544590835E-01  0.15108741126E-01 -0.30625640065E-01  0.61001808756E-01  0.51100000000E-03 0.  1.
</event>
<event>
 8    1  0.2190295E+004  0.1043930E+01  0.7957747E-01            NaN
         13   -1    0    0    0    0  0.00000000000E+00  0.00000000000E+00  0.74505805969E-08  0.10566000000E+00  0.10566000000E+00 0.  1.
     999900   -1    0    0    0    0 -0.00000000000E+00 -0.00000000000E+00 -0.74505805969E-08  0.93827000000E+00  0.93827000000E+00 0.  1.
     999902    2    1    2    0    0 -0.19255657330E-02 -0.13184803537E-01  0.33771565672E-02  0.10301840175E+01  0.10300923055E+01 0.  0.
     999903    2    3    3    0    0 -0.10858986677E+00 -0.50564239683E-02  0.76170878287E-01  0.14072223105E+00  0.46727048103E-01 0.  0.
         14    1    1    2    0    0  0.19255657330E-02  0.13184803537E-01 -0.33771565672E-02  0.13745982475E-01  0.00000000000E+00 0. -1.
     999901    1    3    3    0    0  0.10666430104E+00 -0.81283795691E-02 -0.72793721720E-01  0.88946178647E+00  0.88000000000E+00 0.  1.
        -11    1    4    4    0    0 -0.49617408188E-01 -0.24473665745E-01  0.27237736404E-01  0.61668492082E-01  0.51100000000E-03 0. -1.
         11    1    4    4    0    0 -0.58972458586E-01  0.19417241776E-01  0.48933141883E-01  0.79053738972E-01  0.51100000000E-03 0.  1.
</event>
<event>
 8    1  0.2190295E+004  0.1043930E+01  0.7957747E-01            NaN
         13   -1    0    0    0    0  0.00000000000E+00  0.00000000000E+00  0.74505805969E-08  0.10566000000E+00  0.10566000000E+00 0.  1.
     999900   -1    0    0    0    0 -0.00000000000E+00 -0.00000000000E+00 -0.74505805969E-08  0.93827000000E+00  0.93827000000E+00 0.  1.
     999902    2    1    2    0    0 -0.13057603748E-01  0.50074704241E-02  0.42644120744E-02  0.10293094328E+01  0.10292055904E+01 0.  0.
     999903    2    3    3    0    0  0.60315726647E-01  0.11805264445E-01  0.11649300945E+00  0.13912680337E+00  0.44814004698E-01 0.  0.
         14    1    1    2    0    0  0.13057603748E-01 -0.50074704241E-02 -0.42644120744E-02  0.14620567227E-01  0.00000000000E+00 0.  1.
     999901    1    3    3    0    0 -0.73373330395E-01 -0.67977940204E-02 -0.11222859737E+00  0.89018262940E+00  0.88000000000E+00 0.  1.
        -11    1    4    4    0    0  0.58933497250E-01 -0.56201516234E-03  0.72659519817E-01  0.93558216637E-01  0.51100000000E-03 0.  1.
         11    1    4    4    0    0  0.13822293974E-02  0.12367279607E-01  0.43833489631E-01  0.45568586737E-01  0.51100000000E-03 0. -1.
</event>
<event>
 8    1  0.2190295E+004  0.1043930E+01  0.7957747E-01            NaN
         13   -1    0    0    0    0  0.00000000000E+00  0.00000000000E+00  0.74505805969E-08  0.10566000000E+00  0.10566000000E+00 0.  1.
     999900   -1    0    0    0    0 -0.00000000000E+00 -0.00000000000E+00 -0.74505805969E-08  0.93827000000E+00  0.93827000000E+00 0.  1.
     999902    2    1    2    0    0  0.76597303931E-02  0.23090769403E-02 -0.11773259312E-01  0.10296957827E+01  0.10295973932E+01 0.  0.
     999903    2    3    3    0    0  0.31106924958E-01 -0.85314616664E-01  0.94890930158E-01  0.13862623892E+00  0.44347727052E-01 0.  0.
         14    1    1    2    0    0 -0.76597303931E-02 -0.23090769403E-02  0.11773259312E-01  0.14234217254E-01  0.00000000000E+00 0.  1.
     999901    1    3    3    0    0 -0.23447194565E-01  0.87623693605E-01 -0.10666418947E+00  0.89106954382E+00  0.88000000000E+00 0.  1.
        -11    1    4    4    0    0  0.93769361205E-03 -0.60435427611E-01  0.68968151328E-01  0.91707072783E-01  0.51100000000E-03 0.  1.
         11    1    4    4    0    0  0.30169231346E-01 -0.24879189053E-01  0.25922778829E-01  0.46919166139E-01  0.51100000000E-03 0. -1.
</event>
<event>
 7    1  0.4081051E+004  0.1043930E+01  0.7957747E-01            NaN
         13   -1    0    0    0    0  0.00000000000E+00  0.00000000000E+00  0.74505805969E-08  0.10566000000E+00  0.10566000000E+00 0.  1.
     999900   -1    0    0    0    0 -0.00000000000E+00 -0.00000000000E+00 -0.74505805969E-08  0.93827000000E+00  0.93827000000E+00 0.  1.
     999903    2    1    2    0    0  0.52924808123E-01  0.58160303685E-01 -0.75741290070E-01  0.11897157717E+00  0.47263483933E-01 0.  0.
         14    1    1    2    0    0 -0.81714366579E-02  0.15422177930E-01  0.35828856457E-01  0.39853769008E-01  0.00000000000E+00 0.  1.
     999901    1    1    2    0    0 -0.44753371465E-01 -0.73582481616E-01  0.39912433613E-01  0.88510465382E+00  0.88000000000E+00 0. -1.
        -11    1    3    3    0    0  0.47273776235E-01  0.17284973859E-01 -0.44904834439E-01  0.67455804182E-01  0.51100000000E-03 0.  1.
         11    1    3    3    0    0  0.56510318882E-02  0.40875329827E-01 -0.30836455630E-01  0.51515772989E-01  0.51100000000E-03 0. -1.
</event>
<event>
 8    1  0.2190295E+004  0.1043930E+01  0.7957747E-01            NaN
         13   -1    0    0    0    0  0.00000000000E+00  0.00000000000E+00  0.74505805969E-08  0.10566000000E+00  0.10566000000E+00 0.  1.
     999900   -1    0    0    0    0 -0.00000000000E+00 -0.00000000000E+00 -0.74505805969E-08  0.93827000000E+00  0.93827000000E+00 0.  1.
     999902    2    1    2    0    0  0.83108722993E-02 -0.50845870401E-02  0.92047685608E-02  0.10305265904E+01  0.10304394219E+01 0.  0.
     999903    2    3    3    0    0 -0.86498187704E-01 -0.53930283506E-01 -0.83432614722E-01  0.13925988248E+00  0.45187406589E-01 0.  0.
         14    1    1    2    0    0 -0.83108722993E-02  0.50845870401E-02 -0.92047685608E-02  0.13403409566E-01  0.00000000000E+00 0. -1.
     999901    1    3    3    0    0  0.94809060004E-01  0.48845696466E-01  0.92637383283E-01  0.89126670795E+00  0.88000000000E+00 0. -1.
        -11    1    4    4    0    0 -0.46947104191E-01 -0.41510657323E-01 -0.73571907787E-01  0.96644979174E-01  0.51100000000E-03 0. -1.
         11    1    4    4    0    0 -0.39551083513E-01 -0.12419626184E-01 -0.98607069358E-02  0.42614903307E-01  0.51100000000E-03 0.  1.
</event>
<event>
 7    1  0.2190295E+004  0.1043930E+01  0.7957747E-01            NaN
         13   -1    0    0    0    0  0.00000000000E+00  0.00000000000E+00  0.74505805969E-08  0.10566000000E+00  0.10566000000E+00 0.  1.
     999900   -1    0    0    0    0 -0.00000000000E+00 -0.00000000000E+00 -0.74505805969E-08  0.93827000000E+00  0.93827000000E+00 0.  1.
     999903    2    1    2    0    0  0.24918579753E-01  0.11380444824E+00 -0.12622732492E-01  0.12523725859E+00  0.44188793904E-01 0.  0.
         14    1    1    2    0    0 -0.29623109420E-01 -0.14565897677E-01 -0.11443255228E-03  0.33010711620E-01  0.00000000000E+00 0. -1.
     999901    1    1    2    0    0  0.47045296667E-02 -0.99238550568E-01  0.12737165044E-01  0.88568202979E+00  0.88000000000E+00 0.  1.
        -11    1    3    3    0    0  0.31191443359E-01  0.87966536291E-01 -0.23909195303E-01  0.96347954762E-01  0.51100000000E-03 0. -1.
         11    1    3    3    0    0 -0.62728636058E-02  0.25837911954E-01  0.11286462811E-01  0.28889303829E-01  0.51100000000E-03 0.  1.
</event>
<event>
 8    1  0.2190295E+004  0.1043930E+01  0.7957747E-01            NaN
         13   -1    0    0    0    0  0.00000000000E+00  0.00000000000E+00  0.74505805969E-08  0.10566000000E+00  0.10566000000E+00 0. -1.
     999900   -1    0    0    0    0 -0.00000000000E+00 -0.00000000000E+00 -0.74505805969E-08  0.93827000000E+00  0.93827000000E+00 0. -1.
     999902    2    1    2    0    0 -0.53970067318E-02 -0.46234263364E-02 -0.11918891187E-01  0.10300532670E+01  0.10299597900E+01 0.  0.
     999903    2    3    3    0    0 -0.84061557990E-01  0.21229457071E-01 -0.10234489788E+00  0.14155265025E+00  0.45228744097E-01 0.  0.
         14    1    1    2    0    0  0.53970067318E-02  0.46234263364E-02  0.11918891187E-01  0.13876733040E-01  0.00000000000E+00 0. -1.
     999901    1    3    3    0    0  0.78664551258E-01 -0.25852883408E-01  0.90426006690E-01  0.88850061671E+00  0.88000000000E+00 0. -1.
        -11    1    4    4    0    0 -0.14191569394E-01  0.23401463230E-01 -0.22530167845E-01  0.35452767273E-01  0.51100000000E-03 0. -1.
         11    1    4    4    0    0 -0.69869988596E-01 -0.21720061585E-02 -0.79814730032E-01  0.10609988298E+00  0.51100000000E-03 0.  1.
</event>
<event>
 8    1  0.2190295E+004  0.1043930E+01  0.7957747E-01            NaN
         13   -1    0    0    0    0  0.00000000000E+00  0.00000000000E+00  0.74505805969E-08  0.10566000000E+00  0.10566000000E+00 0.  1.
     999900   -1    0    0    0    0 -0.00000000000E+00 -0.00000000000E+00 -0.74505805969E-08  0.93827000000E+00  0.93827000000E+00 0.  1.
     999902    2    1    2    0    0  0.10899733975E-01  0.57342192497E-02  0.22513914693E-02  0.10314098469E+01  0.10313338538E+01 0.  0.
     999903    2    3    3    0    0 -0.89265293949E-01  0.47949062009E-02 -0.97521521587E-01  0.14012507233E+00  0.46187713665E-01 0.  0.
         14    1    1    2    0    0 -0.10899733975E-01 -0.57342192497E-02 -0.22513914693E-02  0.12520153141E-01  0.00000000000E+00 0.  1.
     999901    1    3    3    0    0  0.10016502792E+00  0.93931304885E-03  0.99772913056E-01  0.89128477453E+00  0.88000000000E+00 0.  1.
        -11    1    4    4    0    0 -0.28990902639E-01  0.63253674599E-02 -0.65373125328E-01  0.71794075978E-01  0.51100000000E-03 0.  1.
         11    1    4    4    0    0 -0.60274391310E-01 -0.15304612590E-02 -0.32148396259E-01  0.68330996352E-01  0.51100000000E-03 0. -1.
</event>
<event>
 8    1  0.2190295E+004  0.1043930E+01  0.7957747E-01            NaN
         13   -1    0    0    0    0  0.00000000000E+00  0.00000000000E+00  0.74505805969E-08  0.10566000000E+00  0.10566000000E+00 0.  1.
     999900   -1    0    0    0    0 -0.00000000000E+00 -0.00000000000E+00 -0.74505805969E-08  0.93827000000E+00  0.93827000000E+00 0. -1.
     999902    2    1    2    0    0 -0.13975160392E-01 -0.26386434451E-02  0.17966114082E-02  0.10295948907E+01  0.10294950915E+01 0.  0.
     999903    2    3    3    0    0 -0.10422484339E+00  0.50212918277E-01 -0.66726234091E-01  0.14075650647E+00  0.44450519178E-01 0.  0.
         14    1    1    2    0    0  0.13975160392E-01  0.26386434451E-02 -0.17966114082E-02  0.14335109339E-01  0.00000000000E+00 0. -1.
     999901    1    3    3    0    0  0.90249683000E-01 -0.52851561722E-01  0.68522845499E-01  0.88883838419E+00  0.88000000000E+00 0. -1.
        -11    1    4    4    0    0 -0.21522396060E-01 -0.56530319392E-02 -0.32958947823E-02  0.22500985439E-01  0.51100000000E-03 0.  1.
         11    1    4    4    0    0 -0.82702447332E-01  0.55865950216E-01 -0.63430339308E-01  0.11825552103E+00  0.51100000000E-03 0. -1.
</event>
<event>
 8    1  0.2190295E+004  0.1043930E+01  0.7957747E-01            NaN
         13   -1    0    0    0    0  0.00000000000E+00  0.00000000000E+00  0.74505805969E-08  0.10566000000E+00  0.10566000000E+00 0. -1.
     999900   -1    0    0    0    0 -0.00000000000E+00 -0.00000000000E+00 -0.74505805969E-08  0.93827000000E+00  0.93827000000E+00 0. -1.
     999902    2    1    2    0    0 -0.27937907900E-02 -0.13295954487E-01  0.34330812032E-02  0.10299166592E+01  0.10298213201E+01 0.  0.
     999903    2    3    3    0    0  0.67824770491E-02  0.46365592999E-01 -0.12270745416E+00  0.13887084683E+00  0.45080179509E-01 0.  0.
         14    1    1    2    0    0  0.27937907900E-02  0.13295954487E-01 -0.34330812032E-02  0.14013340760E-01  0.00000000000E+00 0.  1.
     999901    1    3    3    0    0 -0.95762678392E-02 -0.59661547486E-01  0.12614053536E+00  0.89104581241E+00  0.88000000000E+00 0.  1.
        -11    1    4    4    0    0 -0.19000184397E-01  0.14144367883E-01 -0.47668334709E-01  0.53231582776E-01  0.51100000000E-03 0.  1.
         11    1    4    4    0    0  0.25782661446E-01  0.32221225116E-01 -0.75039119448E-01  0.85639264054E-01  0.51100000000E-03 0. -1.
</event>
<event>
 8    1  0.2190295E+004  0.1043930E+01  0.7957747E-01            NaN
         13   -1    0    0    0    0  0.00000000000E+00  0.00000000000E+00  0.74505805969E-08  0.10566000000E+00  0.10566000000E+00 0. -1.
     999900   -1    0    0    0    0 -0.00000000000E+00 -0.00000000000E+00 -0.74505805969E-08  0.93827000000E+00  0.93827000000E+00 0. -1.
     999902    2    1    2    0    0 -0.33419338004E-02 -0.12082540602E-03 -0.13831942450E-01  0.10296995484E+01  0.10296012113E+01 0.  0.
     999903    2    3    3    0    0  0.18607723117E-02  0.12713533191E+00  0.34297603398E-01  0.13922908237E+00  0.45183588669E-01 0.  0.
         14    1    1    2    0    0  0.33419338004E-02  0.12082540602E-03  0.13831942450E-01  0.14230451582E-01  0.00000000000E+00 0. -1.
     999901    1    3    3    0    0 -0.52027061121E-02 -0.12725615731E+00 -0.48129545848E-01  0.89047046605E+00  0.88000000000E+00 0.  1.
        -11    1    4    4    0    0  0.17575293709E-01  0.19941532176E-01  0.60282631685E-02  0.27260901165E-01  0.51100000000E-03 0.  1.
         11    1    4    4    0    0 -0.15714521397E-01  0.10719379973E+00  0.28269340230E-01  0.11196818120E+00  0.51100000000E-03 0. -1.
</event>
<event>
 8    1  0.2190295E+004  0.1043930E+01  0.7957747E-01            NaN
         13   -1    0    0    0    0  0.00000000000E+00  0.00000000000E+00  0.74505805969E-08  0.10566000000E+00  0.10566000000E+00 0. -1.
     999900   -1    0    0    0    0 -0.00000000000E+00 -0.00000000000E+00 -0.74505805969E-08  0.93827000000E+00  0.93827000000E+00 0.  1.
     999902    2    1    2    0    0 -0.19126855311E-02 -0.73613475317E-02  0.11757004258E-01  0.10299273234E+01  0.10298321302E+01 0.  0.
     999903    2    3    3    0    0 -0.96186513122E-01 -0.64995156437E-01 -0.63185806563E-01  0.13985674450E+00  0.45730155952E-01 0.  0.
         14    1    1    2    0    0  0.19126855311E-02  0.73613475317E-02 -0.11757004258E-01  0.14002676621E-01  0.00000000000E+00 0.  1.
     999901    1    3    3    0    0  0.94273827591E-01  0.57633808906E-01  0.74942810821E-01  0.89007057888E+00  0.88000000000E+00 0. -1.
        -11    1    4    4    0    0 -0.79322151640E-01 -0.56242408875E-01 -0.69837138038E-01  0.11971925187E+00  0.51100000000E-03 0.  1.
         11    1    4    4    0    0 -0.16864361482E-01 -0.87527475622E-02  0.66513314756E-02  0.20137492631E-01  0.51100000000E-03 0. -1.
</event>
<event>
 8    1  0.2190295E+004  0.1043930E+01  0.7957747E-01            NaN
         13   -1    0    0    0    0  0.00000000000E+00  0.00000000000E+00  0.74505805969E-08  0.10566000000E+00  0.10566000000E+00 0.  1.
     999900   -1    0    0    0    0 -0.00000000000E+00 -0.00000000000E+00 -0.74505805969E-08  0.93827000000E+00  0.93827000000E+00 0.  1.
     999902    2    1    2    0    0 -0.95547690096E-02  0.88568388717E-02 -0.45676464511E-02  0.10301241824E+01  0.10300316648E+01 0.  0.
     999903    2    3    3    0    0 -0.11818432919E+00 -0.15162928402E-01  0.60664480486E-01  0.14072406943E+00  0.43882051662E-01 0.  0.
         14    1    1    2    0    0  0.95547690096E-02 -0.88568388717E-02  0.45676464511E-02  0.13805817605E-01  0.00000000000E+00 0.  1.
     999901    1    3    3    0    0  0.10862956019E+00  0.24019767273E-01 -0.65232126937E-01  0.88940011297E+00  0.88000000000E+00 0.  1.
        -11    1    4    4    0    0 -0.35101784304E-01 -0.94253215075E-02  0.41684472757E-01  0.55306675337E-01  0.51100000000E-03 0. -1.
         11    1    4    4    0    0 -0.83082544891E-01 -0.57376068942E-02  0.18980007729E-01  0.85417394088E-01  0.51100000000E-03 0.  1.
</event>
<event>
 8    1  0.2190295E+004  0.1043930E+01  0.7957747E-01            NaN
         13   -1    0    0    0    0  0.00000000000E+00  0.00000000000E+00  0.74505805969E-08  0.10566000000E+00  0.10566000000E+00 0. -1.
     999900   -1    0    0    0    0 -0.00000000000E+00 -0.00000000000E+00 -0.74505805969E-08  0.93827000000E+00  0.93827000000E+00 0. -1.
     999902    2    1    2    0    0 -0.20522032062E-02  0.12955143851E-01  0.44878118504E-02  0.10300668205E+01  0.10299735273E+01 0.  0.
     999903    2    3    3    0    0 -0.11474472986E+00  0.62671424058E-01  0.31453662836E-01  0.14107949147E+00  0.42661804733E-01 0.  0.
         14    1    1    2    0    0  0.20522032062E-02 -0.12955143851E-01 -0.44878118504E-02  0.13863179484E-01  0.00000000000E+00 0.  1.
     999901    1    3    3    0    0  0.11269252666E+00 -0.49716280207E-01 -0.26965850985E-01  0.88898732904E+00  0.88000000000E+00 0. -1.
        -11    1    4    4    0    0 -0.81659530910E-01  0.64889796189E-01  0.22052290375E-01  0.10660923632E+00  0.51100000000E-03 0. -1.
         11    1    4    4    0    0 -0.33085198954E-01 -0.22183721318E-02  0.94013724606E-02  0.34470255147E-01  0.51100000000E-03 0.  1.
</event>
<event>
 8    1  0.2190295E+004  0.1043930E+01  0.7957747E-01            NaN
         13   -1    0    0    0    0  0.00000000000E+00  0.00000000000E+00  0.74505805969E-08  0.10566000000E+00  0.10566000000E+00 0. -1.
     999900   -1    0    0    0    0 -0.00000000000E+00 -0.00000000000E+00 -0.74505805969E-08  0.93827000000E+00  0.93827000000E+00 0. -1.
     999902    2    1    2    0    0 -0.14490771911E-02  0.77606327397E-02 -0.11524399200E-01  0.10299607831E+01  0.10298660474E+01 0.  0.
     999903    2    3    3    0    0 -0.51886070147E-01 -0.11778624619E+00 -0.32865564732E-01  0.13936471613E+00  0.42149907376E-01 0.  0.
         14    1    1    2    0    0  0.14490771911E-02 -0.77606327397E-02  0.11524399200E-01  0.13969216948E-01  0.00000000000E+00 0. -1.
     999901    1    3    3    0    0  0.50436992956E-01  0.12554687892E+00  0.21341165533E-01  0.89059606692E+00  0.88000000000E+00 0.  1.
        -11    1    4    4    0    0 -0.85814950896E-02 -0.22125520726E-01 -0.24361636140E-01  0.34013690799E-01  0.51100000000E-03 0.  1.
         11    1    4    4    0    0 -0.43304575057E-01 -0.95660725459E-01 -0.85039285926E-02  0.10535102533E+00  0.51100000000E-03 0. -1.
</event>
<event>
 8    1  0.2190295E+004  0.1043930E+01  0.7957747E-01            NaN
         13   -1    0    0    0    0  0.00000000000E+00  0.00000000000E+00  0.74505805969E-08  0.10566000000E+00  0.10566000000E+00 0.  1.
     999900   -1    0    0    0    0 -0.00000000000E+00 -0.00000000000E+00 -0.74505805969E-08  0.93827000000E+00  0.93827000000E+00 0. -1.
     999902    2    1    2    0    0  0.74123644041E-02  0.10561593473E-01 -0.58969622675E-02  0.10297432256E+01  0.10296454954E+01 0.  0.
     999903    2    3    3    0    0  0.21269558643E-01 -0.10321461591E-03  0.12972108804E+00  0.13918271926E+00  0.45736898452E-01 0.  0.
         14    1    1    2    0    0 -0.74123644041E-02 -0.10561593473E-01  0.58969622675E-02  0.14186774360E-01  0.00000000000E+00 0.  1.
     999901    1    3    3    0    0 -0.13857194239E-01  0.10664808089E-01 -0.13561805030E+00  0.89056050638E+00  0.88000000000E+00 0. -1.
        -11    1    4    4    0    0  0.58009164363E-02  0.22153718946E-01  0.50516166573E-01  0.55466946021E-01  0.51100000000E-03 0.  1.
         11    1    4    4    0    0  0.15468642207E-01 -0.22256933562E-01  0.79204921463E-01  0.83715773235E-01  0.51100000000E-03 0. -1.
</event>
<event>
 8    1  0.2190295E+004  0.1043930E+01  0.7957747E-01            NaN
         13   -1    0    0    0    0  0.00000000000E+00  0.00000000000E+00  0.74505805969E-08  0.10566000000E+00  0.10566000000E+00 0. -1.
     999900   -1    0    0    0    0 -0.00000000000E+00 -0.00000000000E+00 -0.74505805969E-08  0.93827000000E+00  0.93827000000E+00 0. -1.
     999902    2    1    2    0    0 -0.15817910182E-02  0.13443409783E-01 -0.39916896002E-02  0.10298175617E+01  0.10297208600E+01 0.  0.
     999903    2    3    3    0    0 -0.12507268465E+00 -0.40472972274E-01  0.13563798865E-01  0.13938779340E+00  0.44314132953E-01 0.  0.
         14    1    1    2    0    0  0.15817910182E-02 -0.13443409783E-01  0.39916896002E-02  0.14112438318E-01  0.00000000000E+00 0. -1.
     999901    1    3    3    0    0  0.12349089363E+00  0.53916382057E-01 -0.17555488465E-01  0.89042976828E+00  0.88000000000E+00 0. -1.
        -11    1    4    4    0    0 -0.94692249380E-01 -0.13044160876E-01 -0.19635635695E-02  0.95607996153E-01  0.51100000000E-03 0.  1.
         11    1    4    4    0    0 -0.30380435270E-01 -0.27428811398E-01  0.15527362434E-01  0.43779797248E-01  0.51100000000E-03 0. -1.
</event>
<event>
 8    1  0.2190295E+004  0.1043930E+01  0.7957747E-01            NaN
         13   -1    0    0    0    0  0.00000000000E+00  0.00000000000E+00  0.74505805969E-08  0.10566000000E+00  0.10566000000E+00 0. -1.
     999900   -1    0    0    0    0 -0.00000000000E+00 -0.00000000000E+00 -0.74505805969E-08  0.93827000000E+00  0.93827000000E+00 0.  1.
     999902    2    1    2    0    0 -0.97903490921E-02 -0.35384481642E-02 -0.91978529413E-02  0.10300385620E+01  0.10299448855E+01 0.  0.
     999903    2    3    3    0    0 -0.14911620954E-02 -0.10446505816E-01  0.12987487008E+00  0.13905156993E+00  0.48543837635E-01 0.  0.
         14    1    1    2    0    0  0.97903490921E-02  0.35384481642E-02  0.91978529413E-02  0.13891437992E-01  0.00000000000E+00 0. -1.
     999901    1    3    3    0    0 -0.82991869968E-02  0.69080576518E-02 -0.13907272302E+00  0.89098699208E+00  0.88000000000E+00 0.  1.
        -11    1    4    4    0    0 -0.13580792472E-01  0.15336749978E-01  0.43128449124E-01  0.47749115897E-01  0.51100000000E-03 0.  1.
         11    1    4    4    0    0  0.12089630377E-01 -0.25783255795E-01  0.86746420959E-01  0.91302454032E-01  0.51100000000E-03 0. -1.
</event>
<event>
 8    1  0.2190295E+004  0.1043930E+01  0.7957747E-01            NaN
         13   -1    0    0    0    0  0.00000000000E+00  0.00000000000E+00  0.74505805969E-08  0.10566000000E+00  0.10566000000E+00 0.  1.
     999900   -1    0    0    0    0 -0.00000000000E+00 -0.00000000000E+00 -0.74505805969E-08  0.93827000000E+00  0.93827000000E+00 0. -1.
     999902    2    1    2    0    0  0.57521338459E-02 -0.93465395740E-02 -0.29224497869E-02  0.10325728191E+01  0.10325103589E+01 0.  0.
     999903    2    3    3    0    0  0.11921520595E+00  0.12339594234E-01 -0.61643206678E-01  0.14308291783E+00  0.48044828336E-01 0.  0.
         14    1    1    2    0    0 -0.57521338459E-02  0.93465395740E-02  0.29224497869E-02  0.11357180924E-01  0.00000000000E+00 0.  1.
     999901    1    3    3    0    0 -0.11346307210E+00 -0.21686133808E-01  0.58720756891E-01  0.88948990125E+00  0.88000000000E+00 0.  1.
        -11    1    4    4    0    0  0.75971891144E-01 -0.15082464500E-01 -0.42969227157E-01  0.88576659358E-01  0.51100000000E-03 0.  1.
         11    1    4    4    0    0  0.43243314803E-01  0.27422058734E-01 -0.18673979521E-01  0.54506258471E-01  0.51100000000E-03 0. -1.
</event>
<event>
 8    1  0.2190295E+004  0.1043930E+01  0.7957747E-01            NaN
         13   -1    0    0    0    0  0.00000000000E+00  0.00000000000E+00  0.74505805969E-08  0.10566000000E+00  0.10566000000E+00 0. -1.
     999900   -1    0    0    0    0 -0.00000000000E+00 -0.00000000000E+00 -0.74505805969E-08  0.93827000000E+00  0.93827000000E+00 0. -1.
     999902    2    1    2    0    0  0.95795368432E-02  0.90142483465E-02  0.43887746876E-02  0.10300632937E+01  0.10299699527E+01 0.  0.
     999903    2    3    3    0    0 -0.11052246755E+00 -0.41537640171E-01 -0.56637755437E-01  0.13837712570E+00  0.44719147924E-01 0.  0.
         14    1    1    2    0    0 -0.95795368432E-02 -0.90142483465E-02 -0.43887746876E-02  0.13866706265E-01  0.00000000000E+00 0.  1.
     999901    1    3    3    0    0  0.12010200439E+00  0.50551888518E-01  0.61026530124E-01  0.89168616804E+00  0.88000000000E+00 0. -1.
        -11    1    4    4    0    0 -0.12620922513E-01 -0.21640454535E-01 -0.19659405261E-01  0.31848866444E-01  0.51100000000E-03 0.  1.
         11    1    4    4    0    0 -0.97901545036E-01 -0.19897185636E-01 -0.36978350176E-01  0.10652825925E+00  0.51100000000E-03 0. -1.
</event>
<event>
 8    1  0.2190295E+004  0.1043930E+01  0.7957747E-01            NaN
         13   -1    0    0    0    0  0.00000000000E+00  0.00000000000E+00  0.74505805969E-08  0.10566000000E+00  0.10566000000E+00 0. -1.
     999900   -1    0    0    0    0 -0.00000000000E+00 -0.00000000000E+00 -0.74505805969E-08  0.93827000000E+00  0.93827000000E+00 0. -1.
     999902    2    1    2    0    0  0.27579081057E-02 -0.47756625286E-02  0.12080687389E-01  0.10306500897E+01  0.10305645304E+01 0.  0.
     999903    2    3    3    0    0 -0.25830209032E-01 -0.96645229658E-01 -0.86864779304E-01  0.13989338713E+00  0.44912913106E-01 0.  0.
         14    1    1    2    0    0 -0.27579081057E-02  0.47756625286E-02 -0.12080687389E-01  0.13279910297E-01  0.00000000000E+00 0.  1.
     999901    1    3    3    0    0  0.28588117138E-01  0.91869567130E-01  0.98945466694E-01  0.89075670258E+00  0.88000000000E+00 0. -1.
        -11    1    4    4    0    0 -0.11573396808E-02 -0.79222016053E-01 -0.58885808070E-01  0.98718117768E-01  0.51100000000E-03 0.  1.
         11    1    4    4    0    0 -0.24672869351E-01 -0.17423213606E-01 -0.27978971234E-01  0.41175269358E-01  0.51100000000E-03 0. -1.
</event>
<event>
 8    1  0.2190295E+004  0.1043930E+01  0.7957747E-01            NaN
         13   -1    0    0    0    0  0.00000000000E+00  0.00000000000E+00  0.74505805969E-08  0.10566000000E+00  0.10566000000E+00 0.  1.
     999900   -1    0    0    0    0 -0.00000000000E+00 -0.00000000000E+00 -0.74505805969E-08  0.93827000000E+00  0.93827000000E+00 0.  1.
     999902    2    1    2    0    0 -0.12871451717E-01 -0.14012315858E-02  0.53300210242E-02  0.10299283271E+01  0.10298331477E+01 0.  0.
     999903    2    3    3    0    0  0.11844979857E+00 -0.46046928898E-01  0.32784323646E-01  0.13864147779E+00  0.44676314117E-01 0.  0.
         14    1    1    2    0    0  0.12871451717E-01  0.14012315858E-02 -0.53300210242E-02  0.14001672878E-01  0.00000000000E+00 0.  1.
     999901    1    3    3    0    0 -0.13132125029E+00  0.44645697312E-01 -0.27454302622E-01  0.89128684934E+00  0.88000000000E+00 0.  1.
        -11    1    4    4    0    0  0.94999447289E-01 -0.24261481351E-01  0.84174456088E-02  0.98410512518E-01  0.51100000000E-03 0.  1.
         11    1    4    4    0    0  0.23450351284E-01 -0.21785447546E-01  0.24366878037E-01  0.40230965268E-01  0.51100000000E-03 0. -1.
</event>
<event>
 8    1  0.2402056E+004  0.1043930E+01  0.7957747E-01            NaN
         13   -1    0    0    0    0  0.00000000000E+00  0.00000000000E+00  0.74505805969E-08  0.10566000000E+00  0.10566000000E+00 0.  1.
     999900   -1    0    0    0    0 -0.00000000000E+00 -0.00000000000E+00 -0.74505805969E-08  0.93827000000E+00  0.93827000000E+00 0.  1.
     999902    2    1    2    0    0 -0.36584913474E-02  0.54123932781E-02  0.11755462437E-01  0.10304812284E+01  0.10303934650E+01 0.  0.
     999903    2    3    3    0    0 -0.54849519802E-02 -0.11860272911E-01 -0.13082066370E+00  0.13883688637E+00  0.44619325351E-01 0.  0.
         14    1    1    2    0    0  0.36584913474E-02 -0.54123932781E-02 -0.11755462437E-01  0.13448771582E-01  0.00000000000E+00 0. -1.
     999901    1    3    3    0    0  0.18264606329E-02  0.17272666189E-01  0.14257612614E+00  0.89164434204E+00  0.88000000000E+00 0. -1.
        -11    1    4    4    0    0  0.14893960659E-01  0.67169388619E-02 -0.72549608429E-01  0.74368367846E-01  0.51100000000E-03 0.  1.
         11    1    4    4    0    0 -0.20378912639E-01 -0.18577211773E-01 -0.58271055272E-01  0.64468518528E-01  0.51100000000E-03 0. -1.
</event>
<event>
 8    1  0.2190295E+004  0.1043930E+01  0.7957747E-01            NaN
         13   -1    0    0    0    0  0.00000000000E+00  0.00000000000E+00  0.74505805969E-08  0.10566000000E+00  0.10566000000E+00 0.  1.
     999900   -1    0    0    0    0 -0.00000000000E+00 -0.00000000000E+00 -0.74505805969E-08  0.93827000000E+00  0.93827000000E+00 0.  1.
     999902    2    1    2    0    0 -0.23480499657E-02  0.13189129410E-01  0.68912518554E-02  0.10288649469E+01  0.10287546467E+01 0.  0.
     999903    2    3    3    0    0 -0.11102604835E+00 -0.65341666491E-01  0.24951393990E-01  0.13852559474E+00  0.44389768482E-01 0.  0.
         14    1    1    2    0    0  0.23480499657E-02 -0.13189129410E-01 -0.68912518554E-02  0.15065053116E-01  0.00000000000E+00 0. -1.
     999901    1    3    3    0    0  0.10867799838E+00  0.78530795901E-01 -0.18060142135E-01  0.89033935214E+00  0.88000000000E+00 0.  1.
        -11    1    4    4    0    0 -0.92452458747E-01 -0.38347154133E-01  0.51215980504E-02  0.10022201977E+00  0.51100000000E-03 0.  1.
         11    1    4    4    0    0 -0.18573589599E-01 -0.26994512358E-01  0.19829795940E-01  0.38303574977E-01  0.51100000000E-03 0. -1.
</event>
<event>
 8    1  0.2190295E+004  0.1043930E+01  0.7957747E-01            NaN
         13   -1    0    0    0    0  0.00000000000E+00  0.00000000000E+00  0.74505805969E-08  0.10566000000E+00  0.10566000000E+00 0.  1.
     999900   -1    0    0    0    0 -0.00000000000E+00 -0.00000000000E+00 -0.74505805969E-08  0.93827000000E+00  0.93827000000E+00 0. -1.
     999902    2    1    2    0    0 -0.10191196343E-01  0.35989064303E-02  0.91637516677E-02  0.10297600686E+01  0.10296625719E+01 0.  0.
     999903    2    3    3    0    0  0.88000085881E-01  0.41891279992E-01 -0.80799845148E-01  0.13891705074E+00  0.57187739552E-01 0.  0.
         14    1    1    2    0    0  0.10191196343E-01 -0.35989064303E-02 -0.91637516677E-02  0.14169931369E-01  0.00000000000E+00 0. -1.
     999901    1    3    3    0    0 -0.98191282224E-01 -0.38292373562E-01  0.89963596816E-01  0.89084301789E+00  0.88000000000E+00 0.  1.
        -11    1    4    4    0    0  0.63256740782E-01 -0.41022243474E-04 -0.54934991031E-01  0.83782643177E-01  0.51100000000E-03 0. -1.
         11    1    4    4    0    0  0.24743345099E-01  0.41932302236E-01 -0.25864854117E-01  0.55134407560E-01  0.51100000000E-03 0.  1.
</event>
<event>
 8    1  0.2190295E+004  0.1043930E+01  0.7957747E-01            NaN
         13   -1    0    0    0    0  0.00000000000E+00  0.00000000000E+00  0.74505805969E-08  0.10566000000E+00  0.10566000000E+00 0. -1.
     999900   -1    0    0    0    0 -0.00000000000E+00 -0.00000000000E+00 -0.74505805969E-08  0.93827000000E+00  0.93827000000E+00 0.  1.
     999902    2    1    2    0    0 -0.57448573557E-02 -0.34115042353E-02 -0.12232473207E-01  0.10299917380E+01  0.10298974246E+01 0.  0.
     999903    2    3    3    0    0 -0.45781730454E-01  0.10646110533E+00  0.60751964479E-01  0.13926076307E+00  0.47674155994E-01 0.  0.
         14    1    1    2    0    0  0.57448573557E-02  0.34115042353E-02  0.12232473207E-01  0.13938262013E-01  0.00000000000E+00 0. -1.
     999901    1    3    3    0    0  0.40036873098E-01 -0.10987260957E+00 -0.72984437686E-01  0.89073097492E+00  0.88000000000E+00 0.  1.
        -11    1    4    4    0    0 -0.21394851358E-01  0.23426735855E-01 -0.28530440871E-02  0.31858320718E-01  0.51100000000E-03 0. -1.
         11    1    4    4    0    0 -0.24386879096E-01  0.83034369477E-01  0.63605008566E-01  0.10740244235E+00  0.51100000000E-03 0.  1.
</event>
<event>
 8    1  0.2190295E+004  0.1043930E+01  0.7957747E-01            NaN
         13   -1    0    0    0    0  0.00000000000E+00  0.00000000000E+00  0.74505805969E-08  0.10566000000E+00  0.10566000000E+00 0. -1.
     999900   -1    0    0    0    0 -0.00000000000E+00 -0.00000000000E+00 -0.74505805969E-08  0.93827000000E+00  0.93827000000E+00 0. -1.
     999902    2    1    2    0    0  0.39259620657E-02  0.86324851134E-03 -0.11242902463E-01  0.10319900992E+01  0.10319210258E+01 0.  0.
     999903    2    3    3    0    0  0.71431687829E-01  0.44364275493E-02  0.11234315809E+00  0.14078680867E+00  0.45582588902E-01 0.  0.
         14    1    1    2    0    0 -0.39259620657E-02 -0.86324851134E-03  0.11242902463E-01  0.11939900834E-01  0.00000000000E+00 0. -1.
     999901    1    3    3    0    0 -0.67505725763E-01 -0.35731790380E-02 -0.12358606056E+00  0.89120329049E+00  0.88000000000E+00 0. -1.
        -11    1    4    4    0    0  0.13603889301E-01 -0.10346447696E-01  0.47514728009E-02  0.17746898287E-01  0.51100000000E-03 0.  1.
         11    1    4    4    0    0  0.57827798528E-01  0.14782875246E-01  0.10759168529E+00  0.12303991039E+00  0.51100000000E-03 0. -1.
</event>
<event>
 8    1  0.2190295E+004  0.1043930E+01  0.7957747E-01            NaN
         13   -1    0    0    0    0  0.00000000000E+00  0.00000000000E+00  0.74505805969E-08  0.10566000000E+00  0.10566000000E+00 0. -1.
     999900   -1    0    0    0    0 -0.00000000000E+00 -0.00000000000E+00 -0.74505805969E-08  0.93827000000E+00  0.93827000000E+00 0.  1.
     999902    2    1    2    0    0  0.11356721854E-01 -0.28232715979E-03  0.81106759097E-02  0.10299715651E+01  0.10298769767E+01 0.  0.
     999903    2    3    3    0    0  0.61790829668E-02 -0.11788929889E+00 -0.59010511149E-01  0.13959891198E+00  0.45492284410E-01 0.  0.
         14    1    1    2    0    0 -0.11356721854E-01  0.28232715979E-03 -0.81106759097E-02  0.13958434855E-01  0.00000000000E+00 0. -1.
     999901    1    3    3    0    0  0.51776388870E-02  0.11760697173E+00  0.67121187059E-01  0.89037265316E+00  0.88000000000E+00 0. -1.
        -11    1    4    4    0    0  0.18302836292E-01 -0.78464090744E-01 -0.20438071654E-01  0.83123902980E-01  0.51100000000E-03 0. -1.
         11    1    4    4    0    0 -0.12123753326E-01 -0.39425208150E-01 -0.38572439495E-01  0.56475009004E-01  0.51100000000E-03 0.  1.
</event>
<event>
 8    1  0.2190295E+004  0.1043930E+01  0.7957747E-01            NaN
         13   -1    0    0    0    0  0.00000000000E+00  0.00000000000E+00  0.74505805969E-08  0.10566000000E+00  0.10566000000E+00 0.  1.
     999900   -1    0    0    0    0 -0.00000000000E+00 -0.00000000000E+00 -0.74505805969E-08  0.93827000000E+00  0.93827000000E+00 0.  1.
     999902    2    1    2    0    0  0.16327640192E-01 -0.16920846786E-01  0.63500699731E-02  0.10195736809E+01  0.10192827187E+01 0.  0.
     999903    2    3    3    0    0  0.10173906163E+00 -0.12728628651E-01 -0.70007742243E-01  0.13213737274E+00  0.45236563198E-01 0.  0.
         14    1    1    2    0    0 -0.16327640192E-01  0.16920846786E-01 -0.63500699731E-02  0.24356319074E-01  0.00000000000E+00 0. -1.
     999901    1    3    3    0    0 -0.85411421443E-01 -0.41922181350E-02  0.76357812216E-01  0.88743630819E+00  0.88000000000E+00 0. -1.
        -11    1    4    4    0    0  0.72617970469E-01 -0.16533447967E-01 -0.70791068159E-01  0.10275388552E+00  0.51100000000E-03 0.  1.
         11    1    4    4    0    0  0.29121091166E-01  0.38048193159E-02  0.78332591530E-03  0.29383487220E-01  0.51100000000E-03 0. -1.
</event>
<event>
 8    1  0.2190295E+004  0.1043930E+01  0.7957747E-01            NaN
         13   -1    0    0    0    0  0.00000000000E+00  0.00000000000E+00  0.74505805969E-08  0.10566000000E+00  0.10566000000E+00 0.  1.
     999900   -1    0    0    0    0 -0.00000000000E+00 -0.00000000000E+00 -0.74505805969E-08  0.93827000000E+00  0.93827000000E+00 0.  1.
     999902    2    1    2    0    0  0.28768747298E-02  0.33686545792E-02  0.13221672230E-01  0.10299859382E+01  0.10298915458E+01 0.  0.
     999903    2    3    3    0    0 -0.11671516256E+00  0.88911364777E-02  0.63273084716E-01  0.14047039757E+00  0.45021859871E-01 0.  0.
         14    1    1    2    0    0 -0.28768747298E-02 -0.33686545792E-02 -0.13221672230E-01  0.13944061763E-01  0.00000000000E+00 0. -1.
     999901    1    3    3    0    0  0.11959203729E+00 -0.55224818985E-02 -0.50051412486E-01  0.88951554066E+00  0.88000000000E+00 0.  1.
        -11    1    4    4    0    0 -0.19126658569E-01  0.32349407553E-02  0.32741061177E-01  0.38059586410E-01  0.51100000000E-03 0.  1.
         11    1    4    4    0    0 -0.97588503989E-01  0.56561957224E-02  0.30532023540E-01  0.10241081116E+00  0.51100000000E-03 0. -1.
</event>
<event>
 8    1  0.2190295E+004  0.1043930E+01  0.7957747E-01            NaN
         13   -1    0    0    0    0  0.00000000000E+00  0.00000000000E+00  0.74505805969E-08  0.10566000000E+00  0.10566000000E+00 0. -1.
     999900   -1    0    0    0    0 -0.00000000000E+00 -0.00000000000E+00 -0.74505805969E-08  0.93827000000E+00  0.93827000000E+00 0. -1.
     999902    2    1    2    0    0 -0.40785939469E-02  0.81682122380E-02 -0.11428618186E-01  0.10293023572E+01  0.10291984136E+01 0.  0.
     999903    2    3    3    0    0 -0.25938664715E-01 -0.15992739401E-01  0.12706243867E+00  0.13787575502E+00  0.44003164203E-01 0.  0.
         14    1    1    2    0    0  0.40785939469E-02 -0.81682122380E-02  0.11428618186E-01  0.14627642783E-01  0.00000000000E+00 0. -1.
     999901    1    3    3    0    0  0.21860070768E-01  0.24160951639E-01 -0.13849105686E+00  0.89142660220E+00  0.88000000000E+00 0. -1.
        -11    1    4    4    0    0 -0.26735433721E-01  0.69149923734E-02  0.91375256207E-01  0.95458363194E-01  0.51100000000E-03 0. -1.
         11    1    4    4    0    0  0.79676900578E-03 -0.22907731774E-01  0.35687182465E-01  0.42417391824E-01  0.51100000000E-03 0.  1.
</event>
<event>
 8    1  0.2190295E+004  0.1043930E+01  0.7957747E-01            NaN
         13   -1    0    0    0    0  0.00000000000E+00  0.00000000000E+00  0.74505805969E-08  0.10566000000E+00  0.10566000000E+00 0.  1.
     999900   -1    0    0    0    0 -0.00000000000E+00 -0.00000000000E+00 -0.74505805969E-08  0.93827000000E+00  0.93827000000E+00 0.  1.
     999902    2    1    2    0    0  0.72414940895E-02 -0.11741534438E-01  0.35181732644E-02  0.10296934130E+01  0.10295949904E+01 0.  0.
     999903    2    3    3    0    0 -0.70858180414E-02 -0.71955413031E-01 -0.11094828595E+00  0.14012410518E+00  0.45797952099E-01 0.  0.
         14    1    1    2    0    0 -0.72414940895E-02  0.11741534438E-01 -0.35181732644E-02  0.14236587046E-01  0.00000000000E+00 0. -1.
     999901    1    3    3    0    0  0.14327312131E-01  0.60213878593E-01  0.11446645921E+00  0.88956930777E+00  0.88000000000E+00 0. -1.
        -11    1    4    4    0    0 -0.10334685158E-01 -0.59179589627E-01 -0.51194672524E-01  0.78931521977E-01  0.51100000000E-03 0. -1.
         11    1    4    4    0    0  0.32488671164E-02 -0.12775823404E-01 -0.59753613422E-01  0.61192583204E-01  0.51100000000E-03 0.  1.
</event>
<event>
 8    1  0.2190295E+004  0.1043930E+01  0.7957747E-01            NaN
         13   -1    0    0    0    0  0.00000000000E+00  0.00000000000E+00  0.74505805969E-08  0.10566000000E+00  0.10566000000E+00 0. -1.
     999900   -1    0    0    0    0 -0.00000000000E+00 -0.00000000000E+00 -0.74505805969E-08  0.93827000000E+00  0.93827000000E+00 0.  1.
     999902    2    1    2    0    0 -0.13682304066E-02  0.82337729282E-02 -0.11332745239E-01  0.10298552643E+01  0.10297590821E+01 0.  0.
     999903    2    3    3    0    0  0.10745296776E+00 -0.22338914026E-01  0.71960402832E-01  0.13872424648E+00  0.44954973326E-01 0.  0.
         14    1    1    2    0    0  0.13682304066E-02 -0.82337729282E-02  0.11332745239E-01  0.14074735725E-01  0.00000000000E+00 0. -1.
     999901    1    3    3    0    0 -0.10882119816E+00  0.30572686954E-01 -0.83293148071E-01  0.89113101779E+00  0.88000000000E+00 0.  1.
        -11    1    4    4    0    0  0.43506018237E-01 -0.16595183989E-01  0.55487721702E-01  0.72438402351E-01  0.51100000000E-03 0. -1.
         11    1    4    4    0    0  0.63946949519E-01 -0.57437300372E-02  0.16472681130E-01  0.66285844131E-01  0.51100000000E-03 0.  1.
</event>
<event>
 8    1  0.2190295E+004  0.1043930E+01  0.7957747E-01            NaN
         13   -1    0    0    0    0  0.00000000000E+00  0.00000000000E+00  0.74505805969E-08  0.10566000000E+00  0.10566000000E+00 0. -1.
     999900   -1    0    0    0    0 -0.00000000000E+00 -0.00000000000E+00 -0.74505805969E-08  0.93827000000E+00  0.93827000000E+00 0. -1.
     999902    2    1    2    0    0  0.12814155465E-02  0.11995805795E-01  0.67854132752E-02  0.10300886411E+01  0.10299956434E+01 0.  0.
     999903    2    3    3    0    0 -0.10392896366E+00  0.13428693973E-01 -0.80625989024E-01  0.13952026625E+00  0.44539816769E-01 0.  0.
         14    1    1    2    0    0 -0.12814155465E-02 -0.11995805795E-01 -0.67854132752E-02  0.13841358885E-01  0.00000000000E+00 0. -1.
     999901    1    3    3    0    0  0.10521037921E+00 -0.14328881779E-02  0.87411402299E-01  0.89056837487E+00  0.88000000000E+00 0. -1.
        -11    1    4    4    0    0 -0.85752102542E-01  0.16233920374E-01 -0.42258264339E-01  0.96968991368E-01  0.51100000000E-03 0. -1.
         11    1    4    4    0    0 -0.18176861122E-01 -0.28052264016E-02 -0.38367724684E-01  0.42551274879E-01  0.51100000000E-03 0.  1.
</event>
<event>
 8    1  0.2190295E+004  0.1043930E+01  0.7957747E-01            NaN
         13   -1    0    0    0    0  0.00000000000E+00  0.00000000000E+00  0.74505805969E-08  0.10566000000E+00  0.10566000000E+00 0.  1.
     999900   -1    0    0    0    0 -0.00000000000E+00 -0.00000000000E+00 -0.74505805969E-08  0.93827000000E+00  0.93827000000E+00 0. -1.
     999902    2    1    2    0    0 -0.11958228384E-02  0.60600009244E-02 -0.11252236509E-01  0.10310938623E+01  0.10310139604E+01 0.  0.
     999903    2    3    3    0    0  0.77435983451E-01 -0.10113033816E-01 -0.10982265072E+00  0.14195908371E+00  0.44640361245E-01 0.  0.
         14    1    1    2    0    0  0.11958228384E-02 -0.60600009244E-02  0.11252236509E-01  0.12836137656E-01  0.00000000000E+00 0.  1.
     999901    1    3    3    0    0 -0.78631806289E-01  0.16173034741E-01  0.98570414209E-01  0.88913477863E+00  0.88000000000E+00 0.  1.
        -11    1    4    4    0    0  0.68788329920E-01  0.28717704567E-02 -0.65742111258E-01  0.95196469013E-01  0.51100000000E-03 0. -1.
         11    1    4    4    0    0  0.86476535306E-02 -0.12984804273E-01 -0.44080539460E-01  0.46762614701E-01  0.51100000000E-03 0.  1.
</event>
<event>
 8    1  0.2190295E+004  0.1043930E+01  0.7957747E-01            NaN
         13   -1    0    0    0    0  0.00000000000E+00  0.00000000000E+00  0.74505805969E-08  0.10566000000E+00  0.10566000000E+00 0.  1.
     999900   -1    0    0    0    0 -0.00000000000E+00 -0.00000000000E+00 -0.74505805969E-08  0.93827000000E+00  0.93827000000E+00 0. -1.
     999902    2    1    2    0    0 -0.36526213810E-02  0.11276191658E-01  0.71569349373E-02  0.10300838504E+01  0.10299907878E+01 0.  0.
     999903    2    3    3    0    0  0.25180471323E-01 -0.10256742863E+00 -0.78424834471E-01  0.13816683835E+00  0.42255023444E-01 0.  0.
         14    1    1    2    0    0  0.36526213810E-02 -0.11276191658E-01 -0.71569349373E-02  0.13846149607E-01  0.00000000000E+00 0.  1.
     999901    1    3    3    0    0 -0.28833092704E-01  0.11384362029E+00  0.85581769408E-01  0.89191701204E+00  0.88000000000E+00 0.  1.
        -11    1    4    4    0    0  0.31360669240E-01 -0.40301269588E-01 -0.32225207503E-01  0.60385503436E-01  0.51100000000E-03 0.  1.
         11    1    4    4    0    0 -0.61801979176E-02 -0.62266159042E-01 -0.46199626969E-01  0.77781334915E-01  0.51100000000E-03 0. -1.
</event>
<event>
 8    1  0.2190295E+004  0.1043930E+01  0.7957747E-01            NaN
         13   -1    0    0    0    0  0.00000000000E+00  0.00000000000E+00  0.74505805969E-08  0.10566000000E+00  0.10566000000E+00 0. -1.
     999900   -1    0    0    0    0 -0.00000000000E+00 -0.00000000000E+00 -0.74505805969E-08  0.93827000000E+00  0.93827000000E+00 0.  1.
     999902    2    1    2    0    0  0.53922590822E-02  0.73572900835E-02 -0.96912176782E-02  0.10306211355E+01  0.10305352003E+01 0.  0.
     999903    2    3    3    0    0 -0.57721620626E-01  0.12015775930E+00 -0.13461755010E-01  0.14117101059E+00  0.44478790183E-01 0.  0.
         14    1    1    2    0    0 -0.53922590822E-02 -0.73572900835E-02  0.96912176782E-02  0.13308864545E-01  0.00000000000E+00 0. -1.
     999901    1    3    3    0    0  0.63113879708E-01 -0.11280046922E+00  0.37705373320E-02  0.88945012486E+00  0.88000000000E+00 0. -1.
        -11    1    4    4    0    0 -0.19989995267E-01  0.36647067416E-01 -0.25227998968E-01  0.48778279120E-01  0.51100000000E-03 0.  1.
         11    1    4    4    0    0 -0.37731625359E-01  0.83510691883E-01  0.11766243958E-01  0.92392731473E-01  0.51100000000E-03 0. -1.
</event>
<event>
 8    1  0.2190295E+004  0.1043930E+01  0.7957747E-01            NaN
         13   -1    0    0    0    0  0.00000000000E+00  0.00000000000E+00  0.74505805969E-08  0.10566000000E+00  0.10566000000E+00 0. -1.
     999900   -1    0    0    0    0 -0.00000000000E+00 -0.00000000000E+00 -0.74505805969E-08  0.93827000000E+00  0.93827000000E+00 0.  1.
     999902    2    1    2    0    0  0.82880785568E-02  0.70664616944E-02 -0.85994070027E-02  0.10300527911E+01  0.10299593077E+01 0.  0.
     999903    2    3    3    0    0 -0.84041553435E-01  0.26353307866E-01 -0.99515278928E-01  0.14035484280E+00  0.45152094280E-01 0.  0.
         14    1    1    2    0    0 -0.82880785568E-02 -0.70664616944E-02  0.85994070027E-02  0.13877208936E-01  0.00000000000E+00 0. -1.
     999901    1    3    3    0    0  0.92329631991E-01 -0.19286846172E-01  0.90915871926E-01  0.88969794826E+00  0.88000000000E+00 0. -1.
        -11    1    4    4    0    0 -0.61817037217E-01 -0.30026683693E-02 -0.57406997423E-01  0.84416743492E-01  0.51100000000E-03 0.  1.
         11    1    4    4    0    0 -0.22224516218E-01  0.29355976235E-01 -0.42108281505E-01  0.55938099308E-01  0.51100000000E-03 0. -1.
</event>
<event>
 8    1  0.2190295E+004  0.1043930E+01  0.7957747E-01            NaN
         13   -1    0    0    0    0  0.00000000000E+00  0.00000000000E+00  0.74505805969E-08  0.10566000000E+00  0.10566000000E+00 0. -1.
     999900   -1    0    0    0    0 -0.00000000000E+00 -0.00000000000E+00 -0.74505805969E-08  0.93827000000E+00  0.93827000000E+00 0.  1.
     999902    2    1    2    0    0  0.15171636040E-02  0.13170990065E-01 -0.38634256700E-02  0.10301204807E+01  0.10300279132E+01 0.  0.
     999903    2    3    3    0    0 -0.97512477991E-01 -0.22541551187E-01 -0.86471304140E-01  0.14000457979E+00  0.45904150442E-01 0.  0.
         14    1    1    2    0    0 -0.15171636040E-02 -0.13170990065E-01  0.38634256700E-02  0.13809519275E-01  0.00000000000E+00 0.  1.
     999901    1    3    3    0    0  0.99029641595E-01  0.35712541253E-01  0.82607878470E-01  0.89011590094E+00  0.88000000000E+00 0. -1.
        -11    1    4    4    0    0 -0.93281723821E-01 -0.20161262508E-01 -0.59215521710E-01  0.11231516210E+00  0.51100000000E-03 0. -1.
         11    1    4    4    0    0 -0.42307541702E-02 -0.23802886793E-02 -0.27255782429E-01  0.27689417688E-01  0.51100000000E-03 0.  1.
</event>
<event>
 7    1  0.2875538E+004  0.1043930E+01  0.7957747E-01            NaN
         13   -1    0    0    0    0  0.00000000000E+00  0.00000000000E+00  0.74505805969E-08  0.10566000000E+00  0.10566000000E+00 0.  1.
     999900   -1    0    0    0    0 -0.00000000000E+00 -0.00000000000E+00 -0.74505805969E-08  0.93827000000E+00  0.93827000000E+00 0.  1.
     999903    2    1    2    0    0 -0.41154196667E-01 -0.87246454318E-01  0.55558828125E-01  0.11995052902E+00  0.44673642509E-01 0.  0.
         14    1    1    2    0    0  0.36047881981E-01 -0.60782194430E-02 -0.98010893711E-02  0.37847799140E-01  0.00000000000E+00 0. -1.
     999901    1    1    2    0    0  0.51063146862E-02  0.93324673761E-01 -0.45757738754E-01  0.88613167184E+00  0.88000000000E+00 0.  1.
        -11    1    3    3    0    0  0.10660829097E-02 -0.48785302655E-01  0.30755083131E-01  0.57682567101E-01  0.51100000000E-03 0.  1.
         11    1    3    3    0    0 -0.42220279577E-01 -0.38461151664E-01  0.24803744993E-01  0.62267961919E-01  0.51100000000E-03 0. -1.
</event>
<event>
 8    1  0.2190295E+004  0.1043930E+01  0.7957747E-01            NaN
         13   -1    0    0    0    0  0.00000000000E+00  0.00000000000E+00  0.74505805969E-08  0.10566000000E+00  0.10566000000E+00 0.  1.
     999900   -1    0    0    0    0 -0.00000000000E+00 -0.00000000000E+00 -0.74505805969E-08  0.93827000000E+00  0.93827000000E+00 0. -1.
     999902    2    1    2    0    0  0.25600995097E-02 -0.88469514156E-03 -0.12057553288E-01  0.10315719505E+01  0.10314979243E+01 0.  0.
     999903    2    3    3    0    0 -0.27313404133E-01 -0.95070140764E-01  0.88328385768E-01  0.14037014335E+00  0.46016515536E-01 0.  0.
         14    1    1    2    0    0 -0.25600995097E-02  0.88469514156E-03  0.12057553288E-01  0.12358049453E-01  0.00000000000E+00 0.  1.
     999901    1    3    3    0    0  0.29873503642E-01  0.94185445623E-01 -0.10038593906E+00  0.89120180719E+00  0.88000000000E+00 0. -1.
        -11    1    4    4    0    0  0.62073619833E-02 -0.22053630861E-01  0.41412679171E-01  0.47330382357E-01  0.51100000000E-03 0.  1.
         11    1    4    4    0    0 -0.33520766116E-01 -0.73016509904E-01  0.46915706597E-01  0.93039760995E-01  0.51100000000E-03 0. -1.
</event>
<event>
 8    1  0.2190295E+004  0.1043930E+01  0.7957747E-01            NaN
         13   -1    0    0    0    0  0.00000000000E+00  0.00000000000E+00  0.74505805969E-08  0.10566000000E+00  0.10566000000E+00 0.  1.
     999900   -1    0    0    0    0 -0.00000000000E+00 -0.00000000000E+00 -0.74505805969E-08  0.93827000000E+00  0.93827000000E+00 0. -1.
     999902    2    1    2    0    0 -0.44913033089E-02 -0.77659135630E-02 -0.83048529037E-02  0.10317049519E+01  0.10316325198E+01 0.  0.
     999903    2    3    3    0    0 -0.40538373700E-01  0.96343713702E-01  0.81562747657E-01  0.14029349170E+00  0.45872770750E-01 0.  0.
         14    1    1    2    0    0  0.44913033089E-02  0.77659135630E-02  0.83048529037E-02  0.12225048083E-01  0.00000000000E+00 0.  1.
     999901    1    3    3    0    0  0.36047070391E-01 -0.10410962727E+00 -0.89867600560E-01  0.89141146022E+00  0.88000000000E+00 0. -1.
        -11    1    4    4    0    0  0.56559854435E-02  0.23765146968E-01  0.34357579529E-01  0.42160132516E-01  0.51100000000E-03 0. -1.
         11    1    4    4    0    0 -0.46194359143E-01  0.72578566735E-01  0.47205168128E-01  0.98133359185E-01  0.51100000000E-03 0.  1.
</event>
<event>
 8    1  0.2190295E+004  0.1043930E+01  0.7957747E-01            NaN
         13   -1    0    0    0    0  0.00000000000E+00  0.00000000000E+00  0.74505805969E-08  0.10566000000E+00  0.10566000000E+00 0. -1.
     999900   -1    0    0    0    0 -0.00000000000E+00 -0.00000000000E+00 -0.74505805969E-08  0.93827000000E+00  0.93827000000E+00 0.  1.
     999902    2    1    2    0    0  0.90307906975E-02  0.55531163383E-02  0.87986922441E-02  0.10301528716E+01  0.10300607407E+01 0.  0.
     999903    2    3    3    0    0 -0.70070020046E-01 -0.46436689000E-01 -0.10015867690E+00  0.13839528884E+00  0.45335655082E-01 0.  0.
         14    1    1    2    0    0 -0.90307906975E-02 -0.55531163383E-02 -0.87986922441E-02  0.13777128398E-01  0.00000000000E+00 0.  1.
     999901    1    3    3    0    0  0.79100810744E-01  0.51989805339E-01  0.10895736914E+00  0.89175758276E+00  0.88000000000E+00 0. -1.
        -11    1    4    4    0    0 -0.35385109169E-01 -0.45396994577E-01 -0.44302275011E-01  0.72635705818E-01  0.51100000000E-03 0.  1.
         11    1    4    4    0    0 -0.34684910878E-01 -0.10396944233E-02 -0.55856401884E-01  0.65759583025E-01  0.51100000000E-03 0. -1.
</event>
<event>
 7    1  0.2190295E+004  0.1043930E+01  0.7957747E-01            NaN
         13   -1    0    0    0    0  0.00000000000E+00  0.00000000000E+00  0.74505805969E-08  0.10566000000E+00  0.10566000000E+00 0.  1.
     999900   -1    0    0    0    0 -0.00000000000E+00 -0.00000000000E+00 -0.74505805969E-08  0.93827000000E+00  0.93827000000E+00 0. -1.
     999903    2    1    2    0    0 -0.88363700980E-01 -0.44927145025E-01  0.36736372310E-01  0.11498347503E+00  0.45222190011E-01 0.  0.
         14    1    1    2    0    0  0.20784723375E-01  0.40540026224E-01 -0.40931342743E-02  0.45741143407E-01  0.00000000000E+00 0.  1.
     999901    1    1    2    0    0  0.67578977606E-01  0.43871188012E-02 -0.32643238036E-01  0.88320538156E+00  0.88000000000E+00 0. -1.
        -11    1    3    3    0    0 -0.34229617526E-01 -0.22297495369E-02 -0.45700803493E-02  0.34609034288E-01  0.51100000000E-03 0.  1.
         11    1    3    3    0    0 -0.54134083455E-01 -0.42697395488E-01  0.41306452659E-01  0.80374440746E-01  0.51100000000E-03 0. -1.
</event>
<event>
 8    1  0.2190295E+004  0.1043930E+01  0.7957747E-01            NaN
         13   -1    0    0    0    0  0.00000000000E+00  0.00000000000E+00  0.74505805969E-08  0.10566000000E+00  0.10566000000E+00 0. -1.
     999900   -1    0    0    0    0 -0.00000000000E+00 -0.00000000000E+00 -0.74505805969E-08  0.93827000000E+00  0.93827000000E+00 0. -1.
     999902    2    1    2    0    0 -0.32851873215E-02  0.10200833789E-01 -0.89437293184E-02  0.10299714987E+01  0.10298769093E+01 0.  0.
     999903    2    3    3    0    0 -0.45707509208E-01 -0.54714727687E-01  0.10989695918E+00  0.13860356522E+00  0.45284973550E-01 0.  0.
         14    1    1    2    0    0  0.32851873215E-02 -0.10200833789E-01  0.89437293184E-02  0.13958501347E-01  0.00000000000E+00 0. -1.
     999901    1    3    3    0    0  0.42422321887E-01  0.64915561476E-01 -0.11884068850E+00  0.89136793344E+00  0.88000000000E+00 0. -1.
        -11    1    4    4    0    0 -0.18289193104E-01 -0.42625239227E-01  0.35545647700E-01  0.58439368537E-01  0.51100000000E-03 0. -1.
         11    1    4    4    0    0 -0.27418316105E-01 -0.12089488460E-01  0.74351311482E-01  0.80164196680E-01  0.51100000000E-03 0.  1.
</event>
<event>
 8    1  0.2190295E+004  0.1043930E+01  0.7957747E-01            NaN
         13   -1    0    0    0    0  0.00000000000E+00  0.00000000000E+00  0.74505805969E-08  0.10566000000E+00  0.10566000000E+00 0.  1.
     999900   -1    0    0    0    0 -0.00000000000E+00 -0.00000000000E+00 -0.74505805969E-08  0.93827000000E+00  0.93827000000E+00 0. -1.
     999902    2    1    2    0    0 -0.25834752649E-01 -0.25548285775E-02 -0.20326478350E-02  0.10178897763E+01  0.10175566340E+01 0.  0.
     999903    2    3    3    0    0 -0.44606173295E-01  0.11228792524E+00  0.16750447708E-01  0.13003053688E+00  0.45045245831E-01 0.  0.
         14    1    1    2    0    0  0.25834752649E-01  0.25548285775E-02  0.20326478350E-02  0.26040223708E-01  0.00000000000E+00 0. -1.
     999901    1    3    3    0    0  0.18771420646E-01 -0.11484275381E+00 -0.18783095543E-01  0.88785923942E+00  0.88000000000E+00 0. -1.
        -11    1    4    4    0    0  0.77635668788E-02  0.18552184044E-01  0.99431411308E-02  0.22440670223E-01  0.51100000000E-03 0.  1.
         11    1    4    4    0    0 -0.52369740174E-01  0.93735741193E-01  0.68073065774E-02  0.10758986665E+00  0.51100000000E-03 0. -1.
</event>
<event>
 8    1  0.2190295E+004  0.1043930E+01  0.7957747E-01            NaN
         13   -1    0    0    0    0  0.00000000000E+00  0.00000000000E+00  0.74505805969E-08  0.10566000000E+00  0.10566000000E+00 0. -1.
     999900   -1    0    0    0    0 -0.00000000000E+00 -0.00000000000E+00 -0.74505805969E-08  0.93827000000E+00  0.93827000000E+00 0. -1.
     999902    2    1    2    0    0  0.11790329339E-02  0.11345486957E-01  0.87498235361E-02  0.10295539920E+01  0.10294536186E+01 0.  0.
     999903    2    3    3    0    0  0.24213965993E-01  0.12485238130E+00 -0.39417020531E-01  0.14065890933E+00  0.45351890815E-01 0.  0.
         14    1    1    2    0    0 -0.11790329339E-02 -0.11345486957E-01 -0.87498235361E-02  0.14376007960E-01  0.00000000000E+00 0.  1.
     999901    1    3    3    0    0 -0.23034933059E-01 -0.11350689434E+00  0.48166844067E-01  0.88889508271E+00  0.88000000000E+00 0.  1.
        -11    1    4    4    0    0  0.19629268145E-01  0.95920504466E-01 -0.49453291507E-01  0.10969020242E+00  0.51100000000E-03 0.  1.
         11    1    4    4    0    0  0.45846978483E-02  0.28931876832E-01  0.10036270977E-01  0.30968706908E-01  0.51100000000E-03 0. -1.
</event>
<event>
 7    1  0.2190295E+004  0.1043930E+01  0.7957747E-01            NaN
         13   -1    0    0    0    0  0.00000000000E+00  0.00000000000E+00  0.74505805969E-08  0.10566000000E+00  0.10566000000E+00 0. -1.
     999900   -1    0    0    0    0 -0.00000000000E+00 -0.00000000000E+00 -0.74505805969E-08  0.93827000000E+00  0.93827000000E+00 0. -1.
     999903    2    1    2    0    0 -0.70234122188E-02 -0.11656692837E+00  0.54477476074E-02  0.12522642607E+00  0.44886553914E-01 0.  0.
         14    1    1    2    0    0  0.73564468578E-02  0.20504588499E-01  0.24736595881E-01  0.32961411312E-01  0.00000000000E+00 0. -1.
     999901    1    1    2    0    0 -0.33303463903E-03  0.96062339873E-01 -0.30184343488E-01  0.88574216262E+00  0.88000000000E+00 0. -1.
        -11    1    3    3    0    0 -0.14887669899E-01 -0.64282114508E-01  0.22425517611E-01  0.69692165426E-01  0.51100000000E-03 0.  1.
         11    1    3    3    0    0  0.78642576801E-02 -0.52284813864E-01 -0.16977770004E-01  0.55534260641E-01  0.51100000000E-03 0. -1.
</event>
<event>
 8    1  0.2190295E+004  0.1043930E+01  0.7957747E-01            NaN
         13   -1    0    0    0    0  0.00000000000E+00  0.00000000000E+00  0.74505805969E-08  0.10566000000E+00  0.10566000000E+00 0. -1.
     999900   -1    0    0    0    0 -0.00000000000E+00 -0.00000000000E+00 -0.74505805969E-08  0.93827000000E+00  0.93827000000E+00 0.  1.
     999902    2    1    2    0    0  0.11228766728E-01  0.73388099378E-02  0.17721246001E-02  0.10303991553E+01  0.10303103103E+01 0.  0.
     999903    2    3    3    0    0  0.35647092989E-01 -0.36587805971E-02 -0.12834757453E+00  0.14042817947E+00  0.44304308903E-01 0.  0.
         14    1    1    2    0    0 -0.11228766728E-01 -0.73388099378E-02 -0.17721246001E-02  0.13530844731E-01  0.00000000000E+00 0. -1.
     999901    1    3    3    0    0 -0.24418326261E-01  0.10997590535E-01  0.13011969913E+00  0.88997097580E+00  0.88000000000E+00 0. -1.
        -11    1    4    4    0    0  0.24841479226E-01 -0.50161943580E-02 -0.22119695868E-01  0.33642285331E-01  0.51100000000E-03 0.  1.
         11    1    4    4    0    0  0.10805613763E-01  0.13574137609E-02 -0.10622787867E+00  0.10678589414E+00  0.51100000000E-03 0. -1.
</event>
<event>
 8    1  0.2190295E+004  0.1043930E+01  0.7957747E-01            NaN
         13   -1    0    0    0    0  0.00000000000E+00  0.00000000000E+00  0.74505805969E-08  0.10566000000E+00  0.10566000000E+00 0. -1.
     999900   -1    0    0    0    0 -0.00000000000E+00 -0.00000000000E+00 -0.74505805969E-08  0.93827000000E+00  0.93827000000E+00 0. -1.
     999902    2    1    2    0    0 -0.13753876523E-01 -0.16240089588E-02  0.84768499567E-03  0.10300546588E+01  0.10299612007E+01 0.  0.
     999903    2    3    3    0    0 -0.45285239822E-01 -0.12362765761E+00  0.20483701558E-01  0.14086137814E+00  0.45692397071E-01 0.  0.
         14    1    1    2    0    0  0.13753876523E-01  0.16240089588E-02 -0.84768499567E-03  0.13875341234E-01  0.00000000000E+00 0.  1.
     999901    1    3    3    0    0  0.31531363299E-01  0.12200364866E+00 -0.19636016563E-01  0.88919328062E+00  0.88000000000E+00 0.  1.
        -11    1    4    4    0    0 -0.15188957628E-01 -0.77469287575E-01 -0.70496076120E-02  0.79260034315E-01  0.51100000000E-03 0. -1.
         11    1    4    4    0    0 -0.30096282194E-01 -0.46158370039E-01  0.27533309170E-01  0.61601343828E-01  0.51100000000E-03 0.  1.
</event>
<event>
 8    1  0.2190295E+004  0.1043930E+01  0.7957747E-01            NaN
         13   -1    0    0    0    0  0.00000000000E+00  0.00000000000E+00  0.74505805969E-08  0.10566000000E+00  0.10566000000E+00 0.  1.
     999900   -1    0    0    0    0 -0.00000000000E+00 -0.00000000000E+00 -0.74505805969E-08  0.93827000000E+00  0.93827000000E+00 0.  1.
     999902    2    1    2    0    0  0.65835442723E-02 -0.10454103160E-01  0.76420254102E-02  0.10294030636E+01  0.10293005565E+01 0.  0.
     999903    2    3    3    0    0  0.15516440994E-01  0.63718952493E-01  0.11511357010E+00  0.13972246265E+00  0.44388824054E-01 0.  0.
         14    1    1    2    0    0 -0.65835442723E-02  0.10454103160E-01 -0.76420254102E-02  0.14526936374E-01  0.00000000000E+00 0. -1.
     999901    1    3    3    0    0 -0.89328967216E-02 -0.74173055653E-01 -0.10747154469E+00  0.88968060097E+00  0.88000000000E+00 0.  1.
        -11    1    4    4    0    0  0.28460465337E-01  0.32769909925E-01  0.48169939374E-01  0.64841878937E-01  0.51100000000E-03 0.  1.
         11    1    4    4    0    0 -0.12944024343E-01  0.30949042568E-01  0.66943630725E-01  0.74880583717E-01  0.51100000000E-03 0. -1.
</event>
<event>
 8    1  0.2190295E+004  0.1043930E+01  0.7957747E-01            NaN
         13   -1    0    0    0    0  0.00000000000E+00  0.00000000000E+00  0.74505805969E-08  0.10566000000E+00  0.10566000000E+00 0.  1.
     999900   -1    0    0    0    0 -0.00000000000E+00 -0.00000000000E+00 -0.74505805969E-08  0.93827000000E+00  0.93827000000E+00 0.  1.
     999902    2    1    2    0    0  0.16950894925E-01  0.22420427265E-02  0.39820308616E-02  0.10263739138E+01  0.10262237547E+01 0.  0.
     999903    2    3    3    0    0  0.88556267541E-01 -0.47182845384E-01  0.83650593667E-01  0.13850160940E+00  0.46009135674E-01 0.  0.
         14    1    1    2    0    0 -0.16950894925E-01 -0.22420427265E-02 -0.39820308616E-02  0.17556086242E-01  0.00000000000E+00 0.  1.
     999901    1    3    3    0    0 -0.71605372616E-01  0.49424888111E-01 -0.79668562805E-01  0.88787230436E+00  0.88000000000E+00 0. -1.
        -11    1    4    4    0    0  0.72654273557E-01 -0.14628150628E-01  0.54458040782E-01  0.91970460386E-01  0.51100000000E-03 0. -1.
         11    1    4    4    0    0  0.15901993984E-01 -0.32554694756E-01  0.29192552885E-01  0.46531149011E-01  0.51100000000E-03 0.  1.
</event>
<event>
 8    1  0.2190295E+004  0.1043930E+01  0.7957747E-01            NaN
         13   -1    0    0    0    0  0.00000000000E+00  0.00000000000E+00  0.74505805969E-08  0.10566000000E+00  0.10566000000E+00 0.  1.
     999900   -1    0    0    0    0 -0.00000000000E+00 -0.00000000000E+00 -0.74505805969E-08  0.93827000000E+00  0.93827000000E+00 0. -1.
     999902    2    1    2    0    0 -0.75406924713E-02 -0.38010007137E-02  0.98813503386E-02  0.10309318950E+01  0.10308499509E+01 0.  0.
     999903    2    3    3    0    0 -0.11233783793E+00 -0.26975159005E-01 -0.67469347403E-01  0.14104279305E+00  0.44648713281E-01 0.  0.
         14    1    1    2    0    0  0.75406924713E-02  0.38010007137E-02 -0.98813503386E-02  0.12998105011E-01  0.00000000000E+00 0. -1.
     999901    1    3    3    0    0  0.10479714546E+00  0.23174158291E-01  0.77350697742E-01  0.88988910194E+00  0.88000000000E+00 0.  1.
        -11    1    4    4    0    0 -0.60904338833E-02 -0.53318764872E-02 -0.22030803932E-01  0.23476365448E-01  0.51100000000E-03 0.  1.
         11    1    4    4    0    0 -0.10624740405E+00 -0.21643282518E-01 -0.45438543472E-01  0.11756642760E+00  0.51100000000E-03 0. -1.
</event>
<event>
 8    1  0.2190295E+004  0.1043930E+01  0.7957747E-01            NaN
         13   -1    0    0    0    0  0.00000000000E+00  0.00000000000E+00  0.74505805969E-08  0.10566000000E+00  0.10566000000E+00 0.  1.
     999900   -1    0    0    0    0 -0.00000000000E+00 -0.00000000000E+00 -0.74505805969E-08  0.93827000000E+00  0.93827000000E+00 0.  1.
     999902    2    1    2    0    0 -0.39360532428E-02  0.34103780518E-03  0.15233110413E-01  0.10281928950E+01  0.10280724550E+01 0.  0.
     999903    2    3    3    0    0  0.52763220654E-01 -0.10661849204E+00  0.55951692887E-01  0.13897236459E+00  0.45069567165E-01 0.  0.
         14    1    1    2    0    0  0.39360532428E-02 -0.34103780518E-03 -0.15233110413E-01  0.15737105032E-01  0.00000000000E+00 0. -1.
     999901    1    3    3    0    0 -0.56699273896E-01  0.10695952985E+00 -0.40718582473E-01  0.88922053038E+00  0.88000000000E+00 0. -1.
        -11    1    4    4    0    0  0.44689886154E-01 -0.61221944824E-01  0.14932528853E-01  0.77256417154E-01  0.51100000000E-03 0. -1.
         11    1    4    4    0    0  0.80733344997E-02 -0.45396547217E-01  0.41019164033E-01  0.61715947438E-01  0.51100000000E-03 0.  1.
</event>
<event>
 8    1  0.2190295E+004  0.1043930E+01  0.7957747E-01            NaN
         13   -1    0    0    0    0  0.00000000000E+00  0.00000000000E+00  0.74505805969E-08  0.10566000000E+00  0.10566000000E+00 0.  1.
     999900   -1    0    0    0    0 -0.00000000000E+00 -0.00000000000E+00 -0.74505805969E-08  0.93827000000E+00  0.93827000000E+00 0. -1.
     999902    2    1    2    0    0  0.64532863821E-02  0.11449231938E-01 -0.24537724556E-02  0.10305602275E+01  0.10304734988E+01 0.  0.
     999903    2    3    3    0    0  0.27612672167E-01  0.48858324376E-01  0.12099257107E+00  0.14090514854E+00  0.45447366330E-01 0.  0.
         14    1    1    2    0    0 -0.64532863821E-02 -0.11449231938E-01  0.24537724556E-02  0.13369772487E-01  0.00000000000E+00 0.  1.
     999901    1    3    3    0    0 -0.21159385785E-01 -0.37409092439E-01 -0.12344634353E+00  0.88965507897E+00  0.88000000000E+00 0. -1.
        -11    1    4    4    0    0  0.22022985894E-01  0.55333151702E-01  0.84240406934E-01  0.10316722768E+00  0.51100000000E-03 0. -1.
         11    1    4    4    0    0  0.55896862734E-02 -0.64748273263E-02  0.36752164139E-01  0.37737920868E-01  0.51100000000E-03 0.  1.
</event>
<event>
 8    1  0.2190295E+004  0.1043930E+01  0.7957747E-01            NaN
         13   -1    0    0    0    0  0.00000000000E+00  0.00000000000E+00  0.74505805969E-08  0.10566000000E+00  0.10566000000E+00 0. -1.
     999900   -1    0    0    0    0 -0.00000000000E+00 -0.00000000000E+00 -0.74505805969E-08  0.93827000000E+00  0.93827000000E+00 0. -1.
     999902    2    1    2    0    0  0.95728682050E-02  0.95966922787E-02 -0.27653639474E-02  0.10300958558E+01  0.10300029556E+01 0.  0.
     999903    2    3    3    0    0  0.80765313025E-01 -0.90301297944E-01  0.54053507887E-01  0.13977211868E+00  0.44012535128E-01 0.  0.
         14    1    1    2    0    0 -0.95728682050E-02 -0.95966922787E-02  0.27653639474E-02  0.13834144214E-01  0.00000000000E+00 0. -1.
     999901    1    3    3    0    0 -0.71192444820E-01  0.99897990223E-01 -0.56818871834E-01  0.89032373710E+00  0.88000000000E+00 0.  1.
        -11    1    4    4    0    0  0.37107562758E-01 -0.73050197554E-01  0.33320641681E-01  0.88452410140E-01  0.51100000000E-03 0. -1.
         11    1    4    4    0    0  0.43657750267E-01 -0.17251100390E-01  0.20732866205E-01  0.51319708545E-01  0.51100000000E-03 0.  1.
</event>
<event>
 8    1  0.2190295E+004  0.1043930E+01  0.7957747E-01            NaN
         13   -1    0    0    0    0  0.00000000000E+00  0.00000000000E+00  0.74505805969E-08  0.10566000000E+00  0.10566000000E+00 0. -1.
     999900   -1    0    0    0    0 -0.00000000000E+00 -0.00000000000E+00 -0.74505805969E-08  0.93827000000E+00  0.93827000000E+00 0. -1.
     999902    2    1    2    0    0  0.52365962656E-02 -0.46971890971E-02  0.12085271639E-01  0.10299464627E+01  0.10298515314E+01 0.  0.
     999903    2    3    3    0    0  0.71779115905E-01  0.22781491446E-01  0.11304992343E+00  0.14125256389E+00  0.38739692642E-01 0.  0.
         14    1    1    2    0    0 -0.52365962656E-02  0.46971890971E-02 -0.12085271639E-01  0.13983537337E-01  0.00000000000E+00 0.  1.
     999901    1    3    3    0    0 -0.66542519639E-01 -0.27478680543E-01 -0.10096465179E+00  0.88869389877E+00  0.88000000000E+00 0. -1.
        -11    1    4    4    0    0  0.60351993470E-01  0.68861778151E-02  0.10213138871E+00  0.11883124270E+00  0.51100000000E-03 0. -1.
         11    1    4    4    0    0  0.11427122435E-01  0.15895313631E-01  0.10918534718E-01  0.22421321191E-01  0.51100000000E-03 0.  1.
</event>
<event>
 8    1  0.2190295E+004  0.1043930E+01  0.7957747E-01            NaN
         13   -1    0    0    0    0  0.00000000000E+00  0.00000000000E+00  0.74505805969E-08  0.10566000000E+00  0.10566000000E+00 0. -1.
     999900   -1    0    0    0    0 -0.00000000000E+00 -0.00000000000E+00 -0.74505805969E-08  0.93827000000E+00  0.93827000000E+00 0.  1.
     999902    2    1    2    0    0 -0.45213938225E-02  0.86597040514E-02 -0.10709726400E-01  0.10294340793E+01  0.10293320125E+01 0.  0.
     999903    2    3    3    0    0  0.10315437219E-01  0.99270248347E-01  0.86942410834E-01  0.13928446146E+00  0.43361134113E-01 0.  0.
         14    1    1    2    0    0  0.45213938225E-02 -0.86597040514E-02  0.10709726400E-01  0.14495920665E-01  0.00000000000E+00 0. -1.
     999901    1    3    3    0    0 -0.14836831042E-01 -0.90610544295E-01 -0.97652137233E-01  0.89014961787E+00  0.88000000000E+00 0.  1.
        -11    1    4    4    0    0  0.20317243440E-01  0.19040459958E-01  0.19520182395E-01  0.34009236072E-01  0.51100000000E-03 0.  1.
         11    1    4    4    0    0 -0.10001806221E-01  0.80229788388E-01  0.67422228438E-01  0.10527522539E+00  0.51100000000E-03 0. -1.
</event>
<event>
 8    1  0.2190295E+004  0.1043930E+01  0.7957747E-01            NaN
         13   -1    0    0    0    0  0.00000000000E+00  0.00000000000E+00  0.74505805969E-08  0.10566000000E+00  0.10566000000E+00 0. -1.
     999900   -1    0    0    0    0 -0.00000000000E+00 -0.00000000000E+00 -0.74505805969E-08  0.93827000000E+00  0.93827000000E+00 0.  1.
     999902    2    1    2    0    0  0.62671781717E-02  0.85267778417E-02 -0.79917152169E-03  0.10333176422E+01  0.10332631454E+01 0.  0.
     999903    2    3    3    0    0  0.30262166148E-01 -0.38091901967E-01 -0.12669927339E+00  0.14281222595E+00  0.44450357771E-01 0.  0.
         14    1    1    2    0    0 -0.62671781717E-02 -0.85267778417E-02  0.79917152169E-03  0.10612357783E-01  0.00000000000E+00 0. -1.
     999901    1    3    3    0    0 -0.23994987976E-01  0.46618679808E-01  0.12590010187E+00  0.89050541627E+00  0.88000000000E+00 0. -1.
        -11    1    4    4    0    0  0.51192967174E-02 -0.37784065551E-01 -0.55805930919E-01  0.67589983394E-01  0.51100000000E-03 0. -1.
         11    1    4    4    0    0  0.25142869430E-01 -0.30783641571E-03 -0.70893342474E-01  0.75222242553E-01  0.51100000000E-03 0.  1.
</event>
<event>
 8    1  0.2190295E+004  0.1043930E+01  0.7957747E-01            NaN
         13   -1    0    0    0    0  0.00000000000E+00  0.00000000000E+00  0.74505805969E-08  0.10566000000E+00  0.10566000000E+00 0. -1.
     999900   -1    0    0    0    0 -0.00000000000E+00 -0.00000000000E+00 -0.74505805969E-08  0.93827000000E+00  0.93827000000E+00 0.  1.
     999902    2    1    2    0    0  0.79049302402E-02  0.65141475795E-02 -0.10464134797E-01  0.10292869075E+01  0.10291827427E+01 0.  0.
     999903    2    3    3    0    0  0.24125677043E-01 -0.12829876337E+00  0.13617201016E-01  0.13854702161E+00  0.44353444713E-01 0.  0.
         14    1    1    2    0    0 -0.79049302402E-02 -0.65141475795E-02  0.10464134797E-01  0.14643092496E-01  0.00000000000E+00 0. -1.
     999901    1    3    3    0    0 -0.16220746802E-01  0.13481291095E+00 -0.24081335812E-01  0.89073988589E+00  0.88000000000E+00 0.  1.
        -11    1    4    4    0    0  0.32213765442E-01 -0.12234923511E+00  0.17589917100E-01  0.12773694970E+00  0.51100000000E-03 0. -1.
         11    1    4    4    0    0 -0.80880883994E-02 -0.59495282671E-02 -0.39727160842E-02  0.10810071907E-01  0.51100000000E-03 0.  1.
</event>
<event>
 8    1  0.2190295E+004  0.1043930E+01  0.7957747E-01            NaN
         13   -1    0    0    0    0  0.00000000000E+00  0.00000000000E+00  0.74505805969E-08  0.10566000000E+00  0.10566000000E+00 0. -1.
     999900   -1    0    0    0    0 -0.00000000000E+00 -0.00000000000E+00 -0.74505805969E-08  0.93827000000E+00  0.93827000000E+00 0.  1.
     999902    2    1    2    0    0  0.60728468717E-02 -0.12529247046E-01  0.17475190127E-03  0.10300054878E+01  0.10299113617E+01 0.  0.
     999903    2    3    3    0    0  0.13227972131E+00  0.93489013574E-03 -0.15913533349E-01  0.14075395365E+00  0.45383215331E-01 0.  0.
         14    1    1    2    0    0 -0.60728468717E-02  0.12529247046E-01 -0.17475190127E-03  0.13924512160E-01  0.00000000000E+00 0.  1.
     999901    1    3    3    0    0 -0.12620687444E+00 -0.13464137182E-01  0.16088285250E-01  0.88925153419E+00  0.88000000000E+00 0. -1.
        -11    1    4    4    0    0  0.58772501317E-01 -0.12719176797E-01  0.11302447471E-01  0.61188159061E-01  0.51100000000E-03 0.  1.
         11    1    4    4    0    0  0.73507219993E-01  0.13654066932E-01 -0.27215980819E-01  0.79565794584E-01  0.51100000000E-03 0. -1.
</event>
<event>
 8    1  0.2190295E+004  0.1043930E+01  0.7957747E-01            NaN
         13   -1    0    0    0    0  0.00000000000E+00  0.00000000000E+00  0.74505805969E-08  0.10566000000E+00  0.10566000000E+00 0. -1.
     999900   -1    0    0    0    0 -0.00000000000E+00 -0.00000000000E+00 -0.74505805969E-08  0.93827000000E+00  0.93827000000E+00 0. -1.
     999902    2    1    2    0    0 -0.68925120952E-02  0.11530085981E-01  0.11912668549E-02  0.10304441288E+01  0.10303558773E+01 0.  0.
     999903    2    3    3    0    0  0.10524046603E+00 -0.28966579889E-01  0.74296634612E-01  0.13940081922E+00  0.44698770032E-01 0.  0.
         14    1    1    2    0    0  0.68925120952E-02 -0.11530085981E-01 -0.11912668549E-02  0.13485871215E-01  0.00000000000E+00 0. -1.
     999901    1    3    3    0    0 -0.11213297813E+00  0.40496665870E-01 -0.73105367757E-01  0.89104330957E+00  0.88000000000E+00 0.  1.
        -11    1    4    4    0    0  0.99979698618E-01 -0.36568402919E-01  0.59532297700E-01  0.12197353737E+00  0.51100000000E-03 0. -1.
         11    1    4    4    0    0  0.52607674150E-02  0.76018230300E-02  0.14764336912E-01  0.17427281848E-01  0.51100000000E-03 0.  1.
</event>
<event>
 8    1  0.2190295E+004  0.1043930E+01  0.7957747E-01            NaN
         13   -1    0    0    0    0  0.00000000000E+00  0.00000000000E+00  0.74505805969E-08  0.10566000000E+00  0.10566000000E+00 0.  1.
     999900   -1    0    0    0    0 -0.00000000000E+00 -0.00000000000E+00 -0.74505805969E-08  0.93827000000E+00  0.93827000000E+00 0. -1.
     999902    2    1    2    0    0 -0.11528616632E-01 -0.12213211429E-02 -0.68174143443E-02  0.10304809195E+01  0.10303931520E+01 0.  0.
     999903    2    3    3    0    0 -0.39419346149E-01 -0.48504157958E-01 -0.11919810944E+00  0.14163729996E+00  0.44117992402E-01 0.  0.
         14    1    1    2    0    0  0.11528616632E-01  0.12213211429E-02  0.68174143443E-02  0.13449080457E-01  0.00000000000E+00 0.  1.
     999901    1    3    3    0    0  0.27890729517E-01  0.47282836815E-01  0.11238069510E+00  0.88884361959E+00  0.88000000000E+00 0.  1.
        -11    1    4    4    0    0 -0.87343516471E-02 -0.23958861015E-01 -0.87521575906E-01  0.91162510331E-01  0.51100000000E-03 0. -1.
         11    1    4    4    0    0 -0.30684994502E-01 -0.24545296943E-01 -0.31676533539E-01  0.50474789624E-01  0.51100000000E-03 0.  1.
</event>
<event>
 8    1  0.2190295E+004  0.1043930E+01  0.7957747E-01            NaN
         13   -1    0    0    0    0  0.00000000000E+00  0.00000000000E+00  0.74505805969E-08  0.10566000000E+00  0.10566000000E+00 0. -1.
     999900   -1    0    0    0    0 -0.00000000000E+00 -0.00000000000E+00 -0.74505805969E-08  0.93827000000E+00  0.93827000000E+00 0.  1.
     999902    2    1    2    0    0 -0.13519430188E-01  0.34366831776E-02  0.11973747843E-02  0.10299293039E+01  0.10298341379E+01 0.  0.
     999903    2    3    3    0    0 -0.60928742124E-01 -0.11709869613E+00 -0.11755458321E-01  0.14035401403E+00  0.46223827228E-01 0.  0.
         14    1    1    2    0    0  0.13519430188E-01 -0.34366831776E-02 -0.11973747843E-02  0.14000696063E-01  0.00000000000E+00 0. -1.
     999901    1    3    3    0    0  0.47409311935E-01  0.12053537930E+00  0.12952833106E-01  0.88957528990E+00  0.88000000000E+00 0. -1.
        -11    1    4    4    0    0 -0.30149477086E-01 -0.71061700104E-01  0.15333871490E-01  0.78702890202E-01  0.51100000000E-03 0. -1.
         11    1    4    4    0    0 -0.30779265038E-01 -0.46036996022E-01 -0.27089329812E-01  0.61651123831E-01  0.51100000000E-03 0.  1.
</event>
<event>
 8    1  0.2190295E+004  0.1043930E+01  0.7957747E-01            NaN
         13   -1    0    0    0    0  0.00000000000E+00  0.00000000000E+00  0.74505805969E-08  0.10566000000E+00  0.10566000000E+00 0. -1.
     999900   -1    0    0    0    0 -0.00000000000E+00 -0.00000000000E+00 -0.74505805969E-08  0.93827000000E+00  0.93827000000E+00 0. -1.
     999902    2    1    2    0    0 -0.40901818188E-02 -0.10062688045E-01 -0.83866855180E-02  0.10302068891E+01  0.10301154841E+01 0.  0.
     999903    2    3    3    0    0 -0.22069734852E-01 -0.12957162411E+00  0.25741349251E-01  0.14129161033E+00  0.44998034587E-01 0.  0.
         14    1    1    2    0    0  0.40901818188E-02  0.10062688045E-01  0.83866855180E-02  0.13723110871E-01  0.00000000000E+00 0. -1.
     999901    1    3    3    0    0  0.17979553033E-01  0.11950893607E+00 -0.34128034769E-01  0.88891527880E+00  0.88000000000E+00 0. -1.
        -11    1    4    4    0    0  0.21635659263E-02 -0.18340952138E-01 -0.11202341854E-01  0.21606136324E-01  0.51100000000E-03 0.  1.
         11    1    4    4    0    0 -0.24233300778E-01 -0.11123067197E+00  0.36943691105E-01  0.11968547400E+00  0.51100000000E-03 0. -1.
</event>
<event>
 8    1  0.2190295E+004  0.1043930E+01  0.7957747E-01            NaN
         13   -1    0    0    0    0  0.00000000000E+00  0.00000000000E+00  0.74505805969E-08  0.10566000000E+00  0.10566000000E+00 0. -1.
     999900   -1    0    0    0    0 -0.00000000000E+00 -0.00000000000E+00 -0.74505805969E-08  0.93827000000E+00  0.93827000000E+00 0.  1.
     999902    2    1    2    0    0  0.80376750881E-02 -0.61415575274E-02  0.90435573308E-02  0.10303613273E+01  0.10302719815E+01 0.  0.
     999903    2    3    3    0    0 -0.89534948564E-01  0.91175585928E-01  0.32710110427E-01  0.13932196283E+00  0.44845997803E-01 0.  0.
         14    1    1    2    0    0 -0.80376750881E-02  0.61415575274E-02 -0.90435573308E-02  0.13568672701E-01  0.00000000000E+00 0.  1.
     999901    1    3    3    0    0  0.97572623652E-01 -0.97317143456E-01 -0.23666553096E-01  0.89103936447E+00  0.88000000000E+00 0.  1.
        -11    1    4    4    0    0 -0.47244212161E-01  0.32581733744E-01 -0.53634015908E-02  0.57642104005E-01  0.51100000000E-03 0.  1.
         11    1    4    4    0    0 -0.42290736403E-01  0.58593852185E-01  0.38073512018E-01  0.81679858825E-01  0.51100000000E-03 0. -1.
</event>
<event>
 8    1  0.2190295E+004  0.1043930E+01  0.7957747E-01            NaN
         13   -1    0    0    0    0  0.00000000000E+00  0.00000000000E+00  0.74505805969E-08  0.10566000000E+00  0.10566000000E+00 0. -1.
     999900   -1    0    0    0    0 -0.00000000000E+00 -0.00000000000E+00 -0.74505805969E-08  0.93827000000E+00  0.93827000000E+00 0.  1.
     999902    2    1    2    0    0  0.40983815199E-02 -0.12403348523E-01 -0.76481547421E-02  0.10287928253E+01  0.10286814587E+01 0.  0.
     999903    2    3    3    0    0  0.10540376053E+00  0.75731006213E-02 -0.80577255218E-01  0.13975936589E+00  0.43274492565E-01 0.  0.
         14    1    1    2    0    0 -0.40983815199E-02  0.12403348523E-01  0.76481547421E-02  0.15137174658E-01  0.00000000000E+00 0. -1.
     999901    1    3    3    0    0 -0.10130537901E+00 -0.19976449145E-01  0.72929100475E-01  0.88903345946E+00  0.88000000000E+00 0. -1.
        -11    1    4    4    0    0  0.31854445364E-01  0.14594407860E-01 -0.74928457582E-02  0.35834428820E-01  0.51100000000E-03 0.  1.
         11    1    4    4    0    0  0.73549315168E-01 -0.70213072391E-02 -0.73084409459E-01  0.10392493707E+00  0.51100000000E-03 0. -1.
</event>
<event>
 8    1  0.2190295E+004  0.1043930E+01  0.7957747E-01            NaN
         13   -1    0    0    0    0  0.00000000000E+00  0.00000000000E+00  0.74505805969E-08  0.10566000000E+00  0.10566000000E+00 0. -1.
     999900   -1    0    0    0    0 -0.00000000000E+00 -0.00000000000E+00 -0.74505805969E-08  0.93827000000E+00  0.93827000000E+00 0. -1.
     999902    2    1    2    0    0  0.12299845150E-01 -0.45972163504E-02 -0.48196294200E-02  0.10299425264E+01  0.10298475413E+01 0.  0.
     999903    2    3    3    0    0  0.31027843535E-01 -0.12466080592E-01 -0.12920364793E+00  0.14096331352E+00  0.45375575797E-01 0.  0.
         14    1    1    2    0    0 -0.12299845150E-01  0.45972163504E-02  0.48196294200E-02  0.13987473561E-01  0.00000000000E+00 0.  1.
     999901    1    3    3    0    0 -0.18727998385E-01  0.78688642412E-02  0.12438401851E+00  0.88897921292E+00  0.88000000000E+00 0.  1.
        -11    1    4    4    0    0  0.13893818945E-01 -0.13432634156E-01 -0.11987484618E+00  0.12142369511E+00  0.51100000000E-03 0.  1.
         11    1    4    4    0    0  0.17134024591E-01  0.96655356391E-03 -0.93288017473E-02  0.19539618407E-01  0.51100000000E-03 0. -1.
</event>
<event>
 8    1  0.2190295E+004  0.1043930E+01  0.7957747E-01            NaN
         13   -1    0    0    0    0  0.00000000000E+00  0.00000000000E+00  0.74505805969E-08  0.10566000000E+00  0.10566000000E+00 0. -1.
     999900   -1    0    0    0    0 -0.00000000000E+00 -0.00000000000E+00 -0.74505805969E-08  0.93827000000E+00  0.93827000000E+00 0.  1.
     999902    2    1    2    0    0 -0.45870545655E-02 -0.17269987216E-02 -0.13659459453E-01  0.10294177835E+01  0.10293154855E+01 0.  0.
     999903    2    3    3    0    0  0.10245606436E+00  0.49912295737E-03 -0.84299063092E-01  0.14011854339E+00  0.45048639430E-01 0.  0.
         14    1    1    2    0    0  0.45870545655E-02  0.17269987216E-02  0.13659459453E-01  0.14512216465E-01  0.00000000000E+00 0. -1.
     999901    1    3    3    0    0 -0.10704311893E+00 -0.22261216790E-02  0.70639603639E-01  0.88929924015E+00  0.88000000000E+00 0. -1.
        -11    1    4    4    0    0  0.91225568584E-01  0.16157967463E-01 -0.69707813653E-01  0.11594233343E+00  0.51100000000E-03 0. -1.
         11    1    4    4    0    0  0.11230495777E-01 -0.15658844506E-01 -0.14591249439E-01  0.24176209956E-01  0.51100000000E-03 0.  1.
</event>
<event>
 8    1  0.2190295E+004  0.1043930E+01  0.7957747E-01            NaN
         13   -1    0    0    0    0  0.00000000000E+00  0.00000000000E+00  0.74505805969E-08  0.10566000000E+00  0.10566000000E+00 0.  1.
     999900   -1    0    0    0    0 -0.00000000000E+00 -0.00000000000E+00 -0.74505805969E-08  0.93827000000E+00  0.93827000000E+00 0. -1.
     999902    2    1    2    0    0  0.49924850763E-02  0.11251329445E-01 -0.63388416371E-02  0.10300844868E+01  0.10299914329E+01 0.  0.
     999903    2    3    3    0    0 -0.50600348696E-01  0.10566868415E+00  0.63468047060E-01  0.14054629106E+00  0.44707950451E-01 0.  0.
         14    1    1    2    0    0 -0.49924850763E-02 -0.11251329445E-01  0.63388416371E-02  0.13845513166E-01  0.00000000000E+00 0.  1.
     999901    1    3    3    0    0  0.55592833772E-01 -0.94417354707E-01 -0.69806888697E-01  0.88953819578E+00  0.88000000000E+00 0.  1.
        -11    1    4    4    0    0  0.45412441701E-02  0.18321729231E-01 -0.77903599471E-03  0.18899118464E-01  0.51100000000E-03 0.  1.
         11    1    4    4    0    0 -0.55141592866E-01  0.87346954922E-01  0.64247083055E-01  0.12164717259E+00  0.51100000000E-03 0. -1.
</event>
<event>
 8    1  0.2190295E+004  0.1043930E+01  0.7957747E-01            NaN
         13   -1    0    0    0    0  0.00000000000E+00  0.00000000000E+00  0.74505805969E-08  0.10566000000E+00  0.10566000000E+00 0.  1.
     999900   -1    0    0    0    0 -0.00000000000E+00 -0.00000000000E+00 -0.74505805969E-08  0.93827000000E+00  0.93827000000E+00 0.  1.
     999902    2    1    2    0    0  0.11916603428E-01  0.16816942136E-02  0.54637083015E-02  0.10307131304E+01  0.10306283868E+01 0.  0.
     999903    2    3    3    0    0  0.91974351201E-01 -0.77999573594E-01  0.59849039912E-01  0.14182837316E+00  0.44611266465E-01 0.  0.
         14    1    1    2    0    0 -0.11916603428E-01 -0.16816942136E-02 -0.54637083015E-02  0.13216869565E-01  0.00000000000E+00 0.  1.
     999901    1    3    3    0    0 -0.80057747773E-01  0.79681267808E-01 -0.54385331611E-01  0.88888475727E+00  0.88000000000E+00 0.  1.
        -11    1    4    4    0    0  0.53355634955E-01 -0.17811915711E-01  0.34314823314E-01  0.65892763964E-01  0.51100000000E-03 0.  1.
         11    1    4    4    0    0  0.38618716246E-01 -0.60187657884E-01  0.25534216598E-01  0.75935609198E-01  0.51100000000E-03 0. -1.
</event>
<event>
 8    1  0.2190295E+004  0.1043930E+01  0.7957747E-01            NaN
         13   -1    0    0    0    0  0.00000000000E+00  0.00000000000E+00  0.74505805969E-08  0.10566000000E+00  0.10566000000E+00 0. -1.
     999900   -1    0    0    0    0 -0.00000000000E+00 -0.00000000000E+00 -0.74505805969E-08  0.93827000000E+00  0.93827000000E+00 0.  1.
     999902    2    1    2    0    0 -0.10481474640E-01  0.69513878898E-02  0.25835547540E-02  0.10310903014E+01  0.10310103549E+01 0.  0.
     999903    2    3    3    0    0 -0.59182204293E-01  0.10251524087E+00 -0.64172853634E-01  0.14206801311E+00  0.45312882173E-01 0.  0.
         14    1    1    2    0    0  0.10481474640E-01 -0.69513878898E-02 -0.25835547540E-02  0.12839698571E-01  0.00000000000E+00 0.  1.
     999901    1    3    3    0    0  0.48700729653E-01 -0.95563852977E-01  0.66756408388E-01  0.88902228832E+00  0.88000000000E+00 0. -1.
        -11    1    4    4    0    0 -0.84068840271E-02  0.53351466487E-01 -0.15299089563E-01  0.56137135105E-01  0.51100000000E-03 0.  1.
         11    1    4    4    0    0 -0.50775320266E-01  0.49163774380E-01 -0.48873764071E-01  0.85930878006E-01  0.51100000000E-03 0. -1.
</event>
<event>
 8    1  0.2190295E+004  0.1043930E+01  0.7957747E-01            NaN
         13   -1    0    0    0    0  0.00000000000E+00  0.00000000000E+00  0.74505805969E-08  0.10566000000E+00  0.10566000000E+00 0.  1.
     999900   -1    0    0    0    0 -0.00000000000E+00 -0.00000000000E+00 -0.74505805969E-08  0.93827000000E+00  0.93827000000E+00 0. -1.
     999902    2    1    2    0    0 -0.82609936851E-02 -0.30981125225E-02 -0.11342197899E-01  0.10295603176E+01  0.10294600332E+01 0.  0.
     999903    2    3    3    0    0  0.85408284799E-01 -0.48011947945E-01  0.86387944518E-01  0.13807707771E+00  0.44751314764E-01 0.  0.
         14    1    1    2    0    0  0.82609936851E-02  0.30981125225E-02  0.11342197899E-01  0.14369682357E-01  0.00000000000E+00 0.  1.
     999901    1    3    3    0    0 -0.93669278484E-01  0.44913835423E-01 -0.97730142417E-01  0.89148323993E+00  0.88000000000E+00 0. -1.
        -11    1    4    4    0    0  0.60465338005E-01 -0.21957618229E-01  0.77881884285E-01  0.10101506382E+00  0.51100000000E-03 0.  1.
         11    1    4    4    0    0  0.24942946793E-01 -0.26054329716E-01  0.85060602333E-02  0.37062013887E-01  0.51100000000E-03 0. -1.
</event>
<event>
 8    1  0.2190295E+004  0.1043930E+01  0.7957747E-01            NaN
         13   -1    0    0    0    0  0.00000000000E+00  0.00000000000E+00  0.74505805969E-08  0.10566000000E+00  0.10566000000E+00 0. -1.
     999900   -1    0    0    0    0 -0.00000000000E+00 -0.00000000000E+00 -0.74505805969E-08  0.93827000000E+00  0.93827000000E+00 0.  1.
     999902    2    1    2    0    0 -0.30605545750E-02  0.12410194684E-01 -0.41523196716E-02  0.10304904433E+01  0.10304028008E+01 0.  0.
     999903    2    3    3    0    0 -0.10747007542E+00 -0.59768844052E-01  0.49091773204E-01  0.13979066495E+00  0.44825171273E-01 0.  0.
         14    1    1    2    0    0  0.30605545750E-02 -0.12410194684E-01  0.41523196716E-02  0.13439556728E-01  0.00000000000E+00 0.  1.
     999901    1    3    3    0    0  0.10440952085E+00  0.72179038736E-01 -0.53244092876E-01  0.89069977832E+00  0.88000000000E+00 0. -1.
        -11    1    4    4    0    0 -0.37946624496E-01 -0.19722490773E-01 -0.49492190895E-02  0.43054370783E-01  0.51100000000E-03 0.  1.
         11    1    4    4    0    0 -0.69523450928E-01 -0.40046353279E-01  0.54040992294E-01  0.96736294166E-01  0.51100000000E-03 0. -1.
</event>
<event>
 8    1  0.2190295E+004  0.1043930E+01  0.7957747E-01            NaN
         13   -1    0    0    0    0  0.00000000000E+00  0.00000000000E+00  0.74505805969E-08  0.10566000000E+00  0.10566000000E+00 0.  1.
     999900   -1    0    0    0    0 -0.00000000000E+00 -0.00000000000E+00 -0.74505805969E-08  0.93827000000E+00  0.93827000000E+00 0.  1.
     999902    2    1    2    0    0 -0.27660539312E-02 -0.14450562471E-01  0.66740325100E-02  0.10277741181E+01  0.10276471307E+01 0.  0.
     999903    2    3    3    0    0  0.93567859981E-01 -0.81789880156E-01  0.37314450915E-01  0.13943091758E+00  0.51030222530E-01 0.  0.
         14    1    1    2    0    0  0.27660539312E-02  0.14450562471E-01 -0.66740325100E-02  0.16155881901E-01  0.00000000000E+00 0. -1.
     999901    1    3    3    0    0 -0.96333913912E-01  0.67339317685E-01 -0.30640418405E-01  0.88834320052E+00  0.88000000000E+00 0.  1.
        -11    1    4    4    0    0 -0.59888825330E-02 -0.94110179651E-02  0.17053098040E-02  0.11296157562E-01  0.51100000000E-03 0.  1.
         11    1    4    4    0    0  0.99556742514E-01 -0.72378862191E-01  0.35609141111E-01  0.12813476001E+00  0.51100000000E-03 0. -1.
</event>
<event>
 8    1  0.2190295E+004  0.1043930E+01  0.7957747E-01            NaN
         13   -1    0    0    0    0  0.00000000000E+00  0.00000000000E+00  0.74505805969E-08  0.10566000000E+00  0.10566000000E+00 0. -1.
     999900   -1    0    0    0    0 -0.00000000000E+00 -0.00000000000E+00 -0.74505805969E-08  0.93827000000E+00  0.93827000000E+00 0.  1.
     999902    2    1    2    0    0 -0.59229241516E-02  0.12367527799E-01 -0.71050515933E-03  0.10301989552E+01  0.10301074437E+01 0.  0.
     999903    2    3    3    0    0 -0.98952420254E-02  0.10775419059E+00 -0.79186604289E-01  0.14156354463E+00  0.45396447707E-01 0.  0.
         14    1    1    2    0    0  0.59229241516E-02 -0.12367527799E-01  0.71050515933E-03  0.13731044824E-01  0.00000000000E+00 0. -1.
     999901    1    3    3    0    0  0.39723178737E-02 -0.95386662789E-01  0.78476099129E-01  0.88863541055E+00  0.88000000000E+00 0. -1.
        -11    1    4    4    0    0 -0.20980564788E-01  0.21122903987E-01 -0.24061268694E-01  0.38282723830E-01  0.51100000000E-03 0. -1.
         11    1    4    4    0    0  0.11085322763E-01  0.86631286602E-01 -0.55125335595E-01  0.10328082080E+00  0.51100000000E-03 0.  1.
</event>
<event>
 8    1  0.2190295E+004  0.1043930E+01  0.7957747E-01            NaN
         13   -1    0    0    0    0  0.00000000000E+00  0.00000000000E+00  0.74505805969E-08  0.10566000000E+00  0.10566000000E+00 0. -1.
     999900   -1    0    0    0    0 -0.00000000000E+00 -0.00000000000E+00 -0.74505805969E-08  0.93827000000E+00  0.93827000000E+00 0.  1.
     999902    2    1    2    0    0 -0.66736625450E-02  0.62682239351E-02  0.11276317815E-01  0.10294047204E+01  0.10293022368E+01 0.  0.
     999903    2    3    3    0    0  0.61031633837E-02  0.12395183534E+00 -0.45162321845E-01  0.13968678776E+00  0.45513264808E-01 0.  0.
         14    1    1    2    0    0  0.66736625450E-02 -0.62682239351E-02 -0.11276317815E-01  0.14525279568E-01  0.00000000000E+00 0.  1.
     999901    1    3    3    0    0 -0.12776825929E-01 -0.11768361140E+00  0.56438639659E-01  0.88971793267E+00  0.88000000000E+00 0. -1.
        -11    1    4    4    0    0  0.11348960669E-01  0.62018523146E-01 -0.33510309017E-03  0.63051324622E-01  0.51100000000E-03 0. -1.
         11    1    4    4    0    0 -0.52457972848E-02  0.61933312191E-01 -0.44827218754E-01  0.76635463138E-01  0.51100000000E-03 0.  1.
</event>
<event>
 8    1  0.2190295E+004  0.1043930E+01  0.7957747E-01            NaN
         13   -1    0    0    0    0  0.00000000000E+00  0.00000000000E+00  0.74505805969E-08  0.10566000000E+00  0.10566000000E+00 0.  1.
     999900   -1    0    0    0    0 -0.00000000000E+00 -0.00000000000E+00 -0.74505805969E-08  0.93827000000E+00  0.93827000000E+00 0. -1.
     999902    2    1    2    0    0 -0.51104974390E-02  0.98399799313E-02 -0.87694204624E-02  0.10297933411E+01  0.10296963049E+01 0.  0.
     999903    2    3    3    0    0 -0.72820751559E-01 -0.44479478471E-01  0.10192516057E+00  0.13862075831E+00  0.39315269501E-01 0.  0.
         14    1    1    2    0    0  0.51104974390E-02 -0.98399799313E-02  0.87694204624E-02  0.14136658883E-01  0.00000000000E+00 0.  1.
     999901    1    3    3    0    0  0.67710254120E-01  0.54319458403E-01 -0.11069458103E+00  0.89117258280E+00  0.88000000000E+00 0.  1.
        -11    1    4    4    0    0 -0.43794226322E-01 -0.16779554067E-01  0.28319094846E-01  0.54787954404E-01  0.51100000000E-03 0. -1.
         11    1    4    4    0    0 -0.29026525236E-01 -0.27699924404E-01  0.73606065720E-01  0.83832803908E-01  0.51100000000E-03 0.  1.
</event>
<event>
 8    1  0.2190295E+004  0.1043930E+01  0.7957747E-01            NaN
         13   -1    0    0    0    0  0.00000000000E+00  0.00000000000E+00  0.74505805969E-08  0.10566000000E+00  0.10566000000E+00 0.  1.
     999900   -1    0    0    0    0 -0.00000000000E+00 -0.00000000000E+00 -0.74505805969E-08  0.93827000000E+00  0.93827000000E+00 0. -1.
     999902    2    1    2    0    0 -0.10699589637E-01 -0.81753985861E-02  0.24439917312E-02  0.10302445531E+01  0.10301536525E+01 0.  0.
     999903    2    3    3    0    0  0.12890578171E+00 -0.60571097416E-02  0.25966631298E-01  0.13892673022E+00  0.44418254053E-01 0.  0.
         14    1    1    2    0    0  0.10699589637E-01  0.81753985861E-02 -0.24439917312E-02  0.13685446870E-01  0.00000000000E+00 0. -1.
     999901    1    3    3    0    0 -0.13960537135E+00 -0.21182888444E-02 -0.23522639567E-01  0.89131782291E+00  0.88000000000E+00 0. -1.
        -11    1    4    4    0    0  0.11013464776E+00  0.43643980131E-02  0.34974348916E-01  0.11563803358E+00  0.51100000000E-03 0.  1.
         11    1    4    4    0    0  0.18771133947E-01 -0.10421507755E-01 -0.90077176181E-02  0.23288696641E-01  0.51100000000E-03 0. -1.
</event>
<event>
 8    1  0.2190295E+004  0.1043930E+01  0.7957747E-01            NaN
         13   -1    0    0    0    0  0.00000000000E+00  0.00000000000E+00  0.74505805969E-08  0.10566000000E+00  0.10566000000E+00 0. -1.
     999900   -1    0    0    0    0 -0.00000000000E+00 -0.00000000000E+00 -0.74505805969E-08  0.93827000000E+00  0.93827000000E+00 0.  1.
     999902    2    1    2    0    0  0.15862416902E-01  0.12984767174E-01 -0.96208215264E-02  0.10212853394E+01  0.10210342618E+01 0.  0.
     999903    2    3    3    0    0  0.78864753789E-01  0.98428815166E-01  0.15987373265E-01  0.13453522832E+00  0.44002846619E-01 0.  0.
         14    1    1    2    0    0 -0.15862416902E-01 -0.12984767174E-01  0.96208215264E-02  0.22644660637E-01  0.00000000000E+00 0.  1.
     999901    1    3    3    0    0 -0.63002336886E-01 -0.85444047992E-01 -0.25608194791E-01  0.88675011104E+00  0.88000000000E+00 0.  1.
        -11    1    4    4    0    0  0.31002789317E-01  0.71786120916E-01  0.30907696270E-02  0.78257485773E-01  0.51100000000E-03 0.  1.
         11    1    4    4    0    0  0.47861964472E-01  0.26642694250E-01  0.12896603638E-01  0.56277742549E-01  0.51100000000E-03 0. -1.
</event>
<event>
 8    1  0.2190295E+004  0.1043930E+01  0.7957747E-01            NaN
         13   -1    0    0    0    0  0.00000000000E+00  0.00000000000E+00  0.74505805969E-08  0.10566000000E+00  0.10566000000E+00 0. -1.
     999900   -1    0    0    0    0 -0.00000000000E+00 -0.00000000000E+00 -0.74505805969E-08  0.93827000000E+00  0.93827000000E+00 0. -1.
     999902    2    1    2    0    0 -0.86655833681E-02 -0.70951627156E-02 -0.68198605389E-02  0.10308172517E+01  0.10307338465E+01 0.  0.
     999903    2    3    3    0    0  0.10027534997E+00  0.51347622652E-01 -0.70395924822E-01  0.13990446024E+00  0.43885619507E-01 0.  0.
         14    1    1    2    0    0  0.86655833681E-02  0.70951627156E-02  0.68198605389E-02  0.13112748257E-01  0.00000000000E+00 0. -1.
     999901    1    3    3    0    0 -0.10894093334E+00 -0.58442785367E-01  0.63576064283E-01  0.89091279151E+00  0.88000000000E+00 0.  1.
        -11    1    4    4    0    0  0.98859976220E-01  0.46699879784E-01 -0.52375855534E-01  0.12123392691E+00  0.51100000000E-03 0.  1.
         11    1    4    4    0    0  0.14153737491E-02  0.46477428673E-02 -0.18020069288E-01  0.18670533328E-01  0.51100000000E-03 0. -1.
</event>
<event>
 8    1  0.2190295E+004  0.1043930E+01  0.7957747E-01            NaN
         13   -1    0    0    0    0  0.00000000000E+00  0.00000000000E+00  0.74505805969E-08  0.10566000000E+00  0.10566000000E+00 0. -1.
     999900   -1    0    0    0    0 -0.00000000000E+00 -0.00000000000E+00 -0.74505805969E-08  0.93827000000E+00  0.93827000000E+00 0. -1.
     999902    2    1    2    0    0  0.34019016972E-02  0.14394560360E-01  0.20165279381E-02  0.10290020836E+01  0.10288937969E+01 0.  0.
     999903    2    3    3    0    0 -0.12370941754E+00 -0.28562652849E-01 -0.29868112892E-01  0.13826124589E+00  0.45871808558E-01 0.  0.
         14    1    1    2    0    0 -0.34019016972E-02 -0.14394560360E-01 -0.20165279381E-02  0.14927916400E-01  0.00000000000E+00 0. -1.
     999901    1    3    3    0    0  0.12711131924E+00  0.42957213209E-01  0.31884640830E-01  0.89074083771E+00  0.88000000000E+00 0. -1.
        -11    1    4    4    0    0 -0.61128081858E-01  0.59165677465E-02 -0.16491792679E-02  0.61438010049E-01  0.51100000000E-03 0.  1.
         11    1    4    4    0    0 -0.62581335685E-01 -0.34479220596E-01 -0.28218933624E-01  0.76823235840E-01  0.51100000000E-03 0. -1.
</event>
<event>
 8    1  0.2190295E+004  0.1043930E+01  0.7957747E-01            NaN
         13   -1    0    0    0    0  0.00000000000E+00  0.00000000000E+00  0.74505805969E-08  0.10566000000E+00  0.10566000000E+00 0.  1.
     999900   -1    0    0    0    0 -0.00000000000E+00 -0.00000000000E+00 -0.74505805969E-08  0.93827000000E+00  0.93827000000E+00 0. -1.
     999902    2    1    2    0    0 -0.28588553898E-02 -0.12976897541E-01  0.40733385529E-02  0.10300316184E+01  0.10299378476E+01 0.  0.
     999903    2    3    3    0    0 -0.94416099234E-01  0.74050565002E-01  0.55293353705E-01  0.13953737469E+00  0.44893629842E-01 0.  0.
         14    1    1    2    0    0  0.28588553898E-02  0.12976897541E-01 -0.40733385529E-02  0.13898381593E-01  0.00000000000E+00 0.  1.
     999901    1    3    3    0    0  0.91557243844E-01 -0.87027462543E-01 -0.51220015152E-01  0.89049424371E+00  0.88000000000E+00 0. -1.
        -11    1    4    4    0    0 -0.77354791938E-01  0.38772121330E-01  0.25195395488E-01  0.90122751306E-01  0.51100000000E-03 0. -1.
         11    1    4    4    0    0 -0.17061307296E-01  0.35278443672E-01  0.30097958216E-01  0.49414623386E-01  0.51100000000E-03 0.  1.
</event>
<event>
 7    1  0.2190295E+004  0.1043930E+01  0.7957747E-01            NaN
         13   -1    0    0    0    0  0.00000000000E+00  0.00000000000E+00  0.74505805969E-08  0.10566000000E+00  0.10566000000E+00 0.  1.
     999900   -1    0    0    0    0 -0.00000000000E+00 -0.00000000000E+00 -0.74505805969E-08  0.93827000000E+00  0.93827000000E+00 0.  1.
     999902    2    1    2    0    0 -0.66365426413E-02  0.72930034480E-02  0.11994088221E-01  0.10284029349E+01  0.10282857126E+01 0.  0.
         14    1    1    2    0    0  0.66365426413E-02 -0.72930034480E-02 -0.11994088221E-01  0.15527065073E-01  0.00000000000E+00 0. -1.
     999901    1    3    3    0    0 -0.12643344902E+00  0.64985132459E-01  0.28222303043E-01  0.89185479920E+00  0.88000000000E+00 0.  1.
        -11    1    3    3    0    0  0.88701708201E-01 -0.30565736661E-01 -0.16599589312E-01  0.95278878991E-01  0.51100000000E-03 0. -1.
         11    1    3    3    0    0  0.31095198174E-01 -0.27126392349E-01  0.37137448902E-03  0.41269256734E-01  0.51100000000E-03 0.  1.
</event>
<event>
 8    1  0.2190295E+004  0.1043930E+01  0.7957747E-01            NaN
         13   -1    0    0    0    0  0.00000000000E+00  0.00000000000E+00  0.74505805969E-08  0.10566000000E+00  0.10566000000E+00 0.  1.
     999900   -1    0    0    0    0 -0.00000000000E+00 -0.00000000000E+00 -0.74505805969E-08  0.93827000000E+00  0.93827000000E+00 0. -1.
     999902    2    1    2    0    0 -0.50584393219E-02 -0.69361599612E-02 -0.12096506411E-01  0.10290968078E+01  0.10289899009E+01 0.  0.
     999903    2    3    3    0    0  0.50454699150E-01 -0.10429883222E+00  0.63299050567E-01  0.13879029401E+00  0.42802486360E-01 0.  0.
         14    1    1    2    0    0  0.50584393219E-02  0.69361599612E-02  0.12096506411E-01  0.14833192196E-01  0.00000000000E+00 0.  1.
     999901    1    3    3    0    0 -0.55513138472E-01  0.97362672264E-01 -0.75395556978E-01  0.89030651379E+00  0.88000000000E+00 0. -1.
        -11    1    4    4    0    0  0.90665728487E-02 -0.64659658820E-01  0.42072115824E-01  0.77674952673E-01  0.51100000000E-03 0.  1.
         11    1    4    4    0    0  0.41388126302E-01 -0.39639173405E-01  0.21226934743E-01  0.61115341336E-01  0.51100000000E-03 0. -1.
</event>
<event>
 8    1  0.2190295E+004  0.1043930E+01  0.7957747E-01            NaN
         13   -1    0    0    0    0  0.00000000000E+00  0.00000000000E+00  0.74505805969E-08  0.10566000000E+00  0.10566000000E+00 0. -1.
     999900   -1    0    0    0    0 -0.00000000000E+00 -0.00000000000E+00 -0.74505805969E-08  0.93827000000E+00  0.93827000000E+00 0. -1.
     999902    2    1    2    0    0  0.74706758503E-02  0.76714264774E-02 -0.70963100327E-02  0.10310840124E+01  0.10310039870E+01 0.  0.
     999903    2    3    3    0    0  0.54646976129E-02 -0.12995200453E+00 -0.26121628970E-01  0.14018211235E+00  0.45291265418E-01 0.  0.
         14    1    1    2    0    0 -0.74706758503E-02 -0.76714264774E-02  0.70963100327E-02  0.12845987620E-01  0.00000000000E+00 0. -1.
     999901    1    3    3    0    0  0.20059782374E-02  0.13762343100E+00  0.19025318938E-01  0.89090190003E+00  0.88000000000E+00 0. -1.
        -11    1    4    4    0    0  0.80414327732E-02 -0.68253181839E-01  0.87175831811E-02  0.69277838085E-01  0.51100000000E-03 0.  1.
         11    1    4    4    0    0 -0.25767351603E-02 -0.61698822688E-01 -0.34839212152E-01  0.70904274268E-01  0.51100000000E-03 0. -1.
</event>
<event>
 8    1  0.2190295E+004  0.1043930E+01  0.7957747E-01            NaN
         13   -1    0    0    0    0  0.00000000000E+00  0.00000000000E+00  0.74505805969E-08  0.10566000000E+00  0.10566000000E+00 0. -1.
     999900   -1    0    0    0    0 -0.00000000000E+00 -0.00000000000E+00 -0.74505805969E-08  0.93827000000E+00  0.93827000000E+00 0. -1.
     999902    2    1    2    0    0  0.32090550583E-02 -0.11216823393E-01  0.98104461211E-02  0.10286866403E+01  0.10285736940E+01 0.  0.
     999903    2    3    3    0    0 -0.87447139965E-02  0.38246737651E-01 -0.12349373822E+00  0.13719376764E+00  0.45079302752E-01 0.  0.
         14    1    1    2    0    0 -0.32090550583E-02  0.11216823393E-01 -0.98104461211E-02  0.15243359685E-01  0.00000000000E+00 0.  1.
     999901    1    3    3    0    0  0.11953769055E-01 -0.49463561044E-01  0.13330418434E+00  0.89149287267E+00  0.88000000000E+00 0.  1.
        -11    1    4    4    0    0  0.34589970190E-02  0.41548228776E-01 -0.64102240851E-01  0.76469460426E-01  0.51100000000E-03 0. -1.
         11    1    4    4    0    0 -0.12203711016E-01 -0.33014911247E-02 -0.59391497367E-01  0.60724307215E-01  0.51100000000E-03 0.  1.
</event>
<event>
 7    1  0.2190295E+004  0.1043930E+01  0.7957747E-01            NaN
         13   -1    0    0    0    0  0.00000000000E+00  0.00000000000E+00  0.74505805969E-08  0.10566000000E+00  0.10566000000E+00 0. -1.
     999900   -1    0    0    0    0 -0.00000000000E+00 -0.00000000000E+00 -0.74505805969E-08  0.93827000000E+00  0.93827000000E+00 0.  1.
     999902    2    1    2    0    0  0.10828771350E-01  0.69544089237E-02 -0.43201976679E-02  0.10303546473E+01  0.10302652130E+01 0.  0.
         14    1    1    2    0    0 -0.10828771350E-01 -0.69544089237E-02  0.43201976679E-02  0.13575352678E-01  0.00000000000E+00 0. -1.
     999901    1    3    3    0    0 -0.79901489415E-01  0.49339650114E-01  0.54001417741E-01  0.88664243199E+00  0.88000000000E+00 0. -1.
        -11    1    3    3    0    0  0.72627976180E-02 -0.41413793999E-01 -0.40448648056E-01  0.58345563783E-01  0.51100000000E-03 0.  1.
         11    1    3    3    0    0  0.83467463148E-01 -0.97144719124E-03 -0.17872967353E-01  0.85366651551E-01  0.51100000000E-03 0. -1.
</event>
<event>
 8    1  0.2190295E+004  0.1043930E+01  0.7957747E-01            NaN
         13   -1    0    0    0    0  0.00000000000E+00  0.00000000000E+00  0.74505805969E-08  0.10566000000E+00  0.10566000000E+00 0.  1.
     999900   -1    0    0    0    0 -0.00000000000E+00 -0.00000000000E+00 -0.74505805969E-08  0.93827000000E+00  0.93827000000E+00 0. -1.
     999902    2    1    2    0    0  0.40462342859E-02 -0.14420497382E-01 -0.23614433798E-02  0.10287675737E+01  0.10286558324E+01 0.  0.
     999903    2    3    3    0    0  0.72638283938E-01  0.29356980389E-01 -0.10606780918E+00  0.13894941972E+00  0.43799640464E-01 0.  0.
         14    1    1    2    0    0 -0.40462342859E-02  0.14420497382E-01  0.23614433798E-02  0.15162426305E-01  0.00000000000E+00 0.  1.
     999901    1    3    3    0    0 -0.68592049652E-01 -0.43777477771E-01  0.10370636580E+00  0.88981815397E+00  0.88000000000E+00 0.  1.
        -11    1    4    4    0    0  0.15285608979E-01  0.27093175845E-01 -0.26683839830E-01  0.40987540159E-01  0.51100000000E-03 0.  1.
         11    1    4    4    0    0  0.57352674959E-01  0.22638045441E-02 -0.79383969352E-01  0.97961879560E-01  0.51100000000E-03 0. -1.
</event>
<event>
 8    1  0.2190295E+004  0.1043930E+01  0.7957747E-01            NaN
         13   -1    0    0    0    0  0.00000000000E+00  0.00000000000E+00  0.74505805969E-08  0.10566000000E+00  0.10566000000E+00 0. -1.
     999900   -1    0    0    0    0 -0.00000000000E+00 -0.00000000000E+00 -0.74505805969E-08  0.93827000000E+00  0.93827000000E+00 0. -1.
     999902    2    1    2    0    0  0.40372788736E-02 -0.12874630898E-01  0.34057654695E-02  0.10300140027E+01  0.10299199925E+01 0.  0.
     999903    2    3    3    0    0 -0.11552939831E+00 -0.23165851130E-01 -0.59480452704E-01  0.13964510394E+00  0.45597502854E-01 0.  0.
         14    1    1    2    0    0 -0.40372788736E-02  0.12874630898E-01 -0.34057654695E-02  0.13915997266E-01  0.00000000000E+00 0.  1.
     999901    1    3    3    0    0  0.11956667719E+00  0.10291220232E-01  0.62886218173E-01  0.89036889880E+00  0.88000000000E+00 0.  1.
        -11    1    4    4    0    0 -0.56386262414E-01 -0.30566932456E-01 -0.44860321633E-01  0.78271690456E-01  0.51100000000E-03 0.  1.
         11    1    4    4    0    0 -0.59143135900E-01  0.74010813255E-02 -0.14620131071E-01  0.61373413482E-01  0.51100000000E-03 0. -1.
</event>
<event>
 8    1  0.2190295E+004  0.1043930E+01  0.7957747E-01            NaN
         13   -1    0    0    0    0  0.00000000000E+00  0.00000000000E+00  0.74505805969E-08  0.10566000000E+00  0.10566000000E+00 0.  1.
     999900   -1    0    0    0    0 -0.00000000000E+00 -0.00000000000E+00 -0.74505805969E-08  0.93827000000E+00  0.93827000000E+00 0.  1.
     999902    2    1    2    0    0 -0.13228995016E-01  0.43746567541E-02  0.13084552358E-02  0.10299351443E+01  0.10298400582E+01 0.  0.
     999903    2    3    3    0    0  0.25679006833E-01 -0.45300824471E-01 -0.12088747043E+00  0.13925375891E+00  0.45456053210E-01 0.  0.
         14    1    1    2    0    0  0.13228995016E-01 -0.43746567541E-02 -0.13084552358E-02  0.13994855696E-01  0.00000000000E+00 0. -1.
     999901    1    3    3    0    0 -0.38908001849E-01  0.49675481225E-01  0.12219592567E+00  0.89068138540E+00  0.88000000000E+00 0. -1.
        -11    1    4    4    0    0  0.99553275334E-03 -0.31618964001E-02 -0.64784158753E-01  0.64870925850E-01  0.51100000000E-03 0. -1.
         11    1    4    4    0    0  0.24683474079E-01 -0.42138928071E-01 -0.56103311676E-01  0.74382833057E-01  0.51100000000E-03 0.  1.
</event>
<event>
 8    1  0.2190295E+004  0.1043930E+01  0.7957747E-01            NaN
         13   -1    0    0    0    0  0.00000000000E+00  0.00000000000E+00  0.74505805969E-08  0.10566000000E+00  0.10566000000E+00 0. -1.
     999900   -1    0    0    0    0 -0.00000000000E+00 -0.00000000000E+00 -0.74505805969E-08  0.93827000000E+00  0.93827000000E+00 0.  1.
     999902    2    1    2    0    0 -0.41162216202E-03  0.85246064578E-02 -0.10728993475E-01  0.10302205270E+01  0.10301293048E+01 0.  0.
     999903    2    3    3    0    0  0.49785494926E-01  0.67002159343E-02 -0.12433463129E+00  0.14149710554E+00  0.45153537391E-01 0.  0.
         14    1    1    2    0    0  0.41162216202E-03 -0.85246064578E-02  0.10728993475E-01  0.13709472967E-01  0.00000000000E+00 0. -1.
     999901    1    3    3    0    0 -0.50197117088E-01  0.18243905235E-02  0.11360563782E+00  0.88872342149E+00  0.88000000000E+00 0. -1.
        -11    1    4    4    0    0  0.34612649939E-01 -0.16958696942E-01 -0.60356872819E-01  0.71615962991E-01  0.51100000000E-03 0. -1.
         11    1    4    4    0    0  0.15172844987E-01  0.23658912876E-01 -0.63977758475E-01  0.69881142549E-01  0.51100000000E-03 0.  1.
</event>
<event>
 8    1  0.2190295E+004  0.1043930E+01  0.7957747E-01            NaN
         13   -1    0    0    0    0  0.00000000000E+00  0.00000000000E+00  0.74505805969E-08  0.10566000000E+00  0.10566000000E+00 0.  1.
     999900   -1    0    0    0    0 -0.00000000000E+00 -0.00000000000E+00 -0.74505805969E-08  0.93827000000E+00  0.93827000000E+00 0.  1.
     999902    2    1    2    0    0  0.83388807644E-02 -0.11219606029E-01 -0.97262919325E-03  0.10299170596E+01  0.10298217259E+01 0.  0.
     999903    2    3    3    0    0  0.42855380074E-01 -0.11061586426E+00 -0.62616657250E-01  0.14150781206E+00  0.45068415572E-01 0.  0.
         14    1    1    2    0    0 -0.83388807644E-02  0.11219606029E-01  0.97262919325E-03  0.14012940426E-01  0.00000000000E+00 0.  1.
     999901    1    3    3    0    0 -0.34516499310E-01  0.99396258227E-01  0.61644028057E-01  0.88840924751E+00  0.88000000000E+00 0. -1.
        -11    1    4    4    0    0  0.30391952160E-01 -0.22362878790E-01 -0.20118843103E-01  0.42764448701E-01  0.51100000000E-03 0.  1.
         11    1    4    4    0    0  0.12463427914E-01 -0.88252985466E-01 -0.42497814147E-01  0.98743363358E-01  0.51100000000E-03 0. -1.
</event>
<event>
 8    1  0.2190295E+004  0.1043930E+01  0.7957747E-01            NaN
         13   -1    0    0    0    0  0.00000000000E+00  0.00000000000E+00  0.74505805969E-08  0.10566000000E+00  0.10566000000E+00 0.  1.
     999900   -1    0    0    0    0 -0.00000000000E+00 -0.00000000000E+00 -0.74505805969E-08  0.93827000000E+00  0.93827000000E+00 0. -1.
     999902    2    1    2    0    0  0.11051256579E-01  0.75355357753E-02  0.38579083982E-02  0.10300088640E+01  0.10299147838E+01 0.  0.
     999903    2    3    3    0    0  0.91833842565E-01 -0.86815527525E-01 -0.40809565421E-01  0.14016442106E+00  0.44835854421E-01 0.  0.
         14    1    1    2    0    0 -0.11051256579E-01 -0.75355357753E-02 -0.38579083982E-02  0.13921136038E-01  0.00000000000E+00 0.  1.
     999901    1    3    3    0    0 -0.80782585986E-01  0.94351063301E-01  0.44667473819E-01  0.88984444290E+00  0.88000000000E+00 0.  1.
        -11    1    4    4    0    0  0.71109561913E-01 -0.86568696827E-01 -0.41368154580E-01  0.11942484834E+00  0.51100000000E-03 0.  1.
         11    1    4    4    0    0  0.20724280652E-01 -0.24683069811E-03  0.55858915911E-03  0.20739572724E-01  0.51100000000E-03 0. -1.
</event>
<event>
 8    1  0.2190295E+004  0.1043930E+01  0.7957747E-01            NaN
         13   -1    0    0    0    0  0.00000000000E+00  0.00000000000E+00  0.74505805969E-08  0.10566000000E+00  0.10566000000E+00 0. -1.
     999900   -1    0    0    0    0 -0.00000000000E+00 -0.00000000000E+00 -0.74505805969E-08  0.93827000000E+00  0.93827000000E+00 0. -1.
     999902    2    1    2    0    0 -0.75709664955E-02  0.45365948529E-02  0.10893288932E-01  0.10299098727E+01  0.10298144405E+01 0.  0.
     999903    2    3    3    0    0 -0.77774433106E-01  0.76744455695E-01 -0.75462329381E-01  0.13996616956E+00  0.44242417896E-01 0.  0.
         14    1    1    2    0    0  0.75709664955E-02 -0.45365948529E-02 -0.10893288932E-01  0.14020127328E-01  0.00000000000E+00 0.  1.
     999901    1    3    3    0    0  0.70203466610E-01 -0.72207860842E-01  0.86355618313E-01  0.88994370311E+00  0.88000000000E+00 0.  1.
        -11    1    4    4    0    0 -0.53340766554E-02  0.91095806989E-02 -0.28299934858E-01  0.30209009720E-01  0.51100000000E-03 0. -1.
         11    1    4    4    0    0 -0.72440356450E-01  0.67634874996E-01 -0.47162394523E-01  0.10975715984E+00  0.51100000000E-03 0.  1.
</event>
<event>
 8    1  0.2190295E+004  0.1043930E+01  0.7957747E-01            NaN
         13   -1    0    0    0    0  0.00000000000E+00  0.00000000000E+00  0.74505805969E-08  0.10566000000E+00  0.10566000000E+00 0.  1.
     999900   -1    0    0    0    0 -0.00000000000E+00 -0.00000000000E+00 -0.74505805969E-08  0.93827000000E+00  0.93827000000E+00 0.  1.
     999902    2    1    2    0    0 -0.28779683359E-02  0.13298619061E-01 -0.64341342241E-03  0.10303083279E+01  0.10302182781E+01 0.  0.
     999903    2    3    3    0    0 -0.51529430677E-01  0.12406688818E+00  0.91927367381E-02  0.14197656323E+00  0.44999590313E-01 0.  0.
         14    1    1    2    0    0  0.28779683359E-02 -0.13298619061E-01  0.64341342241E-03  0.13621672126E-01  0.00000000000E+00 0. -1.
     999901    1    3    3    0    0  0.48651462341E-01 -0.11076826912E+00 -0.98361501605E-02  0.88833176465E+00  0.88000000000E+00 0.  1.
        -11    1    4    4    0    0 -0.49187507611E-01  0.79898453117E-01 -0.87687406115E-02  0.94235479775E-01  0.51100000000E-03 0.  1.
         11    1    4    4    0    0 -0.23419230658E-02  0.44168435063E-01  0.17961477350E-01  0.47741083452E-01  0.51100000000E-03 0. -1.
</event>
<event>
 8    1  0.2190295E+004  0.1043930E+01  0.7957747E-01            NaN
         13   -1    0    0    0    0  0.00000000000E+00  0.00000000000E+00  0.74505805969E-08  0.10566000000E+00  0.10566000000E+00 0. -1.
     999900   -1    0    0    0    0 -0.00000000000E+00 -0.00000000000E+00 -0.74505805969E-08  0.93827000000E+00  0.93827000000E+00 0.  1.
     999902    2    1    2    0    0  0.38127997651E-02 -0.11930242881E-01  0.76444579035E-02  0.10292566952E+01  0.10291520970E+01 0.  0.
     999903    2    3    3    0    0 -0.63178567571E-01  0.10962239451E+00 -0.29050854283E-01  0.13762368050E+00  0.45691624208E-01 0.  0.
         14    1    1    2    0    0 -0.38127997651E-02  0.11930242881E-01 -0.76444579035E-02  0.14673304805E-01  0.00000000000E+00 0.  1.
     999901    1    3    3    0    0  0.66991367336E-01 -0.12155263739E+00  0.36695312187E-01  0.89163301469E+00  0.88000000000E+00 0. -1.
        -11    1    4    4    0    0  0.62505166369E-04  0.39899823895E-01 -0.33379654110E-02  0.40042514754E-01  0.51100000000E-03 0. -1.
         11    1    4    4    0    0 -0.63241072737E-01  0.69722570612E-01 -0.25712888872E-01  0.97581165749E-01  0.51100000000E-03 0.  1.
</event>
<event>
 8    1  0.2190295E+004  0.1043930E+01  0.7957747E-01            NaN
         13   -1    0    0    0    0  0.00000000000E+00  0.00000000000E+00  0.74505805969E-08  0.10566000000E+00  0.10566000000E+00 0.  1.
     999900   -1    0    0    0    0 -0.00000000000E+00 -0.00000000000E+00 -0.74505805969E-08  0.93827000000E+00  0.93827000000E+00 0.  1.
     999902    2    1    2    0    0 -0.59818515638E-02 -0.19397842071E-02  0.12118270788E-01  0.10302772421E+01  0.10301867781E+01 0.  0.
     999903    2    3    3    0    0  0.33955115573E-01 -0.90962280195E-01  0.96035669430E-01  0.14091674382E+00  0.34750433007E-01 0.  0.
         14    1    1    2    0    0  0.59818515638E-02  0.19397842071E-02 -0.12118270788E-01  0.13652757882E-01  0.00000000000E+00 0. -1.
     999901    1    3    3    0    0 -0.39936967137E-01  0.89022495988E-01 -0.83917398642E-01  0.88936049830E+00  0.88000000000E+00 0.  1.
        -11    1    4    4    0    0  0.33543373574E-01 -0.72426531574E-01  0.58214112603E-01  0.98792228508E-01  0.51100000000E-03 0. -1.
         11    1    4    4    0    0  0.41174199958E-03 -0.18535748622E-01  0.37821556828E-01  0.42124515312E-01  0.51100000000E-03 0.  1.
</event>
<event>
 8    1  0.2190295E+004  0.1043930E+01  0.7957747E-01            NaN
         13   -1    0    0    0    0  0.00000000000E+00  0.00000000000E+00  0.74505805969E-08  0.10566000000E+00  0.10566000000E+00 0. -1.
     999900   -1    0    0    0    0 -0.00000000000E+00 -0.00000000000E+00 -0.74505805969E-08  0.93827000000E+00  0.93827000000E+00 0.  1.
     999902    2    1    2    0    0 -0.11194755848E-01  0.50326623776E-02 -0.72110757055E-02  0.10296944859E+01  0.10295960783E+01 0.  0.
     999903    2    3    3    0    0  0.10084654058E+00  0.84145677128E-01  0.10238733292E-01  0.13889898914E+00  0.44017925860E-01 0.  0.
         14    1    1    2    0    0  0.11194755848E-01 -0.50326623776E-02  0.72110757055E-02  0.14235514108E-01  0.00000000000E+00 0.  1.
     999901    1    3    3    0    0 -0.11204129643E+00 -0.79113014750E-01 -0.17449808997E-01  0.89079549676E+00  0.88000000000E+00 0.  1.
        -11    1    4    4    0    0  0.48624398085E-01  0.14943479778E-01 -0.40503897693E-02  0.51032405932E-01  0.51100000000E-03 0. -1.
         11    1    4    4    0    0  0.52222142496E-01  0.69202197350E-01  0.14289123061E-01  0.87866583203E-01  0.51100000000E-03 0.  1.
</event>
<event>
 8    1  0.2190295E+004  0.1043930E+01  0.7957747E-01            NaN
         13   -1    0    0    0    0  0.00000000000E+00  0.00000000000E+00  0.74505805969E-08  0.10566000000E+00  0.10566000000E+00 0.  1.
     999900   -1    0    0    0    0 -0.00000000000E+00 -0.00000000000E+00 -0.74505805969E-08  0.93827000000E+00  0.93827000000E+00 0.  1.
     999902    2    1    2    0    0  0.44873374773E-02  0.83280778109E-02  0.99337174541E-02  0.10302124266E+01  0.10301210958E+01 0.  0.
     999903    2    3    3    0    0  0.17497034806E-01 -0.91948068226E-01  0.94770583304E-01  0.14036870352E+00  0.44286747348E-01 0.  0.
         14    1    1    2    0    0 -0.44873374773E-02 -0.83280778109E-02 -0.99337174541E-02  0.13717573405E-01  0.00000000000E+00 0. -1.
     999901    1    3    3    0    0 -0.13009697329E-01  0.10027614604E+00 -0.84836865850E-01  0.88984372307E+00  0.88000000000E+00 0.  1.
        -11    1    4    4    0    0  0.21500573053E-01 -0.35780906282E-01  0.63394139269E-01  0.75905374716E-01  0.51100000000E-03 0.  1.
         11    1    4    4    0    0 -0.40035382471E-02 -0.56167161944E-01  0.31376444034E-01  0.64463328805E-01  0.51100000000E-03 0. -1.
</event>
<event>
 8    1  0.2190295E+004  0.1043930E+01  0.7957747E-01            NaN
         13   -1    0    0    0    0  0.00000000000E+00  0.00000000000E+00  0.74505805969E-08  0.10566000000E+00  0.10566000000E+00 0. -1.
     999900   -1    0    0    0    0 -0.00000000000E+00 -0.00000000000E+00 -0.74505805969E-08  0.93827000000E+00  0.93827000000E+00 0. -1.
     999902    2    1    2    0    0  0.15648390851E-02 -0.55666396302E-02  0.12151896010E-01  0.10304724826E+01  0.10303846042E+01 0.  0.
     999903    2    3    3    0    0  0.43777434917E-01 -0.87250724471E-02  0.12696922862E+00  0.14200475734E+00  0.45294319677E-01 0.  0.
         14    1    1    2    0    0 -0.15648390851E-02  0.55666396302E-02 -0.12151896010E-01  0.13457517407E-01  0.00000000000E+00 0.  1.
     999901    1    3    3    0    0 -0.42212595832E-01  0.31584328169E-02 -0.11481733261E+00  0.88846772525E+00  0.88000000000E+00 0. -1.
        -11    1    4    4    0    0  0.50354313842E-01 -0.91668028392E-02  0.82797809608E-01  0.97341284118E-01  0.51100000000E-03 0. -1.
         11    1    4    4    0    0 -0.65768789257E-02  0.44173039207E-03  0.44171419010E-01  0.44663473225E-01  0.51100000000E-03 0.  1.
</event>
<event>
 8    1  0.2190295E+004  0.1043930E+01  0.7957747E-01            NaN
         13   -1    0    0    0    0  0.00000000000E+00  0.00000000000E+00  0.74505805969E-08  0.10566000000E+00  0.10566000000E+00 0.  1.
     999900   -1    0    0    0    0 -0.00000000000E+00 -0.00000000000E+00 -0.74505805969E-08  0.93827000000E+00  0.93827000000E+00 0. -1.
     999902    2    1    2    0    0 -0.63046863824E-02 -0.29984451551E-04 -0.12578870144E-01  0.10298595365E+01  0.10297634131E+01 0.  0.
     999903    2    3    3    0    0  0.97701786840E-01  0.48874700908E-01 -0.75428827782E-01  0.14016344686E+00  0.44965633919E-01 0.  0.
         14    1    1    2    0    0  0.63046863824E-02  0.29984451551E-04  0.12578870144E-01  0.14070463516E-01  0.00000000000E+00 0.  1.
     999901    1    3    3    0    0 -0.10400647322E+00 -0.48904685360E-01  0.62849957638E-01  0.88969608963E+00  0.88000000000E+00 0.  1.
        -11    1    4    4    0    0  0.56211721558E-01  0.16052007573E-01 -0.16028642427E-01  0.60618504491E-01  0.51100000000E-03 0.  1.
         11    1    4    4    0    0  0.41490065282E-01  0.32822693335E-01 -0.59400185355E-01  0.79544942366E-01  0.51100000000E-03 0. -1.
</event>
<event>
 8    1  0.2190295E+004  0.1043930E+01  0.7957747E-01            NaN
         13   -1    0    0    0    0  0.00000000000E+00  0.00000000000E+00  0.74505805969E-08  0.10566000000E+00  0.10566000000E+00 0.  1.
     999900   -1    0    0    0    0 -0.00000000000E+00 -0.00000000000E+00 -0.74505805969E-08  0.93827000000E+00  0.93827000000E+00 0. -1.
     999902    2    1    2    0    0 -0.31875689631E-02 -0.71157930617E-02 -0.11605487982E-01  0.10299484959E+01  0.10298535923E+01 0.  0.
     999903    2    3    3    0    0  0.66780635716E-01 -0.11606639227E-01  0.11207294983E+00  0.13853833586E+00  0.45145952628E-01 0.  0.
         14    1    1    2    0    0  0.31875689631E-02  0.71157930617E-02  0.11605487982E-01  0.13981504143E-01  0.00000000000E+00 0.  1.
     999901    1    3    3    0    0 -0.69968204679E-01  0.44908461656E-02 -0.12367843781E+00  0.89141016000E+00  0.88000000000E+00 0. -1.
        -11    1    4    4    0    0  0.45754120733E-01 -0.70838893794E-02  0.33703424359E-01  0.57269564232E-01  0.51100000000E-03 0. -1.
         11    1    4    4    0    0  0.21026514983E-01 -0.45227498479E-02  0.78369525471E-01  0.81268771629E-01  0.51100000000E-03 0.  1.
</event>
<event>
 8    1  0.2190295E+004  0.1043930E+01  0.7957747E-01            NaN
         13   -1    0    0    0    0  0.00000000000E+00  0.00000000000E+00  0.74505805969E-08  0.10566000000E+00  0.10566000000E+00 0. -1.
     999900   -1    0    0    0    0 -0.00000000000E+00 -0.00000000000E+00 -0.74505805969E-08  0.93827000000E+00  0.93827000000E+00 0. -1.
     999902    2    1    2    0    0 -0.10436531146E-01  0.15698000545E-02  0.10904277681E-01  0.10287547331E+01  0.10286428010E+01 0.  0.
     999903    2    3    3    0    0 -0.46125507972E-01 -0.11877849511E+00 -0.30952637144E-01  0.13886180888E+00  0.45701672106E-01 0.  0.
         14    1    1    2    0    0  0.10436531146E-01 -0.15698000545E-02 -0.10904277681E-01  0.15175266927E-01  0.00000000000E+00 0.  1.
     999901    1    3    3    0    0  0.35688976826E-01  0.12034829516E+00  0.41856914825E-01  0.88989292420E+00  0.88000000000E+00 0. -1.
        -11    1    4    4    0    0 -0.48146711606E-01 -0.61850470703E-01 -0.19081030600E-01  0.80671763427E-01  0.51100000000E-03 0.  1.
         11    1    4    4    0    0  0.20212036347E-02 -0.56928024403E-01 -0.11871606545E-01  0.58190045451E-01  0.51100000000E-03 0. -1.
</event>
<event>
 8    1  0.2190295E+004  0.1043930E+01  0.7957747E-01            NaN
         13   -1    0    0    0    0  0.00000000000E+00  0.00000000000E+00  0.74505805969E-08  0.10566000000E+00  0.10566000000E+00 0.  1.
     999900   -1    0    0    0    0 -0.00000000000E+00 -0.00000000000E+00 -0.74505805969E-08  0.93827000000E+00  0.93827000000E+00 0.  1.
     999902    2    1    2    0    0 -0.10188349247E-01  0.49463552770E-02 -0.42010682359E-02  0.10318503533E+01  0.10317796439E+01 0.  0.
     999903    2    3    3    0    0 -0.61537373745E-01  0.71857838856E-02  0.11887001784E+00  0.14180078746E+00  0.46248225122E-01 0.  0.
         14    1    1    2    0    0  0.10188349247E-01 -0.49463552770E-02  0.42010682359E-02  0.12079646735E-01  0.00000000000E+00 0. -1.
     999901    1    3    3    0    0  0.51349024498E-01 -0.22394286087E-02 -0.12307108607E+00  0.89004956580E+00  0.88000000000E+00 0.  1.
        -11    1    4    4    0    0 -0.33281814005E-01 -0.19108724035E-01  0.65827347901E-01  0.76199234448E-01  0.51100000000E-03 0.  1.
         11    1    4    4    0    0 -0.28255559740E-01  0.26294507921E-01  0.53042669936E-01  0.65601553015E-01  0.51100000000E-03 0. -1.
</event>
<event>
 8    1  0.2190295E+004  0.1043930E+01  0.7957747E-01            NaN
         13   -1    0    0    0    0  0.00000000000E+00  0.00000000000E+00  0.74505805969E-08  0.10566000000E+00  0.10566000000E+00 0.  1.
     999900   -1    0    0    0    0 -0.00000000000E+00 -0.00000000000E+00 -0.74505805969E-08  0.93827000000E+00  0.93827000000E+00 0.  1.
     999902    2    1    2    0    0 -0.93855862810E-03 -0.41887179186E-02 -0.14805578796E-01  0.10285147020E+01  0.10283991738E+01 0.  0.
     999903    2    3    3    0    0  0.55982468616E-02 -0.13092051002E+00  0.14539814202E-01  0.13892781523E+00  0.43795106299E-01 0.  0.
         14    1    1    2    0    0  0.93855862810E-03  0.41887179186E-02  0.14805578796E-01  0.15415298038E-01  0.00000000000E+00 0.  1.
     999901    1    3    3    0    0 -0.65368054897E-02  0.12673179210E+00 -0.29345392999E-01  0.88958688673E+00  0.88000000000E+00 0. -1.
        -11    1    4    4    0    0 -0.15651542778E-01 -0.65203154774E-01 -0.47204661171E-02  0.67223255687E-01  0.51100000000E-03 0. -1.
         11    1    4    4    0    0  0.21249789640E-01 -0.65717355246E-01  0.19260280320E-01  0.71704559543E-01  0.51100000000E-03 0.  1.
</event>
<event>
 8    1  0.2190295E+004  0.1043930E+01  0.7957747E-01            NaN
         13   -1    0    0    0    0  0.00000000000E+00  0.00000000000E+00  0.74505805969E-08  0.10566000000E+00  0.10566000000E+00 0.  1.
     999900   -1    0    0    0    0 -0.00000000000E+00 -0.00000000000E+00 -0.74505805969E-08  0.93827000000E+00  0.93827000000E+00 0.  1.
     999902    2    1    2    0    0 -0.30094317799E-02 -0.11249615173E-01  0.72788387639E-02  0.10301971192E+01  0.10301055831E+01 0.  0.
     999903    2    3    3    0    0 -0.64584269438E-01 -0.46935712592E-01  0.10760532866E+00  0.14164190834E+00  0.45928580061E-01 0.  0.
         14    1    1    2    0    0  0.30094317799E-02  0.11249615173E-01 -0.72788387639E-02  0.13732880795E-01  0.00000000000E+00 0. -1.
     999901    1    3    3    0    0  0.61574837659E-01  0.35686097419E-01 -0.10032648990E+00  0.88855521087E+00  0.88000000000E+00 0.  1.
        -11    1    4    4    0    0 -0.16862373774E-02 -0.40660838018E-02  0.38743205486E-01  0.38995814216E-01  0.51100000000E-03 0. -1.
         11    1    4    4    0    0 -0.62898032061E-01 -0.42869628790E-01  0.68862123174E-01  0.10264609412E+00  0.51100000000E-03 0.  1.
</event>
<event>
 8    1  0.2190295E+004  0.1043930E+01  0.7957747E-01            NaN
         13   -1    0    0    0    0  0.00000000000E+00  0.00000000000E+00  0.74505805969E-08  0.10566000000E+00  0.10566000000E+00 0. -1.
     999900   -1    0    0    0    0 -0.00000000000E+00 -0.00000000000E+00 -0.74505805969E-08  0.93827000000E+00  0.93827000000E+00 0. -1.
     999902    2    1    2    0    0 -0.28541518798E-02 -0.13053110896E-01  0.39329319031E-02  0.10300016892E+01  0.10299075114E+01 0.  0.
     999903    2    3    3    0    0  0.10600625695E+00  0.30201155057E-01  0.71842147521E-01  0.13964604025E+00  0.46800492704E-01 0.  0.
         14    1    1    2    0    0  0.28541518798E-02  0.13053110896E-01 -0.39329319031E-02  0.13928310751E-01  0.00000000000E+00 0.  1.
     999901    1    3    3    0    0 -0.10886040883E+00 -0.43254265953E-01 -0.67909215618E-01  0.89035564900E+00  0.88000000000E+00 0. -1.
        -11    1    4    4    0    0  0.48250008779E-01  0.12999494734E-01  0.60246802290E-01  0.78275082355E-01  0.51100000000E-03 0. -1.
         11    1    4    4    0    0  0.57756248176E-01  0.17201660323E-01  0.11595345231E-01  0.61370957898E-01  0.51100000000E-03 0.  1.
</event>
<event>
 8    1  0.2190295E+004  0.1043930E+01  0.7957747E-01            NaN
         13   -1    0    0    0    0  0.00000000000E+00  0.00000000000E+00  0.74505805969E-08  0.10566000000E+00  0.10566000000E+00 0.  1.
     999900   -1    0    0    0    0 -0.00000000000E+00 -0.00000000000E+00 -0.74505805969E-08  0.93827000000E+00  0.93827000000E+00 0. -1.
     999902    2    1    2    0    0 -0.39842483121E-02 -0.67338639061E-02  0.12374288758E-01  0.10292895704E+01  0.10291854437E+01 0.  0.
     999903    2    3    3    0    0  0.62214982861E-01 -0.10023900488E+00  0.60532061909E-01  0.14055748435E+00  0.46623102605E-01 0.  0.
         14    1    1    2    0    0  0.39842483121E-02  0.67338639061E-02 -0.12374288758E-01  0.14640429638E-01  0.00000000000E+00 0. -1.
     999901    1    3    3    0    0 -0.66199231173E-01  0.93505140969E-01 -0.48157773150E-01  0.88873208601E+00  0.88000000000E+00 0. -1.
        -11    1    4    4    0    0  0.44537001224E-01 -0.72207136896E-01  0.65316159812E-01  0.10706949589E+00  0.51100000000E-03 0.  1.
         11    1    4    4    0    0  0.17677981637E-01 -0.28031867979E-01 -0.47840979029E-02  0.33487988457E-01  0.51100000000E-03 0. -1.
</event>
<event>
 8    1  0.2190295E+004  0.1043930E+01  0.7957747E-01            NaN
         13   -1    0    0    0    0  0.00000000000E+00  0.00000000000E+00  0.74505805969E-08  0.10566000000E+00  0.10566000000E+00 0.  1.
     999900   -1    0    0    0    0 -0.00000000000E+00 -0.00000000000E+00 -0.74505805969E-08  0.93827000000E+00  0.93827000000E+00 0. -1.
     999902    2    1    2    0    0 -0.90520401480E-02 -0.93194973428E-02  0.89094461376E-02  0.10281765657E+01  0.10280558738E+01 0.  0.
     999903    2    3    3    0    0 -0.37534450520E-01 -0.10484199896E+00  0.72253696694E-01  0.14028676956E+00  0.45377321498E-01 0.  0.
         14    1    1    2    0    0  0.90520401480E-02  0.93194973428E-02 -0.89094461376E-02  0.15753434294E-01  0.00000000000E+00 0. -1.
     999901    1    3    3    0    0  0.28482410372E-01  0.95522501619E-01 -0.63344250556E-01  0.88788979614E+00  0.88000000000E+00 0.  1.
        -11    1    4    4    0    0 -0.76634391890E-02 -0.82415451388E-01  0.46856565190E-01  0.95114845057E-01  0.51100000000E-03 0.  1.
         11    1    4    4    0    0 -0.29871011331E-01 -0.22426547574E-01  0.25397131504E-01  0.45171924507E-01  0.51100000000E-03 0. -1.
</event>
<event>
 8    1  0.2190295E+004  0.1043930E+01  0.7957747E-01            NaN
         13   -1    0    0    0    0  0.00000000000E+00  0.00000000000E+00  0.74505805969E-08  0.10566000000E+00  0.10566000000E+00 0.  1.
     999900   -1    0    0    0    0 -0.00000000000E+00 -0.00000000000E+00 -0.74505805969E-08  0.93827000000E+00  0.93827000000E+00 0.  1.
     999902    2    1    2    0    0 -0.73722061131E-02  0.95638277273E-02  0.34345492428E-03  0.10318496778E+01  0.10317789605E+01 0.  0.
     999903    2    3    3    0    0 -0.17548229255E-01  0.13398152147E+00  0.11396959489E-01  0.14297089305E+00  0.45296767330E-01 0.  0.
         14    1    1    2    0    0  0.73722061131E-02 -0.95638277273E-02 -0.34345492428E-03  0.12080322225E-01  0.00000000000E+00 0.  1.
     999901    1    3    3    0    0  0.10176023142E-01 -0.12441769374E+00 -0.11053504565E-01  0.88887878472E+00  0.88000000000E+00 0. -1.
        -11    1    4    4    0    0 -0.20545623194E-02  0.63434072045E-01 -0.16436550738E-01  0.65563130216E-01  0.51100000000E-03 0.  1.
         11    1    4    4    0    0 -0.15493666936E-01  0.70547449422E-01  0.27833510228E-01  0.77407762839E-01  0.51100000000E-03 0. -1.
</event>
<event>
 8    1  0.2190295E+004  0.1043930E+01  0.7957747E-01            NaN
         13   -1    0    0    0    0  0.00000000000E+00  0.00000000000E+00  0.74505805969E-08  0.10566000000E+00  0.10566000000E+00 0.  1.
     999900   -1    0    0    0    0 -0.00000000000E+00 -0.00000000000E+00 -0.74505805969E-08  0.93827000000E+00  0.93827000000E+00 0.  1.
     999902    2    1    2    0    0  0.37307725472E-02  0.14693550234E-01 -0.16731683402E-02  0.10286781616E+01  0.10285650886E+01 0.  0.
     999903    2    3    3    0    0  0.38083984200E-01 -0.97749041058E-01  0.76413683300E-01  0.13743126209E+00  0.45199954909E-01 0.  0.
         14    1    1    2    0    0 -0.37307725472E-02 -0.14693550234E-01  0.16731683402E-02  0.15251838400E-01  0.00000000000E+00 0.  1.
     999901    1    3    3    0    0 -0.34353211653E-01  0.11244259129E+00 -0.78086851640E-01  0.89124689951E+00  0.88000000000E+00 0.  1.
        -11    1    4    4    0    0  0.46688048311E-01 -0.69341511697E-01  0.63873021015E-01  0.10520476716E+00  0.51100000000E-03 0.  1.
         11    1    4    4    0    0 -0.86040641111E-02 -0.28407529361E-01  0.12540662285E-01  0.32226494925E-01  0.51100000000E-03 0. -1.
</event>
<event>
 8    1  0.2190295E+004  0.1043930E+01  0.7957747E-01            NaN
         13   -1    0    0    0    0  0.00000000000E+00  0.00000000000E+00  0.74505805969E-08  0.10566000000E+00  0.10566000000E+00 0. -1.
     999900   -1    0    0    0    0 -0.00000000000E+00 -0.00000000000E+00 -0.74505805969E-08  0.93827000000E+00  0.93827000000E+00 0. -1.
     999902    2    1    2    0    0  0.19424699855E-01 -0.10397150495E-01  0.15239272921E-01  0.10171409138E+01  0.10167880720E+01 0.  0.
     999903    2    3    3    0    0 -0.73440782563E-01  0.92367361788E-01 -0.20611479796E-02  0.12613931590E+00  0.44515172895E-01 0.  0.
         14    1    1    2    0    0 -0.19424699855E-01  0.10397150495E-01 -0.15239272921E-01  0.26789086248E-01  0.00000000000E+00 0.  1.
     999901    1    3    3    0    0  0.92865482418E-01 -0.10276451228E+00  0.17300420900E-01  0.89100159785E+00  0.88000000000E+00 0. -1.
        -11    1    4    4    0    0 -0.55914161405E-01  0.46806138883E-01 -0.17398812261E-01  0.74967912282E-01  0.51100000000E-03 0.  1.
         11    1    4    4    0    0 -0.17526621158E-01  0.45561222905E-01  0.15337664281E-01  0.51171403619E-01  0.51100000000E-03 0. -1.
</event>
<event>
 8    1  0.2190295E+004  0.1043930E+01  0.7957747E-01            NaN
         13   -1    0    0    0    0  0.00000000000E+00  0.00000000000E+00  0.74505805969E-08  0.10566000000E+00  0.10566000000E+00 0. -1.
     999900   -1    0    0    0    0 -0.00000000000E+00 -0.00000000000E+00 -0.74505805969E-08  0.93827000000E+00  0.93827000000E+00 0.  1.
     999902    2    1    2    0    0  0.14614631306E-01 -0.56100225809E-02 -0.12593546137E-02  0.10282250398E+01  0.10281050951E+01 0.  0.
     999903    2    3    3    0    0 -0.28488291909E-01  0.54664661820E-02 -0.12927086564E+00  0.13785012012E+00  0.38081936492E-01 0.  0.
         14    1    1    2    0    0 -0.14614631306E-01  0.56100225809E-02  0.12593546137E-02  0.15704960223E-01  0.00000000000E+00 0.  1.
     999901    1    3    3    0    0  0.43102923215E-01 -0.11076488763E-01  0.12801151102E+00  0.89037491965E+00  0.88000000000E+00 0. -1.
        -11    1    4    4    0    0 -0.27678203846E-01  0.19393957240E-01 -0.87094459981E-01  0.93423308794E-01  0.51100000000E-03 0.  1.
         11    1    4    4    0    0 -0.81008806298E-03 -0.13927491058E-01 -0.42176405656E-01  0.44426811329E-01  0.51100000000E-03 0. -1.
</event>
<event>
 8    1  0.2190295E+004  0.1043930E+01  0.7957747E-01            NaN
         13   -1    0    0    0    0  0.00000000000E+00  0.00000000000E+00  0.74505805969E-08  0.10566000000E+00  0.10566000000E+00 0. -1.
     999900   -1    0    0    0    0 -0.00000000000E+00 -0.00000000000E+00 -0.74505805969E-08  0.93827000000E+00  0.93827000000E+00 0. -1.
     999902    2    1    2    0    0  0.10497325289E-01  0.86149988567E-02  0.22611942881E-02  0.10301631905E+01  0.10300711985E+01 0.  0.
     999903    2    3    3    0    0 -0.18112876320E-01  0.13031557793E+00 -0.23119488566E-01  0.14096481353E+00  0.45014906008E-01 0.  0.
         14    1    1    2    0    0 -0.10497325289E-01 -0.86149988567E-02 -0.22611942881E-02  0.13766809475E-01  0.00000000000E+00 0. -1.
     999901    1    3    3    0    0  0.28610201609E-01 -0.12170057907E+00  0.25380682854E-01  0.88919837699E+00  0.88000000000E+00 0.  1.
        -11    1    4    4    0    0  0.32722472669E-02  0.93256001946E-01 -0.29127111298E-01  0.97754995958E-01  0.51100000000E-03 0. -1.
         11    1    4    4    0    0 -0.21385123587E-01  0.37059575984E-01  0.60076227321E-02  0.43209817575E-01  0.51100000000E-03 0.  1.
</event>
<event>
 8    1  0.2190295E+004  0.1043930E+01  0.7957747E-01            NaN
         13   -1    0    0    0    0  0.00000000000E+00  0.00000000000E+00  0.74505805969E-08  0.10566000000E+00  0.10566000000E+00 0.  1.
     999900   -1    0    0    0    0 -0.00000000000E+00 -0.00000000000E+00 -0.74505805969E-08  0.93827000000E+00  0.93827000000E+00 0.  1.
     999902    2    1    2    0    0 -0.93172242523E-02 -0.70648500202E-02 -0.82377415520E-02  0.10296267430E+01  0.10295273900E+01 0.  0.
     999903    2    3    3    0    0 -0.96602880236E-02 -0.12812623288E+00 -0.34894152560E-01  0.14093864233E+00  0.46221708129E-01 0.  0.
         14    1    1    2    0    0  0.93172242523E-02  0.70648500202E-02  0.82377415520E-02  0.14303256953E-01  0.00000000000E+00 0.  1.
     999901    1    3    3    0    0  0.34306377131E-03  0.12106138286E+00  0.26656411008E-01  0.88868810072E+00  0.88000000000E+00 0.  1.
        -11    1    4    4    0    0 -0.21189312818E-01 -0.25676929197E-01 -0.56209813374E-02  0.33766080952E-01  0.51100000000E-03 0. -1.
         11    1    4    4    0    0  0.11529024795E-01 -0.10244930368E+00 -0.29273171222E-01  0.10717256138E+00  0.51100000000E-03 0.  1.
</event>
<event>
 8    1  0.2190295E+004  0.1043930E+01  0.7957747E-01            NaN
         13   -1    0    0    0    0  0.00000000000E+00  0.00000000000E+00  0.74505805969E-08  0.10566000000E+00  0.10566000000E+00 0.  1.
     999900   -1    0    0    0    0 -0.00000000000E+00 -0.00000000000E+00 -0.74505805969E-08  0.93827000000E+00  0.93827000000E+00 0.  1.
     999902    2    1    2    0    0 -0.81810768181E-02  0.58307702541E-02  0.94896608488E-02  0.10301103921E+01  0.10300176884E+01 0.  0.
     999903    2    3    3    0    0  0.21785918238E-01 -0.93268182599E-01 -0.90005179226E-01  0.13847265935E+00  0.43590881860E-01 0.  0.
         14    1    1    2    0    0  0.81810768181E-02 -0.58307702541E-02 -0.94896608488E-02  0.13819607906E-01  0.00000000000E+00 0. -1.
     999901    1    3    3    0    0 -0.29966995056E-01  0.99098952853E-01  0.99494840075E-01  0.89163773274E+00  0.88000000000E+00 0. -1.
        -11    1    4    4    0    0  0.21160475814E-01 -0.36695035276E-01 -0.15922685832E-01  0.45255766435E-01  0.51100000000E-03 0.  1.
         11    1    4    4    0    0  0.62544242428E-03 -0.56573147323E-01 -0.74082493394E-01  0.93216892916E-01  0.51100000000E-03 0. -1.
</event>
<event>
 8    1  0.2190295E+004  0.1043930E+01  0.7957747E-01            NaN
         13   -1    0    0    0    0  0.00000000000E+00  0.00000000000E+00  0.74505805969E-08  0.10566000000E+00  0.10566000000E+00 0.  1.
     999900   -1    0    0    0    0 -0.00000000000E+00 -0.00000000000E+00 -0.74505805969E-08  0.93827000000E+00  0.93827000000E+00 0.  1.
     999902    2    1    2    0    0  0.95911598133E-02  0.91121486943E-03  0.88827589187E-02  0.10308256471E+01  0.10307423493E+01 0.  0.
     999903    2    3    3    0    0  0.12958888504E+00  0.14353760560E-02 -0.42248712964E-01  0.14121103603E+00  0.36881750462E-01 0.  0.
         14    1    1    2    0    0 -0.95911598133E-02 -0.91121486943E-03 -0.88827589187E-02  0.13104352907E-01  0.00000000000E+00 0. -1.
     999901    1    3    3    0    0 -0.11999772523E+00 -0.52416118656E-03  0.51131471882E-01  0.88961461107E+00  0.88000000000E+00 0. -1.
        -11    1    4    4    0    0  0.78489223480E-01 -0.16175409881E-01 -0.31454839224E-01  0.86092218690E-01  0.51100000000E-03 0.  1.
         11    1    4    4    0    0  0.51099661565E-01  0.17610785937E-01 -0.10793873739E-01  0.55118817337E-01  0.51100000000E-03 0. -1.
</event>
<event>
 8    1  0.2190295E+004  0.1043930E+01  0.7957747E-01            NaN
         13   -1    0    0    0    0  0.00000000000E+00  0.00000000000E+00  0.74505805969E-08  0.10566000000E+00  0.10566000000E+00 0. -1.
     999900   -1    0    0    0    0 -0.00000000000E+00 -0.00000000000E+00 -0.74505805969E-08  0.93827000000E+00  0.93827000000E+00 0.  1.
     999902    2    1    2    0    0  0.37122383996E-02 -0.78015807393E-03 -0.11883418314E-01  0.10314558270E+01  0.10313803945E+01 0.  0.
     999903    2    3    3    0    0  0.10876852082E+00 -0.77838394562E-01  0.13187339621E-01  0.14151013363E+00  0.44292270272E-01 0.  0.
         14    1    1    2    0    0 -0.37122383996E-02  0.78015807393E-03  0.11883418314E-01  0.12474172974E-01  0.00000000000E+00 0. -1.
     999901    1    3    3    0    0 -0.10505628242E+00  0.77058236488E-01 -0.25070757936E-01  0.88994569339E+00  0.88000000000E+00 0. -1.
        -11    1    4    4    0    0  0.84334536697E-01 -0.48466077391E-01 -0.83846935253E-02  0.97631137165E-01  0.51100000000E-03 0.  1.
         11    1    4    4    0    0  0.24433984119E-01 -0.29372317170E-01  0.21572033147E-01  0.43878996467E-01  0.51100000000E-03 0. -1.
</event>
<event>
 8    1  0.2190295E+004  0.1043930E+01  0.7957747E-01            NaN
         13   -1    0    0    0    0  0.00000000000E+00  0.00000000000E+00  0.74505805969E-08  0.10566000000E+00  0.10566000000E+00 0. -1.
     999900   -1    0    0    0    0 -0.00000000000E+00 -0.00000000000E+00 -0.74505805969E-08  0.93827000000E+00  0.93827000000E+00 0. -1.
     999902    2    1    2    0    0 -0.93190317721E-02  0.96629712736E-02  0.41074599502E-02  0.10298911755E+01  0.10297954868E+01 0.  0.
     999903    2    3    3    0    0  0.12021478251E+00 -0.39367889650E-01 -0.33642017113E-01  0.13825893212E+00  0.44523278453E-01 0.  0.
         14    1    1    2    0    0  0.93190317721E-02 -0.96629712736E-02 -0.41074599502E-02  0.14038824532E-01  0.00000000000E+00 0.  1.
     999901    1    3    3    0    0 -0.12953381429E+00  0.49030860923E-01  0.37749477063E-01  0.89163224335E+00  0.88000000000E+00 0. -1.
        -11    1    4    4    0    0  0.10272877281E+00 -0.16713125937E-01 -0.17950823602E-01  0.10561734011E+00  0.51100000000E-03 0.  1.
         11    1    4    4    0    0  0.17486009701E-01 -0.22654763712E-01 -0.15691193511E-01  0.32641592009E-01  0.51100000000E-03 0. -1.
</event>
<event>
 8    1  0.2190295E+004  0.1043930E+01  0.7957747E-01            NaN
         13   -1    0    0    0    0  0.00000000000E+00  0.00000000000E+00  0.74505805969E-08  0.10566000000E+00  0.10566000000E+00 0.  1.
     999900   -1    0    0    0    0 -0.00000000000E+00 -0.00000000000E+00 -0.74505805969E-08  0.93827000000E+00  0.93827000000E+00 0. -1.
     999902    2    1    2    0    0  0.41385328682E-03 -0.11883633592E-01  0.68265447257E-02  0.10302189193E+01  0.10301276755E+01 0.  0.
     999903    2    3    3    0    0  0.74266323022E-01 -0.70698303692E-01  0.86534006762E-01  0.14158703136E+00  0.45221855813E-01 0.  0.
         14    1    1    2    0    0 -0.41385328682E-03  0.11883633592E-01 -0.68265447257E-02  0.13711080730E-01  0.00000000000E+00 0. -1.
     999901    1    3    3    0    0 -0.73852469735E-01  0.58814670099E-01 -0.79707462036E-01  0.88863188791E+00  0.88000000000E+00 0. -1.
        -11    1    4    4    0    0  0.68878176874E-01 -0.53444948682E-01  0.87446528446E-01  0.12348166766E+00  0.51100000000E-03 0.  1.
         11    1    4    4    0    0  0.53881461477E-02 -0.17253355010E-01 -0.91252168443E-03  0.18105363704E-01  0.51100000000E-03 0. -1.
</event>
<event>
 8    1  0.2190295E+004  0.1043930E+01  0.7957747E-01            NaN
         13   -1    0    0    0    0  0.00000000000E+00  0.00000000000E+00  0.74505805969E-08  0.10566000000E+00  0.10566000000E+00 0. -1.
     999900   -1    0    0    0    0 -0.00000000000E+00 -0.00000000000E+00 -0.74505805969E-08  0.93827000000E+00  0.93827000000E+00 0.  1.
     999902    2    1    2    0    0 -0.17485739325E-02 -0.12826823221E-01 -0.39236561183E-02  0.10304029906E+01  0.10303141963E+01 0.  0.
     999903    2    3    3    0    0 -0.66705455250E-01  0.10232342722E+00 -0.55866630896E-01  0.13901247620E+00  0.35828572048E-01 0.  0.
         14    1    1    2    0    0  0.17485739325E-02  0.12826823221E-01  0.39236561183E-02  0.13527009355E-01  0.00000000000E+00 0. -1.
     999901    1    3    3    0    0  0.64956881317E-01 -0.11515025044E+00  0.51942974778E-01  0.89139051444E+00  0.88000000000E+00 0. -1.
        -11    1    4    4    0    0 -0.51324909234E-02  0.22955402675E-01 -0.24042238550E-01  0.33639015005E-01  0.51100000000E-03 0. -1.
         11    1    4    4    0    0 -0.61572964326E-01  0.79368024544E-01 -0.31824392346E-01  0.10537346120E+00  0.51100000000E-03 0.  1.
</event>
<event>
 8    1  0.2190295E+004  0.1043930E+01  0.7957747E-01            NaN
         13   -1    0    0    0    0  0.00000000000E+00  0.00000000000E+00  0.74505805969E-08  0.10566000000E+00  0.10566000000E+00 0. -1.
     999900   -1    0    0    0    0 -0.00000000000E+00 -0.00000000000E+00 -0.74505805969E-08  0.93827000000E+00  0.93827000000E+00 0.  1.
     999902    2    1    2    0    0  0.53410302247E-03  0.42067261785E-02  0.13438187366E-01  0.10298386306E+01  0.10297422194E+01 0.  0.
     999903    2    3    3    0    0 -0.53929495464E-01  0.37701358684E-01  0.11703474091E+00  0.14145784522E+00  0.44535474245E-01 0.  0.
         14    1    1    2    0    0 -0.53410302247E-03 -0.42067261785E-02 -0.13438187366E-01  0.14091369375E-01  0.00000000000E+00 0.  1.
     999901    1    3    3    0    0  0.54463598486E-01 -0.33494632506E-01 -0.10359655355E+00  0.88838078540E+00  0.88000000000E+00 0.  1.
        -11    1    4    4    0    0 -0.17518787408E-01  0.15834759691E-01  0.85098886361E-01  0.88316075024E-01  0.51100000000E-03 0. -1.
         11    1    4    4    0    0 -0.36410708057E-01  0.21866598994E-01  0.31935854553E-01  0.53141770198E-01  0.51100000000E-03 0.  1.
</event>
<event>
 8    1  0.2190295E+004  0.1043930E+01  0.7957747E-01            NaN
         13   -1    0    0    0    0  0.00000000000E+00  0.00000000000E+00  0.74505805969E-08  0.10566000000E+00  0.10566000000E+00 0. -1.
     999900   -1    0    0    0    0 -0.00000000000E+00 -0.00000000000E+00 -0.74505805969E-08  0.93827000000E+00  0.93827000000E+00 0. -1.
     999902    2    1    2    0    0 -0.26358171416E-02  0.13259112887E-01 -0.34970162747E-02  0.10299664500E+01  0.10298717917E+01 0.  0.
     999903    2    3    3    0    0 -0.68396545106E-02  0.64696476726E-02 -0.13278802419E+00  0.14048349127E+00  0.44881117838E-01 0.  0.
         14    1    1    2    0    0  0.26358171416E-02 -0.13259112887E-01  0.34970162747E-02  0.13963550027E-01  0.00000000000E+00 0. -1.
     999901    1    3    3    0    0  0.42038373690E-02  0.67894652140E-02  0.12929100791E+00  0.88948295870E+00  0.88000000000E+00 0.  1.
        -11    1    4    4    0    0  0.17063150864E-01 -0.27150443075E-02 -0.30699612176E-01  0.35231376524E-01  0.51100000000E-03 0.  1.
         11    1    4    4    0    0 -0.23902805375E-01  0.91846919801E-02 -0.10208841201E+00  0.10525211475E+00  0.51100000000E-03 0. -1.
</event>
<event>
 8    1  0.2190295E+004  0.1043930E+01  0.7957747E-01            NaN
         13   -1    0    0    0    0  0.00000000000E+00  0.00000000000E+00  0.74505805969E-08  0.10566000000E+00  0.10566000000E+00 0.  1.
     999900   -1    0    0    0    0 -0.00000000000E+00 -0.00000000000E+00 -0.74505805969E-08  0.93827000000E+00  0.93827000000E+00 0. -1.
     999902    2    1    2    0    0  0.13097953951E-01 -0.64977867161E-02 -0.33330101439E-02  0.10289337809E+01  0.10288244938E+01 0.  0.
     999903    2    3    3    0    0 -0.52628678225E-01  0.11408964803E+00 -0.36632398665E-01  0.13765931766E+00  0.42684066678E-01 0.  0.
         14    1    1    2    0    0 -0.13097953951E-01  0.64977867161E-02  0.33330101439E-02  0.14996219075E-01  0.00000000000E+00 0.  1.
     999901    1    3    3    0    0  0.65726632176E-01 -0.12058743474E+00  0.33299388521E-01  0.89127446327E+00  0.88000000000E+00 0.  1.
        -11    1    4    4    0    0 -0.39930276151E-01  0.36597810399E-01 -0.14635693477E-01  0.56109636642E-01  0.51100000000E-03 0. -1.
         11    1    4    4    0    0 -0.12698402074E-01  0.77491837626E-01 -0.21996705189E-01  0.81549681017E-01  0.51100000000E-03 0.  1.
</event>
<event>
 7    1  0.3293146E+004  0.1043930E+01  0.7957747E-01            NaN
         13   -1    0    0    0    0  0.00000000000E+00  0.00000000000E+00  0.74505805969E-08  0.10566000000E+00  0.10566000000E+00 0.  1.
     999900   -1    0    0    0    0 -0.00000000000E+00 -0.00000000000E+00 -0.74505805969E-08  0.93827000000E+00  0.93827000000E+00 0. -1.
     999903    2    1    2    0    0  0.25233717966E-01 -0.57776262713E-01  0.36653562844E-01  0.85248822475E-01  0.44147944558E-01 0.  0.
         14    1    1    2    0    0 -0.68592227918E-01 -0.22830861929E-01 -0.14053913107E-01  0.73645464632E-01  0.00000000000E+00 0. -1.
     999901    1    1    2    0    0  0.43358509952E-01  0.80607124643E-01 -0.22599649737E-01  0.88503571289E+00  0.88000000000E+00 0.  1.
        -11    1    3    3    0    0  0.30220135240E-01 -0.15033810359E-01  0.18969333032E-01  0.38721683131E-01  0.51100000000E-03 0.  1.
         11    1    3    3    0    0 -0.49864172736E-02 -0.42742452355E-01  0.17684229812E-01  0.46527139344E-01  0.51100000000E-03 0. -1.
</event>
<event>
 8    1  0.2190295E+004  0.1043930E+01  0.7957747E-01            NaN
         13   -1    0    0    0    0  0.00000000000E+00  0.00000000000E+00  0.74505805969E-08  0.10566000000E+00  0.10566000000E+00 0. -1.
     999900   -1    0    0    0    0 -0.00000000000E+00 -0.00000000000E+00 -0.74505805969E-08  0.93827000000E+00  0.93827000000E+00 0.  1.
     999902    2    1    2    0    0  0.13034648824E-01  0.13383466761E-01 -0.47443650208E-02  0.10246549319E+01  0.10244736215E+01 0.  0.
     999903    2    3    3    0    0  0.78593062139E-01 -0.99502780584E-01 -0.97411193165E-02  0.13501108292E+00  0.45336854164E-01 0.  0.
         14    1    1    2    0    0 -0.13034648824E-01 -0.13383466761E-01  0.47443650208E-02  0.19275068144E-01  0.00000000000E+00 0. -1.
     999901    1    3    3    0    0 -0.65558413315E-01  0.11288624734E+00  0.49967542957E-02  0.88964384894E+00  0.88000000000E+00 0.  1.
        -11    1    4    4    0    0  0.52276869670E-01 -0.90632728536E-01 -0.17702802357E-01  0.10611697751E+00  0.51100000000E-03 0. -1.
         11    1    4    4    0    0  0.26316192469E-01 -0.88700520475E-02  0.79616830405E-02  0.28894105406E-01  0.51100000000E-03 0.  1.
</event>
<event>
 8    1  0.2190295E+004  0.1043930E+01  0.7957747E-01            NaN
         13   -1    0    0    0    0  0.00000000000E+00  0.00000000000E+00  0.74505805969E-08  0.10566000000E+00  0.10566000000E+00 0.  1.
     999900   -1    0    0    0    0 -0.00000000000E+00 -0.00000000000E+00 -0.74505805969E-08  0.93827000000E+00  0.93827000000E+00 0.  1.
     999902    2    1    2    0    0 -0.30603604338E-02 -0.12746800147E-01 -0.29468106582E-02  0.10304938393E+01  0.10304062415E+01 0.  0.
     999903    2    3    3    0    0 -0.12693264757E+00  0.18791159387E-01 -0.36101026094E-01  0.14064093667E+00  0.44850688847E-01 0.  0.
         14    1    1    2    0    0  0.30603604338E-02  0.12746800147E-01  0.29468106582E-02  0.13436160650E-01  0.00000000000E+00 0.  1.
     999901    1    3    3    0    0  0.12387228714E+00 -0.31537959534E-01  0.33154215435E-01  0.88985290268E+00  0.88000000000E+00 0.  1.
        -11    1    4    4    0    0 -0.35906634456E-01  0.15614871559E-01  0.71582073397E-02  0.39807181075E-01  0.51100000000E-03 0. -1.
         11    1    4    4    0    0 -0.91026013118E-01  0.31762878279E-02 -0.43259233433E-01  0.10083375559E+00  0.51100000000E-03 0.  1.
</event>
<event>
 8    1  0.2715794E+004  0.1043930E+01  0.7957747E-01            NaN
         13   -1    0    0    0    0  0.00000000000E+00  0.00000000000E+00  0.74505805969E-08  0.10566000000E+00  0.10566000000E+00 0. -1.
     999900   -1    0    0    0    0 -0.00000000000E+00 -0.00000000000E+00 -0.74505805969E-08  0.93827000000E+00  0.93827000000E+00 0.  1.
     999902    2    1    2    0    0 -0.31228419144E-02 -0.23145208775E-01 -0.65160118638E-02  0.10196831189E+01  0.10193947968E+01 0.  0.
     999903    2    3    3    0    0  0.41153297655E-01 -0.18271201083E-03 -0.11655076530E+00  0.13142904506E+00  0.44675336603E-01 0.  0.
         14    1    1    2    0    0  0.31228419144E-02  0.23145208775E-01  0.65160118638E-02  0.24246881067E-01  0.00000000000E+00 0. -1.
     999901    1    3    3    0    0 -0.44276139570E-01 -0.22962496764E-01  0.11003475344E+00  0.88825407388E+00  0.88000000000E+00 0. -1.
        -11    1    4    4    0    0  0.58730926267E-02  0.13541817164E-01 -0.69429097647E-01  0.70982636963E-01  0.51100000000E-03 0. -1.
         11    1    4    4    0    0  0.35280205029E-01 -0.13724529175E-01 -0.47121667655E-01  0.60446408094E-01  0.51100000000E-03 0.  1.
</event>
<event>
 8    1  0.2190295E+004  0.1043930E+01  0.7957747E-01            NaN
         13   -1    0    0    0    0  0.00000000000E+00  0.00000000000E+00  0.74505805969E-08  0.10566000000E+00  0.10566000000E+00 0.  1.
     999900   -1    0    0    0    0 -0.00000000000E+00 -0.00000000000E+00 -0.74505805969E-08  0.93827000000E+00  0.93827000000E+00 0.  1.
     999902    2    1    2    0    0 -0.67143351420E-04 -0.64368451820E-02  0.12170290532E-01  0.10301621586E+01  0.10300701528E+01 0.  0.
     999903    2    3    3    0    0 -0.93828418675E-01  0.60254379413E-01 -0.69800756822E-01  0.13889443859E+00  0.44555101053E-01 0.  0.
         14    1    1    2    0    0  0.67143351420E-04  0.64368451820E-02 -0.12170290532E-01  0.13767841362E-01  0.00000000000E+00 0. -1.
     999901    1    3    3    0    0  0.93761275324E-01 -0.66691224595E-01  0.81971047354E-01  0.89126772004E+00  0.88000000000E+00 0. -1.
        -11    1    4    4    0    0 -0.50854489240E-01  0.67110669774E-02 -0.33000715523E-01  0.60996113334E-01  0.51100000000E-03 0.  1.
         11    1    4    4    0    0 -0.42973929436E-01  0.53543312436E-01 -0.36800041299E-01  0.77898325260E-01  0.51100000000E-03 0. -1.
</event>
<event>
 7    1  0.2190295E+004  0.1043930E+01  0.7957747E-01            NaN
         13   -1    0    0    0    0  0.00000000000E+00  0.00000000000E+00  0.74505805969E-08  0.10566000000E+00  0.10566000000E+00 0.  1.
     999900   -1    0    0    0    0 -0.00000000000E+00 -0.00000000000E+00 -0.74505805969E-08  0.93827000000E+00  0.93827000000E+00 0. -1.
     999903    2    1    2    0    0  0.99261348854E-01  0.50979962183E-01 -0.45031770667E-02  0.12036317303E+00  0.44891456843E-01 0.  0.
         14    1    1    2    0    0 -0.14319000514E-01 -0.20172221916E-01 -0.29235427475E-01  0.38297030334E-01  0.00000000000E+00 0. -1.
     999901    1    1    2    0    0 -0.84942348340E-01 -0.30807740267E-01  0.33738604542E-01  0.88526979664E+00  0.88000000000E+00 0.  1.
        -11    1    3    3    0    0  0.36327522148E-01  0.15784915877E-01 -0.23152845545E-01  0.45882107760E-01  0.51100000000E-03 0. -1.
         11    1    3    3    0    0  0.62933826705E-01  0.35195046305E-01  0.18649668478E-01  0.74481065269E-01  0.51100000000E-03 0.  1.
</event>
<event>
 8    1  0.2190295E+004  0.1043930E+01  0.7957747E-01            NaN
         13   -1    0    0    0    0  0.00000000000E+00  0.00000000000E+00  0.74505805969E-08  0.10566000000E+00  0.10566000000E+00 0.  1.
     999900   -1    0    0    0    0 -0.00000000000E+00 -0.00000000000E+00 -0.74505805969E-08  0.93827000000E+00  0.93827000000E+00 0. -1.
     999902    2    1    2    0    0 -0.67616428257E-02 -0.11799794880E-01 -0.43007489465E-02  0.10296663604E+01  0.10295675608E+01 0.  0.
     999903    2    3    3    0    0 -0.12664449691E+00 -0.19987277194E-01  0.35961509870E-01  0.14058819565E+00  0.45094242595E-01 0.  0.
         14    1    1    2    0    0  0.67616428257E-02  0.11799794880E-01  0.43007489465E-02  0.14263639592E-01  0.00000000000E+00 0.  1.
     999901    1    3    3    0    0  0.11988285409E+00  0.81874823140E-02 -0.40262258817E-01  0.88907816476E+00  0.88000000000E+00 0. -1.
        -11    1    4    4    0    0 -0.82379168435E-01 -0.30134479448E-01  0.10031956310E-01  0.88291083990E-01  0.51100000000E-03 0. -1.
         11    1    4    4    0    0 -0.44265328477E-01  0.10147202254E-01  0.25929553561E-01  0.52297111657E-01  0.51100000000E-03 0.  1.
</event>
<event>
 8    1  0.2190295E+004  0.1043930E+01  0.7957747E-01            NaN
         13   -1    0    0    0    0  0.00000000000E+00  0.00000000000E+00  0.74505805969E-08  0.10566000000E+00  0.10566000000E+00 0.  1.
     999900   -1    0    0    0    0 -0.00000000000E+00 -0.00000000000E+00 -0.74505805969E-08  0.93827000000E+00  0.93827000000E+00 0.  1.
     999902    2    1    2    0    0  0.11596301636E-01  0.43822747248E-02 -0.29818816611E-02  0.10311796995E+01  0.10311008693E+01 0.  0.
     999903    2    3    3    0    0  0.12743448344E+00 -0.43721701828E-01  0.13076907577E-01  0.14214068936E+00  0.43380125386E-01 0.  0.
         14    1    1    2    0    0 -0.11596301636E-01 -0.43822747248E-02  0.29818816611E-02  0.12750300452E-01  0.00000000000E+00 0.  1.
     999901    1    3    3    0    0 -0.11583818181E+00  0.48103976553E-01 -0.16058789238E-01  0.88903901019E+00  0.88000000000E+00 0.  1.
        -11    1    4    4    0    0  0.12169659235E+00 -0.51255412688E-01  0.12440894754E-01  0.13263564718E+00  0.51100000000E-03 0.  1.
         11    1    4    4    0    0  0.57378910924E-02  0.75337108599E-02  0.63601282294E-03  0.95050421787E-02  0.51100000000E-03 0. -1.
</event>
<event>
 8    1  0.2190295E+004  0.1043930E+01  0.7957747E-01            NaN
         13   -1    0    0    0    0  0.00000000000E+00  0.00000000000E+00  0.74505805969E-08  0.10566000000E+00  0.10566000000E+00 0. -1.
     999900   -1    0    0    0    0 -0.00000000000E+00 -0.00000000000E+00 -0.74505805969E-08  0.93827000000E+00  0.93827000000E+00 0.  1.
     999902    2    1    2    0    0 -0.76769019618E-02 -0.11673626093E-01  0.65935905433E-03  0.10299427514E+01  0.10298477693E+01 0.  0.
     999903    2    3    3    0    0  0.74879581414E-01  0.10445229472E+00  0.23468128374E-01  0.13819108056E+00  0.45042070481E-01 0.  0.
         14    1    1    2    0    0  0.76769019618E-02  0.11673626093E-01 -0.65935905433E-03  0.13987248631E-01  0.00000000000E+00 0.  1.
     999901    1    3    3    0    0 -0.82556483376E-01 -0.11612592081E+00 -0.22808769320E-01  0.89175167081E+00  0.88000000000E+00 0.  1.
        -11    1    4    4    0    0  0.58372744151E-01  0.44376947293E-01  0.64849669257E-02  0.73613902408E-01  0.51100000000E-03 0. -1.
         11    1    4    4    0    0  0.16506837263E-01  0.60075347423E-01  0.16983161448E-01  0.64577178153E-01  0.51100000000E-03 0.  1.
</event>
<event>
 8    1  0.2190295E+004  0.1043930E+01  0.7957747E-01            NaN
         13   -1    0    0    0    0  0.00000000000E+00  0.00000000000E+00  0.74505805969E-08  0.10566000000E+00  0.10566000000E+00 0. -1.
     999900   -1    0    0    0    0 -0.00000000000E+00 -0.00000000000E+00 -0.74505805969E-08  0.93827000000E+00  0.93827000000E+00 0.  1.
     999902    2    1    2    0    0  0.58851759919E-02 -0.64742140545E-02  0.10529690488E-01  0.10302396704E+01  0.10301487044E+01 0.  0.
     999903    2    3    3    0    0 -0.36532438115E-01  0.11660907012E+00 -0.44851429884E-01  0.13893959893E+00  0.48582580412E-01 0.  0.
         14    1    1    2    0    0 -0.58851759919E-02  0.64742140545E-02 -0.10529690488E-01  0.13690329647E-01  0.00000000000E+00 0.  1.
     999901    1    3    3    0    0  0.42417614107E-01 -0.12308328417E+00  0.55381120372E-01  0.89130007143E+00  0.88000000000E+00 0. -1.
        -11    1    4    4    0    0 -0.11118249720E-01  0.28900689418E-01 -0.35552408117E-01  0.47149763198E-01  0.51100000000E-03 0.  1.
         11    1    4    4    0    0 -0.25414188395E-01  0.87708380699E-01 -0.92990217669E-02  0.91789835730E-01  0.51100000000E-03 0. -1.
</event>
<event>
 8    1  0.2190295E+004  0.1043930E+01  0.7957747E-01            NaN
         13   -1    0    0    0    0  0.00000000000E+00  0.00000000000E+00  0.74505805969E-08  0.10566000000E+00  0.10566000000E+00 0. -1.
     999900   -1    0    0    0    0 -0.00000000000E+00 -0.00000000000E+00 -0.74505805969E-08  0.93827000000E+00  0.93827000000E+00 0.  1.
     999902    2    1    2    0    0 -0.60519470663E-02  0.93774956676E-02  0.80120184989E-02  0.10301911526E+01  0.10300995364E+01 0.  0.
     999903    2    3    3    0    0  0.92426413409E-01 -0.83101978790E-01 -0.41579331259E-01  0.13850188907E+00  0.44781153540E-01 0.  0.
         14    1    1    2    0    0  0.60519470663E-02 -0.93774956676E-02 -0.80120184989E-02  0.13738847430E-01  0.00000000000E+00 0.  1.
     999901    1    3    3    0    0 -0.98478360475E-01  0.92479474458E-01  0.49591349757E-01  0.89168926350E+00  0.88000000000E+00 0.  1.
        -11    1    4    4    0    0  0.61555817987E-01 -0.69320282734E-01 -0.47513554759E-01  0.10417398588E+00  0.51100000000E-03 0. -1.
         11    1    4    4    0    0  0.30870595421E-01 -0.13781696057E-01  0.59342235007E-02  0.34327903190E-01  0.51100000000E-03 0.  1.
</event>
<event>
 8    1  0.2190295E+004  0.1043930E+01  0.7957747E-01            NaN
         13   -1    0    0    0    0  0.00000000000E+00  0.00000000000E+00  0.74505805969E-08  0.10566000000E+00  0.10566000000E+00 0. -1.
     999900   -1    0    0    0    0 -0.00000000000E+00 -0.00000000000E+00 -0.74505805969E-08  0.93827000000E+00  0.93827000000E+00 0. -1.
     999902    2    1    2    0    0  0.16898888841E-01 -0.55837209444E-02  0.71985978232E-02  0.10247318179E+01  0.10245519648E+01 0.  0.
     999903    2    3    3    0    0 -0.53418517365E-01  0.74249821696E-01 -0.86186271757E-01  0.13341892899E+00  0.44787980022E-01 0.  0.
         14    1    1    2    0    0 -0.16898888841E-01  0.55837209444E-02 -0.71985978232E-02  0.19198182057E-01  0.00000000000E+00 0.  1.
     999901    1    3    3    0    0  0.70317406206E-01 -0.79833542640E-01  0.93384869580E-01  0.89131288895E+00  0.88000000000E+00 0.  1.
        -11    1    4    4    0    0 -0.81231860926E-02  0.10674634530E-01 -0.41178039952E-01  0.43310807773E-01  0.51100000000E-03 0.  1.
         11    1    4    4    0    0 -0.45295331272E-01  0.63575187166E-01 -0.45008231805E-01  0.90108121219E-01  0.51100000000E-03 0. -1.
</event>
<event>
 8    1  0.2190295E+004  0.1043930E+01  0.7957747E-01            NaN
         13   -1    0    0    0    0  0.00000000000E+00  0.00000000000E+00  0.74505805969E-08  0.10566000000E+00  0.10566000000E+00 0.  1.
     999900   -1    0    0    0    0 -0.00000000000E+00 -0.00000000000E+00 -0.74505805969E-08  0.93827000000E+00  0.93827000000E+00 0. -1.
     999902    2    1    2    0    0  0.67205842406E-02  0.44306046140E-02  0.10623987373E-01  0.10306008733E+01  0.10305146746E+01 0.  0.
     999903    2    3    3    0    0  0.34997594279E-01 -0.11838369482E+00  0.52128017656E-01  0.14065395022E+00  0.42739591509E-01 0.  0.
         14    1    1    2    0    0 -0.67205842406E-02 -0.44306046140E-02 -0.10623987373E-01  0.13329126659E-01  0.00000000000E+00 0. -1.
     999901    1    3    3    0    0 -0.28277010038E-01  0.12281429944E+00 -0.41504030283E-01  0.88994692312E+00  0.88000000000E+00 0. -1.
        -11    1    4    4    0    0  0.15632971509E-02 -0.77357767436E-01  0.25979916471E-01  0.81620372833E-01  0.51100000000E-03 0.  1.
         11    1    4    4    0    0  0.33434297128E-01 -0.41025927388E-01  0.26148101185E-01  0.59033577387E-01  0.51100000000E-03 0. -1.
</event>
<event>
 8    1  0.2190295E+004  0.1043930E+01  0.7957747E-01            NaN
         13   -1    0    0    0    0  0.00000000000E+00  0.00000000000E+00  0.74505805969E-08  0.10566000000E+00  0.10566000000E+00 0.  1.
     999900   -1    0    0    0    0 -0.00000000000E+00 -0.00000000000E+00 -0.74505805969E-08  0.93827000000E+00  0.93827000000E+00 0.  1.
     999902    2    1    2    0    0  0.24087093896E-02 -0.86359684103E-02 -0.11018214381E-01  0.10297249699E+01  0.10296269862E+01 0.  0.
     999903    2    3    3    0    0  0.56556676560E-01  0.10797616727E+00  0.43924721731E-01  0.13868674473E+00  0.49468390135E-01 0.  0.
         14    1    1    2    0    0 -0.24087093896E-02  0.86359684103E-02  0.11018214381E-01  0.14205030076E-01  0.00000000000E+00 0. -1.
     999901    1    3    3    0    0 -0.54147967171E-01 -0.11661213568E+00 -0.54942936112E-01  0.89103822520E+00  0.88000000000E+00 0.  1.
        -11    1    4    4    0    0  0.55544374968E-01  0.64167653516E-01  0.15018259513E-01  0.86188598945E-01  0.51100000000E-03 0.  1.
         11    1    4    4    0    0  0.10123015928E-02  0.43808513750E-01  0.28906462218E-01  0.52498145781E-01  0.51100000000E-03 0. -1.
</event>
<event>
 8    1  0.2190295E+004  0.1043930E+01  0.7957747E-01            NaN
         13   -1    0    0    0    0  0.00000000000E+00  0.00000000000E+00  0.74505805969E-08  0.10566000000E+00  0.10566000000E+00 0.  1.
     999900   -1    0    0    0    0 -0.00000000000E+00 -0.00000000000E+00 -0.74505805969E-08  0.93827000000E+00  0.93827000000E+00 0. -1.
     999902    2    1    2    0    0  0.92183736920E-02  0.15560505967E-01 -0.70376243701E-03  0.10258301922E+01  0.10256705028E+01 0.  0.
     999903    2    3    3    0    0  0.17190320516E-01 -0.97426970126E-01  0.78679780924E-01  0.13502635937E+00  0.47477238460E-01 0.  0.
         14    1    1    2    0    0 -0.92183736920E-02 -0.15560505967E-01  0.70376243701E-03  0.18099807763E-01  0.00000000000E+00 0.  1.
     999901    1    3    3    0    0 -0.79719468240E-02  0.11298747609E+00 -0.79383543361E-01  0.89080383286E+00  0.88000000000E+00 0. -1.
        -11    1    4    4    0    0  0.30948547433E-01 -0.52849798728E-01  0.56661624159E-01  0.83436889845E-01  0.51100000000E-03 0. -1.
         11    1    4    4    0    0 -0.13758226917E-01 -0.44577171399E-01  0.22018156765E-01  0.51589469527E-01  0.51100000000E-03 0.  1.
</event>
<event>
 8    1  0.2190295E+004  0.1043930E+01  0.7957747E-01            NaN
         13   -1    0    0    0    0  0.00000000000E+00  0.00000000000E+00  0.74505805969E-08  0.10566000000E+00  0.10566000000E+00 0. -1.
     999900   -1    0    0    0    0 -0.00000000000E+00 -0.00000000000E+00 -0.74505805969E-08  0.93827000000E+00  0.93827000000E+00 0. -1.
     999902    2    1    2    0    0 -0.10789874358E-01  0.70999109969E-02  0.52552497894E-02  0.10299855468E+01  0.10298911490E+01 0.  0.
     999903    2    3    3    0    0 -0.10229829549E+00 -0.83848544291E-01 -0.14554115058E-01  0.14035763379E+00  0.44642171298E-01 0.  0.
         14    1    1    2    0    0  0.10789874358E-01 -0.70999109969E-02 -0.52552497894E-02  0.13944453204E-01  0.00000000000E+00 0.  1.
     999901    1    3    3    0    0  0.91508421135E-01  0.90948455288E-01  0.19809364847E-01  0.88962791300E+00  0.88000000000E+00 0. -1.
        -11    1    4    4    0    0 -0.36171618219E-01 -0.33570900797E-01  0.15945445156E-01  0.51864339262E-01  0.51100000000E-03 0. -1.
         11    1    4    4    0    0 -0.66126677274E-01 -0.50277643494E-01 -0.30499560213E-01  0.88493294531E-01  0.51100000000E-03 0.  1.
</event>
<event>
 8    1  0.2190295E+004  0.1043930E+01  0.7957747E-01            NaN
         13   -1    0    0    0    0  0.00000000000E+00  0.00000000000E+00  0.74505805969E-08  0.10566000000E+00  0.10566000000E+00 0.  1.
     999900   -1    0    0    0    0 -0.00000000000E+00 -0.00000000000E+00 -0.74505805969E-08  0.93827000000E+00  0.93827000000E+00 0. -1.
     999902    2    1    2    0    0 -0.10643600902E-01  0.42247440039E-02 -0.80617285083E-02  0.10299254947E+01  0.10298302765E+01 0.  0.
     999903    2    3    3    0    0  0.13178672321E+00  0.64415064248E-02 -0.43115278787E-02  0.13846300235E+00  0.41763385039E-01 0.  0.
         14    1    1    2    0    0  0.10643600902E-01 -0.42247440039E-02  0.80617285083E-02  0.14004505296E-01  0.00000000000E+00 0. -1.
     999901    1    3    3    0    0 -0.14243032411E+00 -0.22167624209E-02 -0.37502006296E-02  0.89146249235E+00  0.88000000000E+00 0. -1.
        -11    1    4    4    0    0  0.42431551019E-01  0.16248737663E-01 -0.15196954108E-01  0.47913114412E-01  0.51100000000E-03 0. -1.
         11    1    4    4    0    0  0.89355172187E-01 -0.98072312382E-02  0.10885426229E-01  0.90549887942E-01  0.51100000000E-03 0.  1.
</event>
<event>
 8    1  0.2190295E+004  0.1043930E+01  0.7957747E-01            NaN
         13   -1    0    0    0    0  0.00000000000E+00  0.00000000000E+00  0.74505805969E-08  0.10566000000E+00  0.10566000000E+00 0.  1.
     999900   -1    0    0    0    0 -0.00000000000E+00 -0.00000000000E+00 -0.74505805969E-08  0.93827000000E+00  0.93827000000E+00 0.  1.
     999902    2    1    2    0    0  0.45320461421E-03 -0.13400014043E-01  0.37605659509E-02  0.10300049281E+01  0.10299107943E+01 0.  0.
     999903    2    3    3    0    0 -0.40486534741E-01 -0.40560501976E-01 -0.11943304386E+00  0.14006649212E+00  0.45497872834E-01 0.  0.
         14    1    1    2    0    0 -0.45320461421E-03  0.13400014043E-01 -0.37605659509E-02  0.13925071886E-01  0.00000000000E+00 0.  1.
     999901    1    3    3    0    0  0.40939739355E-01  0.27160487934E-01  0.12319360981E+00  0.88993843600E+00  0.88000000000E+00 0. -1.
        -11    1    4    4    0    0 -0.40505690101E-01 -0.21422408281E-01 -0.49046215436E-01  0.67122446891E-01  0.51100000000E-03 0. -1.
         11    1    4    4    0    0  0.19155360335E-04 -0.19138093695E-01 -0.70386828426E-01  0.72944045227E-01  0.51100000000E-03 0.  1.
</event>
<event>
 8    1  0.2190295E+004  0.1043930E+01  0.7957747E-01            NaN
         13   -1    0    0    0    0  0.00000000000E+00  0.00000000000E+00  0.74505805969E-08  0.10566000000E+00  0.10566000000E+00 0. -1.
     999900   -1    0    0    0    0 -0.00000000000E+00 -0.00000000000E+00 -0.74505805969E-08  0.93827000000E+00  0.93827000000E+00 0. -1.
     999902    2    1    2    0    0 -0.12243244544E-01  0.94984037077E-02  0.92209830812E-02  0.10258982713E+01  0.10257397915E+01 0.  0.
     999903    2    3    3    0    0 -0.11444764387E+00  0.48937972860E-01 -0.39256091815E-01  0.13778158662E+00  0.44153555834E-01 0.  0.
         14    1    1    2    0    0  0.12243244544E-01 -0.94984037077E-02 -0.92209830812E-02  0.18031728673E-01  0.00000000000E+00 0. -1.
     999901    1    3    3    0    0  0.10220439933E+00 -0.39439569152E-01  0.48477074896E-01  0.88811668470E+00  0.88000000000E+00 0.  1.
        -11    1    4    4    0    0 -0.35386106434E-01  0.26510084406E-01  0.48984368321E-02  0.44488390712E-01  0.51100000000E-03 0. -1.
         11    1    4    4    0    0 -0.79061537437E-01  0.22427888454E-01 -0.44154528647E-01  0.93293195912E-01  0.51100000000E-03 0.  1.
</event>
<event>
 8    1  0.2190295E+004  0.1043930E+01  0.7957747E-01            NaN
         13   -1    0    0    0    0  0.00000000000E+00  0.00000000000E+00  0.74505805969E-08  0.10566000000E+00  0.10566000000E+00 0. -1.
     999900   -1    0    0    0    0 -0.00000000000E+00 -0.00000000000E+00 -0.74505805969E-08  0.93827000000E+00  0.93827000000E+00 0. -1.
     999902    2    1    2    0    0 -0.28851782232E-02  0.12440270296E-01  0.61479038616E-02  0.10297567400E+01  0.10296591971E+01 0.  0.
     999903    2    3    3    0    0 -0.38685721311E-01 -0.97155173134E-01 -0.78140706085E-01  0.13824262909E+00  0.45490019233E-01 0.  0.
         14    1    1    2    0    0  0.28851782232E-02 -0.12440270296E-01 -0.61479038616E-02  0.14173260046E-01  0.00000000000E+00 0.  1.
     999901    1    3    3    0    0  0.35800543088E-01  0.10959544343E+00  0.84288609947E-01  0.89151411087E+00  0.88000000000E+00 0.  1.
        -11    1    4    4    0    0 -0.25911303919E-01 -0.25626714843E-01 -0.46263840927E-01  0.58895910577E-01  0.51100000000E-03 0. -1.
         11    1    4    4    0    0 -0.12774417392E-01 -0.71528458291E-01 -0.31876865158E-01  0.79346718512E-01  0.51100000000E-03 0.  1.
</event>
<event>
 7    1  0.2190295E+004  0.1043930E+01  0.7957747E-01            NaN
         13   -1    0    0    0    0  0.00000000000E+00  0.00000000000E+00  0.74505805969E-08  0.10566000000E+00  0.10566000000E+00 0. -1.
     999900   -1    0    0    0    0 -0.00000000000E+00 -0.00000000000E+00 -0.74505805969E-08  0.93827000000E+00  0.93827000000E+00 0.  1.
     999902    2    1    2    0    0 -0.12307252000E-01 -0.45874091789E-02 -0.39847183739E-02  0.10302044488E+01  0.10301130111E+01 0.  0.
         14    1    1    2    0    0  0.12307252000E-01  0.45874091789E-02  0.39847183739E-02  0.13725551183E-01  0.00000000000E+00 0.  1.
     999901    1    3    3    0    0  0.51993426575E-01  0.11322415255E-01 -0.11270099732E+00  0.88878176640E+00  0.88000000000E+00 0.  1.
        -11    1    3    3    0    0  0.80776480293E-02  0.97096363077E-02  0.87524440350E-02  0.15375039268E-01  0.51100000000E-03 0. -1.
         11    1    3    3    0    0 -0.72378326604E-01 -0.25619460741E-01  0.99963834914E-01  0.12604764314E+00  0.51100000000E-03 0.  1.
</event>
<event>
 8    1  0.2190295E+004  0.1043930E+01  0.7957747E-01            NaN
         13   -1    0    0    0    0  0.00000000000E+00  0.00000000000E+00  0.74505805969E-08  0.10566000000E+00  0.10566000000E+00 0. -1.
     999900   -1    0    0    0    0 -0.00000000000E+00 -0.00000000000E+00 -0.74505805969E-08  0.93827000000E+00  0.93827000000E+00 0. -1.
     999902    2    1    2    0    0 -0.69251426363E-02 -0.60246114272E-02  0.10522232930E-01  0.10299668009E+01  0.10298721474E+01 0.  0.
     999903    2    3    3    0    0  0.59005279883E-01 -0.11899555795E+00  0.11327890207E-01  0.14029837701E+00  0.43746401330E-01 0.  0.
         14    1    1    2    0    0  0.69251426363E-02  0.60246114272E-02 -0.10522232930E-01  0.13963199104E-01  0.00000000000E+00 0.  1.
     999901    1    3    3    0    0 -0.65930422519E-01  0.11297094653E+00 -0.80565727720E-03  0.88966842388E+00  0.88000000000E+00 0.  1.
        -11    1    4    4    0    0  0.30840794791E-01 -0.65504800830E-01  0.27932494662E-01  0.77604889885E-01  0.51100000000E-03 0.  1.
         11    1    4    4    0    0  0.28164485092E-01 -0.53490757123E-01 -0.16604604455E-01  0.62693487127E-01  0.51100000000E-03 0. -1.
</event>
<event>
 8    1  0.2190295E+004  0.1043930E+01  0.7957747E-01            NaN
         13   -1    0    0    0    0  0.00000000000E+00  0.00000000000E+00  0.74505805969E-08  0.10566000000E+00  0.10566000000E+00 0.  1.
     999900   -1    0    0    0    0 -0.00000000000E+00 -0.00000000000E+00 -0.74505805969E-08  0.93827000000E+00  0.93827000000E+00 0.  1.
     999902    2    1    2    0    0  0.50678614981E-02 -0.65830611069E-02  0.10641962075E-01  0.10304292122E+01  0.10303407641E+01 0.  0.
     999903    2    3    3    0    0  0.70733825989E-01 -0.69498397071E-02 -0.11151097915E+00  0.13956811505E+00  0.44642870157E-01 0.  0.
         14    1    1    2    0    0 -0.50678614981E-02  0.65830611069E-02 -0.10641962075E-01  0.13500787774E-01  0.00000000000E+00 0. -1.
     999901    1    3    3    0    0 -0.65665964491E-01  0.36677860018E-03  0.12215294122E+00  0.89086109718E+00  0.88000000000E+00 0. -1.
        -11    1    4    4    0    0  0.66817662741E-01  0.83179997183E-02 -0.81966180839E-01  0.10607782566E+00  0.51100000000E-03 0. -1.
         11    1    4    4    0    0  0.39161632476E-02 -0.15267839425E-01 -0.29544798310E-01  0.33490289390E-01  0.51100000000E-03 0.  1.
</event>
<event>
 7    1  0.2190295E+004  0.1043930E+01  0.7957747E-01            NaN
         13   -1    0    0    0    0  0.00000000000E+00  0.00000000000E+00  0.74505805969E-08  0.10566000000E+00  0.10566000000E+00 0. -1.
     999900   -1    0    0    0    0 -0.00000000000E+00 -0.00000000000E+00 -0.74505805969E-08  0.93827000000E+00  0.93827000000E+00 0.  1.
     999903    2    1    2    0    0 -0.58454703855E-01  0.63512542979E-01 -0.73264327742E-01  0.12237133140E+00  0.46435821420E-01 0.  0.
         14    1    1    2    0    0 -0.29438459231E-01  0.36353765570E-02 -0.85486571153E-02  0.30869376137E-01  0.00000000000E+00 0. -1.
     999901    1    1    2    0    0  0.87893163086E-01 -0.67147919536E-01  0.81812984857E-01  0.89068929246E+00  0.88000000000E+00 0.  1.
        -11    1    3    3    0    0 -0.46374925892E-01  0.54422470405E-01 -0.78668719408E-01  0.10630836078E+00  0.51100000000E-03 0. -1.
         11    1    3    3    0    0 -0.12079777963E-01  0.90900725739E-02  0.54043916660E-02  0.16062970626E-01  0.51100000000E-03 0.  1.
</event>
<event>
 8    1  0.2190295E+004  0.1043930E+01  0.7957747E-01            NaN
         13   -1    0    0    0    0  0.00000000000E+00  0.00000000000E+00  0.74505805969E-08  0.10566000000E+00  0.10566000000E+00 0. -1.
     999900   -1    0    0    0    0 -0.00000000000E+00 -0.00000000000E+00 -0.74505805969E-08  0.93827000000E+00  0.93827000000E+00 0. -1.
     999902    2    1    2    0    0 -0.13397413110E-01 -0.77186911641E-03  0.30636484796E-02  0.10301651025E+01  0.10300731363E+01 0.  0.
     999903    2    3    3    0    0  0.10611172184E+00  0.74891541426E-01  0.18508002915E-01  0.13873596172E+00  0.45129595749E-01 0.  0.
         14    1    1    2    0    0  0.13397413110E-01  0.77186911641E-03 -0.30636484796E-02  0.13764897456E-01  0.00000000000E+00 0. -1.
     999901    1    3    3    0    0 -0.11950913495E+00 -0.75663410542E-01 -0.15444354435E-01  0.89142914083E+00  0.88000000000E+00 0. -1.
        -11    1    4    4    0    0  0.88637213407E-01  0.39138338587E-01  0.19882720903E-01  0.98913845641E-01  0.51100000000E-03 0.  1.
         11    1    4    4    0    0  0.17474508433E-01  0.35753202839E-01 -0.13747179883E-02  0.39822116076E-01  0.51100000000E-03 0. -1.
</event>
<event>
 8    1  0.2190295E+004  0.1043930E+01  0.7957747E-01            NaN
         13   -1    0    0    0    0  0.00000000000E+00  0.00000000000E+00  0.74505805969E-08  0.10566000000E+00  0.10566000000E+00 0.  1.
     999900   -1    0    0    0    0 -0.00000000000E+00 -0.00000000000E+00 -0.74505805969E-08  0.93827000000E+00  0.93827000000E+00 0. -1.
     999902    2    1    2    0    0 -0.67354512948E-02 -0.11720491876E-01 -0.33059455584E-02  0.10300136244E+01  0.10299196090E+01 0.  0.
     999903    2    3    3    0    0  0.12090639522E-01 -0.75483886446E-01 -0.10983731163E+00  0.14109904799E+00  0.44729248150E-01 0.  0.
         14    1    1    2    0    0  0.67354512948E-02  0.11720491876E-01  0.33059455584E-02  0.13916375606E-01  0.00000000000E+00 0. -1.
     999901    1    3    3    0    0 -0.18826090816E-01  0.63763394569E-01  0.10653136608E+00  0.88891457640E+00  0.88000000000E+00 0. -1.
        -11    1    4    4    0    0  0.29064492947E-01 -0.45366166175E-01 -0.70376266261E-01  0.88633592715E-01  0.51100000000E-03 0.  1.
         11    1    4    4    0    0 -0.16973853426E-01 -0.30117720271E-01 -0.39461045373E-01  0.52465455277E-01  0.51100000000E-03 0. -1.
</event>
<event>
 8    1  0.2190295E+004  0.1043930E+01  0.7957747E-01            NaN
         13   -1    0    0    0    0  0.00000000000E+00  0.00000000000E+00  0.74505805969E-08  0.10566000000E+00  0.10566000000E+00 0.  1.
     999900   -1    0    0    0    0 -0.00000000000E+00 -0.00000000000E+00 -0.74505805969E-08  0.93827000000E+00  0.93827000000E+00 0. -1.
     999902    2    1    2    0    0  0.31302579268E-02  0.15321623549E-01 -0.12586732107E-02  0.10282413123E+01  0.10281216180E+01 0.  0.
     999903    2    3    3    0    0  0.66696689158E-01  0.26831963876E-01  0.11216261411E+00  0.13861354323E+00  0.38273486053E-01 0.  0.
         14    1    1    2    0    0 -0.31302579268E-02 -0.15321623549E-01  0.12586732107E-02  0.15688687680E-01  0.00000000000E+00 0.  1.
     999901    1    3    3    0    0 -0.63566431231E-01 -0.11510340328E-01 -0.11342128732E+00  0.88962776909E+00  0.88000000000E+00 0. -1.
        -11    1    4    4    0    0  0.40765589376E-01 -0.27040415694E-02  0.44899299190E-01  0.60707110841E-01  0.51100000000E-03 0.  1.
         11    1    4    4    0    0  0.25931099782E-01  0.29536005446E-01  0.67263314916E-01  0.77906432392E-01  0.51100000000E-03 0. -1.
</event>
<event>
 8    1  0.2190295E+004  0.1043930E+01  0.7957747E-01            NaN
         13   -1    0    0    0    0  0.00000000000E+00  0.00000000000E+00  0.74505805969E-08  0.10566000000E+00  0.10566000000E+00 0. -1.
     999900   -1    0    0    0    0 -0.00000000000E+00 -0.00000000000E+00 -0.74505805969E-08  0.93827000000E+00  0.93827000000E+00 0.  1.
     999902    2    1    2    0    0  0.10529717547E-01  0.80546489906E-02  0.16952268138E-02  0.10305648918E+01  0.10304782240E+01 0.  0.
     999903    2    3    3    0    0  0.12230121104E+00  0.49199640280E-01  0.28749713740E-01  0.14212934420E+00  0.44676768193E-01 0.  0.
         14    1    1    2    0    0 -0.10529717547E-01 -0.80546489906E-02 -0.16952268138E-02  0.13365108153E-01  0.00000000000E+00 0.  1.
     999901    1    3    3    0    0 -0.11177149349E+00 -0.41144991289E-01 -0.27054486926E-01  0.88843554765E+00  0.88000000000E+00 0. -1.
        -11    1    4    4    0    0  0.37843981794E-01  0.14448780923E-01 -0.11812011322E-01  0.42198565860E-01  0.51100000000E-03 0.  1.
         11    1    4    4    0    0  0.84457229246E-01  0.34750859357E-01  0.40561725062E-01  0.99930778337E-01  0.51100000000E-03 0. -1.
</event>
<event>
 8    1  0.2190295E+004  0.1043930E+01  0.7957747E-01            NaN
         13   -1    0    0    0    0  0.00000000000E+00  0.00000000000E+00  0.74505805969E-08  0.10566000000E+00  0.10566000000E+00 0. -1.
     999900   -1    0    0    0    0 -0.00000000000E+00 -0.00000000000E+00 -0.74505805969E-08  0.93827000000E+00  0.93827000000E+00 0. -1.
     999902    2    1    2    0    0  0.38399653266E-02  0.11378098072E-01 -0.65754576349E-02  0.10302390142E+01  0.10301480395E+01 0.  0.
     999903    2    3    3    0    0  0.39243908565E-02 -0.68934244401E-01 -0.11211992094E+00  0.14030097521E+00  0.48437135327E-01 0.  0.
         14    1    1    2    0    0 -0.38399653266E-02 -0.11378098072E-01  0.65754576349E-02  0.13690985814E-01  0.00000000000E+00 0. -1.
     999901    1    3    3    0    0 -0.84425529926E-04  0.80312342474E-01  0.10554446331E+00  0.88993803898E+00  0.88000000000E+00 0.  1.
        -11    1    4    4    0    0 -0.70799768410E-02  0.53944779615E-02 -0.15760265008E-01  0.18107278610E-01  0.51100000000E-03 0. -1.
         11    1    4    4    0    0  0.11004367698E-01 -0.74328722363E-01 -0.96359655932E-01  0.12219369660E+00  0.51100000000E-03 0.  1.
</event>
<event>
 8    1  0.2190295E+004  0.1043930E+01  0.7957747E-01            NaN
         13   -1    0    0    0    0  0.00000000000E+00  0.00000000000E+00  0.74505805969E-08  0.10566000000E+00  0.10566000000E+00 0.  1.
     999900   -1    0    0    0    0 -0.00000000000E+00 -0.00000000000E+00 -0.74505805969E-08  0.93827000000E+00  0.93827000000E+00 0. -1.
     999902    2    1    2    0    0 -0.32700407603E-02  0.38941951963E-02 -0.13229416168E-01  0.10297569490E+01  0.10296594090E+01 0.  0.
     999903    2    3    3    0    0  0.67250832473E-01 -0.84493703993E-01  0.73621676657E-01  0.13828135953E+00  0.45163288586E-01 0.  0.
         14    1    1    2    0    0  0.32700407603E-02 -0.38941951963E-02  0.13229416168E-01  0.14173051010E-01  0.00000000000E+00 0.  1.
     999901    1    3    3    0    0 -0.70520873233E-01  0.88387899189E-01 -0.86851092825E-01  0.89147558946E+00  0.88000000000E+00 0. -1.
        -11    1    4    4    0    0  0.63117671615E-01 -0.45631244713E-01  0.51449583267E-01  0.93345442864E-01  0.51100000000E-03 0. -1.
         11    1    4    4    0    0  0.41331608579E-02 -0.38862459280E-01  0.22172093389E-01  0.44935916662E-01  0.51100000000E-03 0.  1.
</event>
<event>
 8    1  0.2190295E+004  0.1043930E+01  0.7957747E-01            NaN
         13   -1    0    0    0    0  0.00000000000E+00  0.00000000000E+00  0.74505805969E-08  0.10566000000E+00  0.10566000000E+00 0.  1.
     999900   -1    0    0    0    0 -0.00000000000E+00 -0.00000000000E+00 -0.74505805969E-08  0.93827000000E+00  0.93827000000E+00 0.  1.
     999902    2    1    2    0    0 -0.23408417430E-01  0.10242066220E-01 -0.31171438049E-02  0.10181895549E+01  0.10178641359E+01 0.  0.
     999903    2    3    3    0    0 -0.93318527045E-01  0.28551344505E-01 -0.77730999475E-01  0.13208014828E+00  0.43353552641E-01 0.  0.
         14    1    1    2    0    0  0.23408417430E-01 -0.10242066220E-01  0.31171438049E-02  0.25740445072E-01  0.00000000000E+00 0. -1.
     999901    1    3    3    0    0  0.69910109615E-01 -0.18309278286E-01  0.74613855670E-01  0.88610940665E+00  0.88000000000E+00 0.  1.
        -11    1    4    4    0    0 -0.48397396993E-02  0.63794859047E-02 -0.26013525325E-01  0.27222886357E-01  0.51100000000E-03 0. -1.
         11    1    4    4    0    0 -0.88478787345E-01  0.22171858601E-01 -0.51717474150E-01  0.10485726192E+00  0.51100000000E-03 0.  1.
</event>
<event>
 8    1  0.2190295E+004  0.1043930E+01  0.7957747E-01            NaN
         13   -1    0    0    0    0  0.00000000000E+00  0.00000000000E+00  0.74505805969E-08  0.10566000000E+00  0.10566000000E+00 0. -1.
     999900   -1    0    0    0    0 -0.00000000000E+00 -0.00000000000E+00 -0.74505805969E-08  0.93827000000E+00  0.93827000000E+00 0. -1.
     999902    2    1    2    0    0  0.94649433919E-03  0.11028079548E-01 -0.86411319440E-02  0.10298877939E+01  0.10297920589E+01 0.  0.
     999903    2    3    3    0    0 -0.42499111446E-01 -0.92540398446E-01 -0.84372924080E-01  0.13952311885E+00  0.44474830596E-01 0.  0.
         14    1    1    2    0    0 -0.94649433919E-03 -0.11028079548E-01  0.86411319440E-02  0.14042206070E-01  0.00000000000E+00 0. -1.
     999901    1    3    3    0    0  0.43445605785E-01  0.10356847799E+00  0.75731792136E-01  0.89036467508E+00  0.88000000000E+00 0.  1.
        -11    1    4    4    0    0 -0.26796493525E-01 -0.35591412064E-01 -0.12081106875E-01  0.46162917394E-01  0.51100000000E-03 0. -1.
         11    1    4    4    0    0 -0.15702617921E-01 -0.56948986382E-01 -0.72291817205E-01  0.93360201453E-01  0.51100000000E-03 0.  1.
</event>
<event>
 8    1  0.2190295E+004  0.1043930E+01  0.7957747E-01            NaN
         13   -1    0    0    0    0  0.00000000000E+00  0.00000000000E+00  0.74505805969E-08  0.10566000000E+00  0.10566000000E+00 0. -1.
     999900   -1    0    0    0    0 -0.00000000000E+00 -0.00000000000E+00 -0.74505805969E-08  0.93827000000E+00  0.93827000000E+00 0.  1.
     999902    2    1    2    0    0 -0.58620176594E-02  0.10222883106E-01  0.64514838684E-02  0.10304952602E+01  0.10304076810E+01 0.  0.
     999903    2    3    3    0    0  0.90314706909E-02 -0.11623012559E+00  0.61458527964E-01  0.13963165990E+00  0.46139356609E-01 0.  0.
         14    1    1    2    0    0  0.58620176594E-02 -0.10222883106E-01 -0.64514838684E-02  0.13434739824E-01  0.00000000000E+00 0.  1.
     999901    1    3    3    0    0 -0.14893488350E-01  0.12645300870E+00 -0.55007044096E-01  0.89086360028E+00  0.88000000000E+00 0. -1.
        -11    1    4    4    0    0 -0.12523572004E-01 -0.49143100786E-01  0.83639538839E-02  0.51401372124E-01  0.51100000000E-03 0.  1.
         11    1    4    4    0    0  0.21555042695E-01 -0.67087024804E-01  0.53094574081E-01  0.88230287772E-01  0.51100000000E-03 0. -1.
</event>
<event>
 8    1  0.2190295E+004  0.1043930E+01  0.7957747E-01            NaN
         13   -1    0    0    0    0  0.00000000000E+00  0.00000000000E+00  0.74505805969E-08  0.10566000000E+00  0.10566000000E+00 0.  1.
     999900   -1    0    0    0    0 -0.00000000000E+00 -0.00000000000E+00 -0.74505805969E-08  0.93827000000E+00  0.93827000000E+00 0.  1.
     999902    2    1    2    0    0 -0.13214017795E-01 -0.40428341815E-03  0.24120741685E-02  0.10304915547E+01  0.10304039268E+01 0.  0.
     999903    2    3    3    0    0 -0.82975991995E-01 -0.90076342584E-01  0.54713129285E-01  0.14164780483E+00  0.45517154534E-01 0.  0.
         14    1    1    2    0    0  0.13214017795E-01  0.40428341815E-03 -0.24120741685E-02  0.13438445340E-01  0.00000000000E+00 0. -1.
     999901    1    3    3    0    0  0.69761974200E-01  0.89672059166E-01 -0.52301055116E-01  0.88884374983E+00  0.88000000000E+00 0.  1.
        -11    1    4    4    0    0 -0.34409499315E-01 -0.58456163196E-01  0.10254797169E-01  0.68604363160E-01  0.51100000000E-03 0.  1.
         11    1    4    4    0    0 -0.48566492681E-01 -0.31620179389E-01  0.44458332116E-01  0.73043441673E-01  0.51100000000E-03 0. -1.
</event>
<event>
 8    1  0.2190295E+004  0.1043930E+01  0.7957747E-01            NaN
         13   -1    0    0    0    0  0.00000000000E+00  0.00000000000E+00  0.74505805969E-08  0.10566000000E+00  0.10566000000E+00 0. -1.
     999900   -1    0    0    0    0 -0.00000000000E+00 -0.00000000000E+00 -0.74505805969E-08  0.93827000000E+00  0.93827000000E+00 0.  1.
     999902    2    1    2    0    0  0.61828661987E-02  0.23504695471E-02 -0.12344363185E-01  0.10299251493E+01  0.10298299264E+01 0.  0.
     999903    2    3    3    0    0  0.13263312336E+00 -0.10392237998E-01 -0.44388296760E-02  0.14076006809E+00  0.45761878650E-01 0.  0.
         14    1    1    2    0    0 -0.61828661987E-02 -0.23504695471E-02  0.12344363185E-01  0.14004850730E-01  0.00000000000E+00 0. -1.
     999901    1    3    3    0    0 -0.12645025716E+00  0.12742707545E-01 -0.79055335091E-02  0.88916508118E+00  0.88000000000E+00 0.  1.
        -11    1    4    4    0    0  0.12476461004E+00 -0.65617937853E-02  0.83930301970E-02  0.12521968349E+00  0.51100000000E-03 0. -1.
         11    1    4    4    0    0  0.78685133136E-02 -0.38304442129E-02 -0.12831859873E-01  0.15540384597E-01  0.51100000000E-03 0.  1.
</event>
<event>
 7    1  0.2190295E+004  0.1043930E+01  0.7957747E-01            NaN
         13   -1    0    0    0    0  0.00000000000E+00  0.00000000000E+00  0.74505805969E-08  0.10566000000E+00  0.10566000000E+00 0.  1.
     999900   -1    0    0    0    0 -0.00000000000E+00 -0.00000000000E+00 -0.74505805969E-08  0.93827000000E+00  0.93827000000E+00 0. -1.
     999903    2    1    2    0    0  0.10368630342E+00 -0.23579650287E-01 -0.44016332773E-01  0.12368842495E+00  0.45327028273E-01 0.  0.
         14    1    1    2    0    0  0.55369882027E-02  0.11697051383E-01  0.30692767437E-01  0.33309536508E-01  0.00000000000E+00 0.  1.
     999901    1    1    2    0    0 -0.10922329162E+00  0.11882598903E-01  0.13323565336E-01  0.88693203854E+00  0.88000000000E+00 0.  1.
        -11    1    3    3    0    0  0.18728955649E-02  0.66315672595E-02  0.30138769158E-02  0.75385673160E-02  0.51100000000E-03 0. -1.
         11    1    3    3    0    0  0.10181340786E+00 -0.30211217546E-01 -0.47030209689E-01  0.11614985764E+00  0.51100000000E-03 0.  1.
</event>
<event>
 8    1  0.2190295E+004  0.1043930E+01  0.7957747E-01            NaN
         13   -1    0    0    0    0  0.00000000000E+00  0.00000000000E+00  0.74505805969E-08  0.10566000000E+00  0.10566000000E+00 0. -1.
     999900   -1    0    0    0    0 -0.00000000000E+00 -0.00000000000E+00 -0.74505805969E-08  0.93827000000E+00  0.93827000000E+00 0.  1.
     999902    2    1    2    0    0 -0.16139276814E-02 -0.11196528073E-01 -0.98054476026E-02  0.10289595689E+01  0.10288506601E+01 0.  0.
     999903    2    3    3    0    0  0.25798744495E-01  0.11091861514E+00 -0.65176818526E-01  0.13838135704E+00  0.43964393558E-01 0.  0.
         14    1    1    2    0    0  0.16139276814E-02  0.11196528073E-01  0.98054476026E-02  0.14970431060E-01  0.00000000000E+00 0. -1.
     999901    1    3    3    0    0 -0.27412672176E-01 -0.12211514321E+00  0.55371370924E-01  0.89057821190E+00  0.88000000000E+00 0. -1.
        -11    1    4    4    0    0  0.28222552061E-01  0.50658398733E-01 -0.14932472916E-01  0.59883434065E-01  0.51100000000E-03 0.  1.
         11    1    4    4    0    0 -0.24238075662E-02  0.60260216404E-01 -0.50244345610E-01  0.78497922972E-01  0.51100000000E-03 0. -1.
</event>
<event>
 8    1  0.2190295E+004  0.1043930E+01  0.7957747E-01            NaN
         13   -1    0    0    0    0  0.00000000000E+00  0.00000000000E+00  0.74505805969E-08  0.10566000000E+00  0.10566000000E+00 0.  1.
     999900   -1    0    0    0    0 -0.00000000000E+00 -0.00000000000E+00 -0.74505805969E-08  0.93827000000E+00  0.93827000000E+00 0.  1.
     999902    2    1    2    0    0 -0.10272443189E-01  0.68760435552E-03  0.72830750253E-02  0.10313189306E+01  0.10312418230E+01 0.  0.
     999903    2    3    3    0    0 -0.12055034816E+00  0.32410352060E-01  0.52479588077E-01  0.14271875404E+00  0.45074585163E-01 0.  0.
         14    1    1    2    0    0  0.10272443189E-01 -0.68760435552E-03 -0.72830750253E-02  0.12611069369E-01  0.00000000000E+00 0. -1.
     999901    1    3    3    0    0  0.11027790497E+00 -0.31722747704E-01 -0.45196513052E-01  0.88860017659E+00  0.88000000000E+00 0.  1.
        -11    1    4    4    0    0 -0.43989559625E-01  0.30236447947E-01  0.75301352292E-02  0.53910000909E-01  0.51100000000E-03 0. -1.
         11    1    4    4    0    0 -0.76560788535E-01  0.21739041127E-02  0.44949452848E-01  0.88808753130E-01  0.51100000000E-03 0.  1.
</event>
<event>
 8    1  0.2190295E+004  0.1043930E+01  0.7957747E-01            NaN
         13   -1    0    0    0    0  0.00000000000E+00  0.00000000000E+00  0.74505805969E-08  0.10566000000E+00  0.10566000000E+00 0. -1.
     999900   -1    0    0    0    0 -0.00000000000E+00 -0.00000000000E+00 -0.74505805969E-08  0.93827000000E+00  0.93827000000E+00 0. -1.
     999902    2    1    2    0    0  0.15055969065E-01 -0.15727086915E-01  0.40029627816E-03  0.10221542404E+01  0.10219222610E+01 0.  0.
     999903    2    3    3    0    0 -0.51930307255E-01 -0.88799171274E-01 -0.72002653488E-01  0.13363362849E+00  0.45733083465E-01 0.  0.
         14    1    1    2    0    0 -0.15055969065E-01  0.15727086915E-01 -0.40029627816E-03  0.21775759560E-01  0.00000000000E+00 0.  1.
     999901    1    3    3    0    0  0.66986276320E-01  0.73072084359E-01  0.72402949766E-01  0.88852061195E+00  0.88000000000E+00 0.  1.
        -11    1    4    4    0    0 -0.60110490654E-01 -0.79807912800E-01 -0.67865559635E-01  0.12078315006E+00  0.51100000000E-03 0. -1.
         11    1    4    4    0    0  0.81801833986E-02 -0.89912584745E-02 -0.41370938530E-02  0.12850478432E-01  0.51100000000E-03 0.  1.
</event>
<event>
 8    1  0.2190295E+004  0.1043930E+01  0.7957747E-01            NaN
         13   -1    0    0    0    0  0.00000000000E+00  0.00000000000E+00  0.74505805969E-08  0.10566000000E+00  0.10566000000E+00 0.  1.
     999900   -1    0    0    0    0 -0.00000000000E+00 -0.00000000000E+00 -0.74505805969E-08  0.93827000000E+00  0.93827000000E+00 0.  1.
     999902    2    1    2    0    0 -0.34976652995E-02 -0.47091022786E-02 -0.11318446090E-01  0.10311818029E+01  0.10311029988E+01 0.  0.
     999903    2    3    3    0    0 -0.10703413317E+00 -0.34674505785E-01 -0.74738625801E-01  0.14233994703E+00  0.44901796395E-01 0.  0.
         14    1    1    2    0    0  0.34976652995E-02  0.47091022786E-02  0.11318446090E-01  0.12748197077E-01  0.00000000000E+00 0.  1.
     999901    1    3    3    0    0  0.10353646787E+00  0.29965403506E-01  0.63420179711E-01  0.88884185589E+00  0.88000000000E+00 0. -1.
        -11    1    4    4    0    0 -0.75769763580E-01 -0.44892063473E-01 -0.57744279103E-01  0.10531389902E+00  0.51100000000E-03 0. -1.
         11    1    4    4    0    0 -0.31264369592E-01  0.10217557688E-01 -0.16994346697E-01  0.37026048017E-01  0.51100000000E-03 0.  1.
</event>
<event>
 8    1  0.2190295E+004  0.1043930E+01  0.7957747E-01            NaN
         13   -1    0    0    0    0  0.00000000000E+00  0.00000000000E+00  0.74505805969E-08  0.10566000000E+00  0.10566000000E+00 0.  1.
     999900   -1    0    0    0    0 -0.00000000000E+00 -0.00000000000E+00 -0.74505805969E-08  0.93827000000E+00  0.93827000000E+00 0. -1.
     999902    2    1    2    0    0  0.10503750095E-01  0.71161583475E-02 -0.64962329540E-02  0.10296762455E+01  0.10295775838E+01 0.  0.
     999903    2    3    3    0    0  0.11476160357E+00  0.58345173797E-01  0.36388355996E-01  0.14100690313E+00  0.44547158368E-01 0.  0.
         14    1    1    2    0    0 -0.10503750095E-01 -0.71161583475E-02  0.64962329540E-02  0.14253754533E-01  0.00000000000E+00 0. -1.
     999901    1    3    3    0    0 -0.10425785348E+00 -0.51229015450E-01 -0.42884588950E-01  0.88866934233E+00  0.88000000000E+00 0. -1.
        -11    1    4    4    0    0  0.82256063171E-01  0.58049376572E-01  0.39922516065E-01  0.10830447109E+00  0.51100000000E-03 0.  1.
         11    1    4    4    0    0  0.32505540404E-01  0.29579722507E-03 -0.35341600689E-02  0.32702432040E-01  0.51100000000E-03 0. -1.
</event>
<event>
 8    1  0.2190295E+004  0.1043930E+01  0.7957747E-01            NaN
         13   -1    0    0    0    0  0.00000000000E+00  0.00000000000E+00  0.74505805969E-08  0.10566000000E+00  0.10566000000E+00 0. -1.
     999900   -1    0    0    0    0 -0.00000000000E+00 -0.00000000000E+00 -0.74505805969E-08  0.93827000000E+00  0.93827000000E+00 0.  1.
     999902    2    1    2    0    0  0.83441514124E-03  0.10055123983E-01 -0.81062402433E-02  0.10309873226E+01  0.10309060803E+01 0.  0.
     999903    2    3    3    0    0  0.98367035485E-01  0.80214225706E-01  0.44084722028E-01  0.14129141495E+00  0.43696745249E-01 0.  0.
         14    1    1    2    0    0 -0.83441514124E-03 -0.10055123983E-01  0.81062402433E-02  0.12942677382E-01  0.00000000000E+00 0. -1.
     999901    1    3    3    0    0 -0.97532620344E-01 -0.70159101723E-01 -0.52190962271E-01  0.88969590767E+00  0.88000000000E+00 0.  1.
        -11    1    4    4    0    0  0.18031082612E-01  0.26406761750E-01 -0.57813878458E-02  0.32498039521E-01  0.51100000000E-03 0. -1.
         11    1    4    4    0    0  0.80335952873E-01  0.53807463956E-01  0.49866109873E-01  0.10879337542E+00  0.51100000000E-03 0.  1.
</event>
<event>
 8    1  0.2190295E+004  0.1043930E+01  0.7957747E-01            NaN
         13   -1    0    0    0    0  0.00000000000E+00  0.00000000000E+00  0.74505805969E-08  0.10566000000E+00  0.10566000000E+00 0.  1.
     999900   -1    0    0    0    0 -0.00000000000E+00 -0.00000000000E+00 -0.74505805969E-08  0.93827000000E+00  0.93827000000E+00 0.  1.
     999902    2    1    2    0    0 -0.22663607068E-02 -0.12330003428E-01 -0.68107848923E-02  0.10296628291E+01  0.10295639802E+01 0.  0.
     999903    2    3    3    0    0  0.89089909825E-01  0.56428650112E-02 -0.98378556757E-01  0.14002602171E+00  0.44272930437E-01 0.  0.
         14    1    1    2    0    0  0.22663607068E-02  0.12330003428E-01  0.68107848923E-02  0.14267170926E-01  0.00000000000E+00 0. -1.
     999901    1    3    3    0    0 -0.91356270532E-01 -0.17972868439E-01  0.91567771864E-01  0.88963680736E+00  0.88000000000E+00 0. -1.
        -11    1    4    4    0    0  0.44229958896E-01 -0.41987624874E-02 -0.78023886805E-01  0.89788122285E-01  0.51100000000E-03 0. -1.
         11    1    4    4    0    0  0.44859950929E-01  0.98416274985E-02 -0.20354669951E-01  0.50237899429E-01  0.51100000000E-03 0.  1.
</event>
<event>
 8    1  0.2190295E+004  0.1043930E+01  0.7957747E-01            NaN
         13   -1    0    0    0    0  0.00000000000E+00  0.00000000000E+00  0.74505805969E-08  0.10566000000E+00  0.10566000000E+00 0.  1.
     999900   -1    0    0    0    0 -0.00000000000E+00 -0.00000000000E+00 -0.74505805969E-08  0.93827000000E+00  0.93827000000E+00 0. -1.
     999902    2    1    2    0    0 -0.23295071796E-02 -0.99657331362E-02  0.84934886190E-02  0.10306303087E+01  0.10305444927E+01 0.  0.
     999903    2    3    3    0    0 -0.90609042298E-01  0.61172420589E-01  0.74495250499E-01  0.14090555021E+00  0.48505341425E-01 0.  0.
         14    1    1    2    0    0  0.23295071796E-02  0.99657331362E-02 -0.84934886190E-02  0.13299691333E-01  0.00000000000E+00 0. -1.
     999901    1    3    3    0    0  0.88279535118E-01 -0.71138153725E-01 -0.66001761880E-01  0.88972475845E+00  0.88000000000E+00 0. -1.
        -11    1    4    4    0    0 -0.32446409367E-01  0.13074565434E-01  0.51021204745E-01  0.61863868265E-01  0.51100000000E-03 0. -1.
         11    1    4    4    0    0 -0.58162632931E-01  0.48097855154E-01  0.23474045754E-01  0.79041681947E-01  0.51100000000E-03 0.  1.
</event>
<event>
 8    1  0.2190295E+004  0.1043930E+01  0.7957747E-01            NaN
         13   -1    0    0    0    0  0.00000000000E+00  0.00000000000E+00  0.74505805969E-08  0.10566000000E+00  0.10566000000E+00 0.  1.
     999900   -1    0    0    0    0 -0.00000000000E+00 -0.00000000000E+00 -0.74505805969E-08  0.93827000000E+00  0.93827000000E+00 0.  1.
     999902    2    1    2    0    0  0.85193707309E-02 -0.11422773987E-01 -0.12858176370E-02  0.10296222130E+01  0.10295227966E+01 0.  0.
     999903    2    3    3    0    0 -0.10125988367E+00  0.53085553938E-01  0.63112263548E-01  0.13812912721E+00  0.44998421022E-01 0.  0.
         14    1    1    2    0    0 -0.85193707309E-02  0.11422773987E-01  0.12858176370E-02  0.14307787048E-01  0.00000000000E+00 0.  1.
     999901    1    3    3    0    0  0.10977925440E+00 -0.64508327925E-01 -0.64398081185E-01  0.89149308574E+00  0.88000000000E+00 0.  1.
        -11    1    4    4    0    0 -0.14491829563E-01 -0.59826867087E-02  0.71485038166E-04  0.15686678917E-01  0.51100000000E-03 0.  1.
         11    1    4    4    0    0 -0.86768054111E-01  0.59068240647E-01  0.63040778510E-01  0.12244244829E+00  0.51100000000E-03 0. -1.
</event>
<event>
 8    1  0.2190295E+004  0.1043930E+01  0.7957747E-01            NaN
         13   -1    0    0    0    0  0.00000000000E+00  0.00000000000E+00  0.74505805969E-08  0.10566000000E+00  0.10566000000E+00 0.  1.
     999900   -1    0    0    0    0 -0.00000000000E+00 -0.00000000000E+00 -0.74505805969E-08  0.93827000000E+00  0.93827000000E+00 0. -1.
     999902    2    1    2    0    0 -0.13303172994E-01 -0.18337808683E-02 -0.14562494610E-02  0.10304223049E+01  0.10303337657E+01 0.  0.
     999903    2    3    3    0    0 -0.11453560802E+00  0.67731454197E-01 -0.17134125605E-01  0.14175300555E+00  0.45764406813E-01 0.  0.
         14    1    1    2    0    0  0.13303172994E-01  0.18337808683E-02  0.14562494610E-02  0.13507695084E-01  0.00000000000E+00 0.  1.
     999901    1    3    3    0    0  0.10123243503E+00 -0.69565235066E-01  0.15677876144E-01  0.88866929936E+00  0.88000000000E+00 0. -1.
        -11    1    4    4    0    0 -0.11989367640E-01  0.19502145904E-01  0.10374763979E-01  0.25139122496E-01  0.51100000000E-03 0.  1.
         11    1    4    4    0    0 -0.10254624038E+00  0.48229308294E-01 -0.27508889584E-01  0.11661388306E+00  0.51100000000E-03 0. -1.
</event>
<event>
 8    1  0.2190295E+004  0.1043930E+01  0.7957747E-01            NaN
         13   -1    0    0    0    0  0.00000000000E+00  0.00000000000E+00  0.74505805969E-08  0.10566000000E+00  0.10566000000E+00 0.  1.
     999900   -1    0    0    0    0 -0.00000000000E+00 -0.00000000000E+00 -0.74505805969E-08  0.93827000000E+00  0.93827000000E+00 0. -1.
     999902    2    1    2    0    0  0.17061957305E-01  0.62271297298E-02  0.92178175612E-03  0.10257438181E+01  0.10255825872E+01 0.  0.
     999903    2    3    3    0    0  0.85550450269E-03  0.84695211305E-02  0.12957450402E+00  0.13623878695E+00  0.41218810056E-01 0.  0.
         14    1    1    2    0    0 -0.17061957305E-01 -0.62271297298E-02 -0.92178175612E-03  0.18186181935E-01  0.00000000000E+00 0. -1.
     999901    1    3    3    0    0  0.16206452803E-01 -0.22423914007E-02 -0.12865272226E+00  0.88950503111E+00  0.88000000000E+00 0. -1.
        -11    1    4    4    0    0  0.11256835330E-01  0.17538768278E-02  0.77559110219E-02  0.13791580851E-01  0.51100000000E-03 0.  1.
         11    1    4    4    0    0 -0.10401330828E-01  0.67156443027E-02  0.12181859300E+00  0.12244720610E+00  0.51100000000E-03 0. -1.
</event>
<event>
 8    1  0.2190295E+004  0.1043930E+01  0.7957747E-01            NaN
         13   -1    0    0    0    0  0.00000000000E+00  0.00000000000E+00  0.74505805969E-08  0.10566000000E+00  0.10566000000E+00 0. -1.
     999900   -1    0    0    0    0 -0.00000000000E+00 -0.00000000000E+00 -0.74505805969E-08  0.93827000000E+00  0.93827000000E+00 0.  1.
     999902    2    1    2    0    0 -0.67046169472E-02 -0.52004762778E-02  0.10375413481E-01  0.10305267897E+01  0.10304396238E+01 0.  0.
     999903    2    3    3    0    0  0.13707686213E-01 -0.29082872133E-01  0.13055306037E+00  0.14180315561E+00  0.45059064082E-01 0.  0.
         14    1    1    2    0    0  0.67046169472E-02  0.52004762778E-02 -0.10375413481E-01  0.13403210318E-01  0.00000000000E+00 0. -1.
     999901    1    3    3    0    0 -0.20412303161E-01  0.23882395855E-01 -0.12017764689E+00  0.88872363408E+00  0.88000000000E+00 0.  1.
        -11    1    4    4    0    0  0.39135769546E-02 -0.34355241030E-01  0.12432523382E+00  0.12904504468E+00  0.51100000000E-03 0. -1.
         11    1    4    4    0    0  0.97941092588E-02  0.52723688972E-02  0.62278265488E-02  0.12758110929E-01  0.51100000000E-03 0.  1.
</event>
<event>
 8    1  0.2190295E+004  0.1043930E+01  0.7957747E-01            NaN
         13   -1    0    0    0    0  0.00000000000E+00  0.00000000000E+00  0.74505805969E-08  0.10566000000E+00  0.10566000000E+00 0. -1.
     999900   -1    0    0    0    0 -0.00000000000E+00 -0.00000000000E+00 -0.74505805969E-08  0.93827000000E+00  0.93827000000E+00 0.  1.
     999902    2    1    2    0    0  0.10570104269E-01 -0.18623466708E-02 -0.92387160187E-02  0.10297684565E+01  0.10296710760E+01 0.  0.
     999903    2    3    3    0    0  0.10733620892E+00 -0.78432044132E-01 -0.40591531667E-02  0.14114399962E+00  0.47249387428E-01 0.  0.
         14    1    1    2    0    0 -0.10570104269E-01  0.18623466708E-02  0.92387160187E-02  0.14161543456E-01  0.00000000000E+00 0. -1.
     999901    1    3    3    0    0 -0.96766104646E-01  0.76569697462E-01 -0.51795628520E-02  0.88862445693E+00  0.88000000000E+00 0.  1.
        -11    1    4    4    0    0  0.79192671720E-01 -0.40149774694E-01  0.14811126977E-01  0.90017299812E-01  0.51100000000E-03 0.  1.
         11    1    4    4    0    0  0.28143537196E-01 -0.38282269438E-01 -0.18870280144E-01  0.51126699805E-01  0.51100000000E-03 0. -1.
</event>
<event>
 8    1  0.2190295E+004  0.1043930E+01  0.7957747E-01            NaN
         13   -1    0    0    0    0  0.00000000000E+00  0.00000000000E+00  0.74505805969E-08  0.10566000000E+00  0.10566000000E+00 0. -1.
     999900   -1    0    0    0    0 -0.00000000000E+00 -0.00000000000E+00 -0.74505805969E-08  0.93827000000E+00  0.93827000000E+00 0. -1.
     999902    2    1    2    0    0  0.47196177700E-03  0.94236508834E-02  0.97637348584E-02  0.10303521334E+01  0.10302626657E+01 0.  0.
     999903    2    3    3    0    0 -0.39558292739E-05 -0.11647943273E+00 -0.60811615876E-01  0.13859393010E+00  0.44076825781E-01 0.  0.
         14    1    1    2    0    0 -0.47196177700E-03 -0.94236508834E-02 -0.97637348584E-02  0.13577866632E-01  0.00000000000E+00 0.  1.
     999901    1    3    3    0    0  0.47591760628E-03  0.12590308361E+00  0.70575350734E-01  0.89175820327E+00  0.88000000000E+00 0.  1.
        -11    1    4    4    0    0  0.21758281194E-01 -0.48603162036E-01 -0.25392700161E-01  0.58997800831E-01  0.51100000000E-03 0. -1.
         11    1    4    4    0    0 -0.21762237023E-01 -0.67876270694E-01 -0.35418915715E-01  0.79596129271E-01  0.51100000000E-03 0.  1.
</event>
<event>
 8    1  0.2190295E+004  0.1043930E+01  0.7957747E-01            NaN
         13   -1    0    0    0    0  0.00000000000E+00  0.00000000000E+00  0.74505805969E-08  0.10566000000E+00  0.10566000000E+00 0.  1.
     999900   -1    0    0    0    0 -0.00000000000E+00 -0.00000000000E+00 -0.74505805969E-08  0.93827000000E+00  0.93827000000E+00 0. -1.
     999902    2    1    2    0    0 -0.48571466983E-02 -0.37687203558E-02 -0.11988509667E-01  0.10304570830E+01  0.10303690021E+01 0.  0.
     999903    2    3    3    0    0  0.53900322436E-01 -0.80179921388E-01 -0.87127264321E-01  0.14201071760E+00  0.56936975451E-01 0.  0.
         14    1    1    2    0    0  0.48571466983E-02  0.37687203558E-02  0.11988509667E-01  0.13472916952E-01  0.00000000000E+00 0.  1.
     999901    1    3    3    0    0 -0.58757469134E-01  0.76411201032E-01  0.75138754654E-01  0.88844636545E+00  0.88000000000E+00 0.  1.
        -11    1    4    4    0    0  0.76591703266E-02 -0.43127291964E-01 -0.10324758851E-01  0.45005421546E-01  0.51100000000E-03 0.  1.
         11    1    4    4    0    0  0.46241152109E-01 -0.37052629424E-01 -0.76802505469E-01  0.97005296057E-01  0.51100000000E-03 0. -1.
</event>
<event>
 8    1  0.2190295E+004  0.1043930E+01  0.7957747E-01            NaN
         13   -1    0    0    0    0  0.00000000000E+00  0.00000000000E+00  0.74505805969E-08  0.10566000000E+00  0.10566000000E+00 0.  1.
     999900   -1    0    0    0    0 -0.00000000000E+00 -0.00000000000E+00 -0.74505805969E-08  0.93827000000E+00  0.93827000000E+00 0. -1.
     999902    2    1    2    0    0  0.64654188764E-02  0.98079301525E-02  0.72918934556E-02  0.10301036178E+01  0.10300108225E+01 0.  0.
     999903    2    3    3    0    0  0.53408338135E-01  0.11946523921E+00  0.30530106382E-01  0.14175212336E+00  0.45135164989E-01 0.  0.
         14    1    1    2    0    0 -0.64654188764E-02 -0.98079301525E-02 -0.72918934556E-02  0.13826382220E-01  0.00000000000E+00 0. -1.
     999901    1    3    3    0    0 -0.46942919258E-01 -0.10965730906E+00 -0.23238212927E-01  0.88835149442E+00  0.88000000000E+00 0.  1.
        -11    1    4    4    0    0  0.27412228837E-01  0.16540724319E-01  0.10679979364E-01  0.33754243156E-01  0.51100000000E-03 0.  1.
         11    1    4    4    0    0  0.25996109298E-01  0.10292451489E+00  0.19850127018E-01  0.10799788020E+00  0.51100000000E-03 0. -1.
</event>
<event>
 8    1  0.2190295E+004  0.1043930E+01  0.7957747E-01            NaN
         13   -1    0    0    0    0  0.00000000000E+00  0.00000000000E+00  0.74505805969E-08  0.10566000000E+00  0.10566000000E+00 0.  1.
     999900   -1    0    0    0    0 -0.00000000000E+00 -0.00000000000E+00 -0.74505805969E-08  0.93827000000E+00  0.93827000000E+00 0. -1.
     999902    2    1    2    0    0  0.11125145798E-01  0.24039950454E-02 -0.69830861332E-02  0.10305766651E+01  0.10304901509E+01 0.  0.
     999903    2    3    3    0    0 -0.62188610899E-01  0.10390978195E+00 -0.55108830221E-01  0.14041127656E+00  0.44874015933E-01 0.  0.
         14    1    1    2    0    0 -0.11125145798E-01 -0.24039950454E-02  0.69830861332E-02  0.13353334907E-01  0.00000000000E+00 0.  1.
     999901    1    3    3    0    0  0.73313756697E-01 -0.10150578691E+00  0.48125744088E-01  0.89016538853E+00  0.88000000000E+00 0.  1.
        -11    1    4    4    0    0 -0.34876056301E-01  0.66855384877E-01 -0.56703924088E-01  0.94348173899E-01  0.51100000000E-03 0. -1.
         11    1    4    4    0    0 -0.27312554598E-01  0.37054397076E-01  0.15950938670E-02  0.46063102661E-01  0.51100000000E-03 0.  1.
</event>
<event>
 8    1  0.2190295E+004  0.1043930E+01  0.7957747E-01            NaN
         13   -1    0    0    0    0  0.00000000000E+00  0.00000000000E+00  0.74505805969E-08  0.10566000000E+00  0.10566000000E+00 0. -1.
     999900   -1    0    0    0    0 -0.00000000000E+00 -0.00000000000E+00 -0.74505805969E-08  0.93827000000E+00  0.93827000000E+00 0.  1.
     999902    2    1    2    0    0  0.32473785919E-02 -0.87079941767E-02  0.76934032948E-02  0.10318650473E+01  0.10317945109E+01 0.  0.
     999903    2    3    3    0    0 -0.36021579157E-01  0.24381329584E-01  0.12772716080E+00  0.14223306867E+00  0.44989052242E-01 0.  0.
         14    1    1    2    0    0 -0.32473785919E-02  0.87079941767E-02 -0.76934032948E-02  0.12064952737E-01  0.00000000000E+00 0.  1.
     999901    1    3    3    0    0  0.39268957749E-01 -0.33089323761E-01 -0.12003375750E+00  0.88963197859E+00  0.88000000000E+00 0.  1.
        -11    1    4    4    0    0 -0.10399097226E-01  0.32797724946E-01  0.85031638619E-01  0.91730434818E-01  0.51100000000E-03 0. -1.
         11    1    4    4    0    0 -0.25622481931E-01 -0.84163953620E-02  0.42695522178E-01  0.50502633854E-01  0.51100000000E-03 0.  1.
</event>
<event>
 8    1  0.2190295E+004  0.1043930E+01  0.7957747E-01            NaN
         13   -1    0    0    0    0  0.00000000000E+00  0.00000000000E+00  0.74505805969E-08  0.10566000000E+00  0.10566000000E+00 0. -1.
     999900   -1    0    0    0    0 -0.00000000000E+00 -0.00000000000E+00 -0.74505805969E-08  0.93827000000E+00  0.93827000000E+00 0.  1.
     999902    2    1    2    0    0  0.66130290507E-02 -0.85948997154E-02 -0.94989451701E-03  0.10330439193E+01  0.10329865596E+01 0.  0.
     999903    2    3    3    0    0  0.39883185551E-01  0.83589716214E-02  0.12898876255E+00  0.14271903941E+00  0.45498158777E-01 0.  0.
         14    1    1    2    0    0 -0.66130290507E-02  0.85948997154E-02  0.94989451701E-03  0.10886080743E-01  0.00000000000E+00 0. -1.
     999901    1    3    3    0    0 -0.33270156500E-01 -0.16953871337E-01 -0.12993865706E+00  0.89032487984E+00  0.88000000000E+00 0.  1.
        -11    1    4    4    0    0  0.44600472218E-02  0.40768696185E-02  0.88668251697E-01  0.88875378295E-01  0.51100000000E-03 0.  1.
         11    1    4    4    0    0  0.35423138329E-01  0.42821020029E-02  0.40320510850E-01  0.53843661120E-01  0.51100000000E-03 0. -1.
</event>
<event>
 8    1  0.2190295E+004  0.1043930E+01  0.7957747E-01            NaN
         13   -1    0    0    0    0  0.00000000000E+00  0.00000000000E+00  0.74505805969E-08  0.10566000000E+00  0.10566000000E+00 0. -1.
     999900   -1    0    0    0    0 -0.00000000000E+00 -0.00000000000E+00 -0.74505805969E-08  0.93827000000E+00  0.93827000000E+00 0.  1.
     999902    2    1    2    0    0  0.64826054252E-02 -0.12344473628E-02 -0.11232345003E-01  0.10309025825E+01  0.10308202661E+01 0.  0.
     999903    2    3    3    0    0  0.97629957450E-01  0.34875783977E-01  0.82852266384E-01  0.14047363938E+00  0.46047979486E-01 0.  0.
         14    1    1    2    0    0 -0.64826054252E-02  0.12344473628E-02  0.11232345003E-01  0.13027417536E-01  0.00000000000E+00 0. -1.
     999901    1    3    3    0    0 -0.91147352025E-01 -0.36110231340E-01 -0.94084611388E-01  0.89042894309E+00  0.88000000000E+00 0.  1.
        -11    1    4    4    0    0  0.82023116453E-01  0.90413601900E-02  0.53355419750E-01  0.98267999697E-01  0.51100000000E-03 0. -1.
         11    1    4    4    0    0  0.15606840997E-01  0.25834423787E-01  0.29496846635E-01  0.42205639679E-01  0.51100000000E-03 0.  1.
</event>
<event>
 8    1  0.2190295E+004  0.1043930E+01  0.7957747E-01            NaN
         13   -1    0    0    0    0  0.00000000000E+00  0.00000000000E+00  0.74505805969E-08  0.10566000000E+00  0.10566000000E+00 0. -1.
     999900   -1    0    0    0    0 -0.00000000000E+00 -0.00000000000E+00 -0.74505805969E-08  0.93827000000E+00  0.93827000000E+00 0.  1.
     999902    2    1    2    0    0  0.48991182468E-02  0.10439164468E-01 -0.88255752048E-02  0.10294086952E+01  0.10293062681E+01 0.  0.
     999903    2    3    3    0    0 -0.85732179639E-01  0.59742920489E-01  0.79675940766E-01  0.13897205468E+00  0.45230004097E-01 0.  0.
         14    1    1    2    0    0 -0.48991182468E-02 -0.10439164468E-01  0.88255752048E-02  0.14521304765E-01  0.00000000000E+00 0. -1.
     999901    1    3    3    0    0  0.90631297886E-01 -0.49303756022E-01 -0.88501515971E-01  0.89043664056E+00  0.88000000000E+00 0.  1.
        -11    1    4    4    0    0 -0.74254947466E-01  0.26754458771E-01  0.55668522447E-01  0.96585939969E-01  0.51100000000E-03 0. -1.
         11    1    4    4    0    0 -0.11477232174E-01  0.32988461718E-01  0.24007418319E-01  0.42386114711E-01  0.51100000000E-03 0.  1.
</event>
<event>
 8    1  0.2190295E+004  0.1043930E+01  0.7957747E-01            NaN
         13   -1    0    0    0    0  0.00000000000E+00  0.00000000000E+00  0.74505805969E-08  0.10566000000E+00  0.10566000000E+00 0. -1.
     999900   -1    0    0    0    0 -0.00000000000E+00 -0.00000000000E+00 -0.74505805969E-08  0.93827000000E+00  0.93827000000E+00 0.  1.
     999902    2    1    2    0    0  0.10394650201E-01 -0.63486313006E-02  0.49774689018E-02  0.10307721480E+01  0.10306881643E+01 0.  0.
     999903    2    3    3    0    0 -0.35543473964E-01  0.12179575355E+00  0.37344549090E-01  0.13971719881E+00  0.45041493913E-01 0.  0.
         14    1    1    2    0    0 -0.10394650201E-01  0.63486313006E-02 -0.49774689018E-02  0.13157851985E-01  0.00000000000E+00 0.  1.
     999901    1    3    3    0    0  0.45938124165E-01 -0.12814438485E+00 -0.32367080188E-01  0.89105494920E+00  0.88000000000E+00 0.  1.
        -11    1    4    4    0    0 -0.45228885730E-02  0.47887425663E-01  0.35068052198E-01  0.59528912838E-01  0.51100000000E-03 0. -1.
         11    1    4    4    0    0 -0.31020585391E-01  0.73908327883E-01  0.22764968920E-02  0.80188285974E-01  0.51100000000E-03 0.  1.
</event>
<event>
 8    1  0.2190295E+004  0.1043930E+01  0.7957747E-01            NaN
         13   -1    0    0    0    0  0.00000000000E+00  0.00000000000E+00  0.74505805969E-08  0.10566000000E+00  0.10566000000E+00 0. -1.
     999900   -1    0    0    0    0 -0.00000000000E+00 -0.00000000000E+00 -0.74505805969E-08  0.93827000000E+00  0.93827000000E+00 0.  1.
     999902    2    1    2    0    0  0.75715032066E-03  0.89188869533E-02  0.98924852992E-02  0.10305890448E+01  0.10305026919E+01 0.  0.
     999903    2    3    3    0    0 -0.11934296138E-01  0.12804914900E+00  0.40114248808E-01  0.14195726099E+00  0.44762696598E-01 0.  0.
         14    1    1    2    0    0 -0.75715032066E-03 -0.89188869533E-02 -0.98924852992E-02  0.13340955232E-01  0.00000000000E+00 0.  1.
     999901    1    3    3    0    0  0.12691446458E-01 -0.11913026205E+00 -0.30221763509E-01  0.88863178378E+00  0.88000000000E+00 0. -1.
        -11    1    4    4    0    0  0.80235554932E-02  0.86633749867E-01  0.40521234376E-01  0.95979245752E-01  0.51100000000E-03 0. -1.
         11    1    4    4    0    0 -0.19957851631E-01  0.41415399134E-01 -0.40698556782E-03  0.45978015240E-01  0.51100000000E-03 0.  1.
</event>
<event>
 7    1  0.2190295E+004  0.1043930E+01  0.7957747E-01            NaN
         13   -1    0    0    0    0  0.00000000000E+00  0.00000000000E+00  0.74505805969E-08  0.10566000000E+00  0.10566000000E+00 0. -1.
     999900   -1    0    0    0    0 -0.00000000000E+00 -0.00000000000E+00 -0.74505805969E-08  0.93827000000E+00  0.93827000000E+00 0.  1.
     999902    2    1    2    0    0 -0.13023263304E-01  0.33078307409E-02  0.14799063730E-02  0.10304119656E+01  0.10303232898E+01 0.  0.
         14    1    1    2    0    0  0.13023263304E-01 -0.33078307409E-02 -0.14799063730E-02  0.13518034405E-01  0.00000000000E+00 0. -1.
     999901    1    3    3    0    0 -0.41233971845E-01 -0.78283220107E-01  0.94377029692E-01  0.88945799604E+00  0.88000000000E+00 0. -1.
        -11    1    3    3    0    0 -0.91012799523E-02  0.23799410311E-01 -0.15794674904E-03  0.25485903871E-01  0.51100000000E-03 0.  1.
         11    1    3    3    0    0  0.37311988493E-01  0.57791640537E-01 -0.92739176570E-01  0.11546806569E+00  0.51100000000E-03 0. -1.
</event>
<event>
 8    1  0.2190295E+004  0.1043930E+01  0.7957747E-01            NaN
         13   -1    0    0    0    0  0.00000000000E+00  0.00000000000E+00  0.74505805969E-08  0.10566000000E+00  0.10566000000E+00 0.  1.
     999900   -1    0    0    0    0 -0.00000000000E+00 -0.00000000000E+00 -0.74505805969E-08  0.93827000000E+00  0.93827000000E+00 0.  1.
     999902    2    1    2    0    0  0.24728926890E-01 -0.94742083000E-03 -0.12691758037E-01  0.10161181652E+01  0.10157374796E+01 0.  0.
     999903    2    3    3    0    0 -0.22719053904E-01 -0.96244139477E-01 -0.67138000426E-01  0.12803192573E+00  0.45886524296E-01 0.  0.
         14    1    1    2    0    0 -0.24728926890E-01  0.94742083000E-03  0.12691758037E-01  0.27811834773E-01  0.00000000000E+00 0. -1.
     999901    1    3    3    0    0  0.47447980794E-01  0.95296718647E-01  0.54446242389E-01  0.88808623949E+00  0.88000000000E+00 0. -1.
        -11    1    4    4    0    0  0.53779809200E-02 -0.54117204752E-01 -0.51832729869E-01  0.75129804576E-01  0.51100000000E-03 0. -1.
         11    1    4    4    0    0 -0.28097034824E-01 -0.42126934724E-01 -0.15305270558E-01  0.52902121158E-01  0.51100000000E-03 0.  1.
</event>
<event>
 8    1  0.2190295E+004  0.1043930E+01  0.7957747E-01            NaN
         13   -1    0    0    0    0  0.00000000000E+00  0.00000000000E+00  0.74505805969E-08  0.10566000000E+00  0.10566000000E+00 0.  1.
     999900   -1    0    0    0    0 -0.00000000000E+00 -0.00000000000E+00 -0.74505805969E-08  0.93827000000E+00  0.93827000000E+00 0. -1.
     999902    2    1    2    0    0 -0.36456759787E-03 -0.12382435571E-01 -0.58980514094E-02  0.10302097729E+01  0.10301184066E+01 0.  0.
     999903    2    3    3    0    0 -0.10264176622E+00 -0.29093268025E-01  0.78704229473E-01  0.14009886793E+00  0.45294443833E-01 0.  0.
         14    1    1    2    0    0  0.36456759787E-03  0.12382435571E-01  0.58980514094E-02  0.13720227062E-01  0.00000000000E+00 0.  1.
     999901    1    3    3    0    0  0.10227719862E+00  0.16710832454E-01 -0.84602280882E-01  0.89011090501E+00  0.88000000000E+00 0. -1.
        -11    1    4    4    0    0 -0.58424618563E-01 -0.17962680013E-01  0.17134163061E-01  0.63481765825E-01  0.51100000000E-03 0.  1.
         11    1    4    4    0    0 -0.44217147656E-01 -0.11130588012E-01  0.61570066412E-01  0.76617102108E-01  0.51100000000E-03 0. -1.
</event>
<event>
 8    1  0.2190295E+004  0.1043930E+01  0.7957747E-01            NaN
         13   -1    0    0    0    0  0.00000000000E+00  0.00000000000E+00  0.74505805969E-08  0.10566000000E+00  0.10566000000E+00 0. -1.
     999900   -1    0    0    0    0 -0.00000000000E+00 -0.00000000000E+00 -0.74505805969E-08  0.93827000000E+00  0.93827000000E+00 0.  1.
     999902    2    1    2    0    0 -0.18806973661E-02 -0.11376872195E-01 -0.72539264309E-02  0.10303068692E+01  0.10302168000E+01 0.  0.
     999903    2    3    3    0    0  0.39432097569E-02  0.11809228502E+00  0.57944861963E-01  0.13842847921E+00  0.42936000573E-01 0.  0.
         14    1    1    2    0    0  0.18806973661E-02  0.11376872195E-01  0.72539264309E-02  0.13623130778E-01  0.00000000000E+00 0. -1.
     999901    1    3    3    0    0 -0.58239071230E-02 -0.12946915721E+00 -0.65198788394E-01  0.89187839001E+00  0.88000000000E+00 0.  1.
        -11    1    4    4    0    0  0.12388122042E-02  0.27725324406E-01 -0.50817906585E-02  0.28219035887E-01  0.51100000000E-03 0.  1.
         11    1    4    4    0    0  0.27043975527E-02  0.90366960609E-01  0.63026652621E-01  0.11020944332E+00  0.51100000000E-03 0. -1.
</event>
<event>
 8    1  0.2190295E+004  0.1043930E+01  0.7957747E-01            NaN
         13   -1    0    0    0    0  0.00000000000E+00  0.00000000000E+00  0.74505805969E-08  0.10566000000E+00  0.10566000000E+00 0.  1.
     999900   -1    0    0    0    0 -0.00000000000E+00 -0.00000000000E+00 -0.74505805969E-08  0.93827000000E+00  0.93827000000E+00 0.  1.
     999902    2    1    2    0    0  0.79990624920E-02  0.91368263769E-02 -0.83345180831E-02  0.10292014295E+01  0.10290960362E+01 0.  0.
     999903    2    3    3    0    0 -0.15608221413E-01 -0.44794728056E-01 -0.12280346065E+00  0.13983701869E+00  0.47154189762E-01 0.  0.
         14    1    1    2    0    0 -0.79990624920E-02 -0.91368263769E-02  0.83345180831E-02  0.14728570490E-01  0.00000000000E+00 0.  1.
     999901    1    3    3    0    0  0.23607283905E-01  0.53931554433E-01  0.11446894257E+00  0.88936441082E+00  0.88000000000E+00 0.  1.
        -11    1    4    4    0    0 -0.19551407064E-01 -0.40551398858E-01 -0.51944477551E-01  0.68739823513E-01  0.51100000000E-03 0.  1.
         11    1    4    4    0    0  0.39431856508E-02 -0.42433291983E-02 -0.70858983098E-01  0.71097195180E-01  0.51100000000E-03 0. -1.
</event>
<event>
 8    1  0.2190295E+004  0.1043930E+01  0.7957747E-01            NaN
         13   -1    0    0    0    0  0.00000000000E+00  0.00000000000E+00  0.74505805969E-08  0.10566000000E+00  0.10566000000E+00 0.  1.
     999900   -1    0    0    0    0 -0.00000000000E+00 -0.00000000000E+00 -0.74505805969E-08  0.93827000000E+00  0.93827000000E+00 0.  1.
     999902    2    1    2    0    0 -0.25606092031E-02  0.47125380836E-02  0.12397057720E-01  0.10304225289E+01  0.10303339926E+01 0.  0.
     999903    2    3    3    0    0 -0.17565080377E-01 -0.12890283422E+00 -0.24180570263E-01  0.13945893554E+00  0.44041139925E-01 0.  0.
         14    1    1    2    0    0  0.25606092031E-02 -0.47125380836E-02 -0.12397057720E-01  0.13507471074E-01  0.00000000000E+00 0. -1.
     999901    1    3    3    0    0  0.15004471174E-01  0.13361537230E+00  0.36577627984E-01  0.89096359339E+00  0.88000000000E+00 0. -1.
        -11    1    4    4    0    0 -0.21669525698E-01 -0.33169723153E-01 -0.17758729335E-01  0.43421566838E-01  0.51100000000E-03 0.  1.
         11    1    4    4    0    0  0.41044453209E-02 -0.95733111064E-01 -0.64218409278E-02  0.96037368703E-01  0.51100000000E-03 0. -1.
</event>
<event>
 8    1  0.2190295E+004  0.1043930E+01  0.7957747E-01            NaN
         13   -1    0    0    0    0  0.00000000000E+00  0.00000000000E+00  0.74505805969E-08  0.10566000000E+00  0.10566000000E+00 0. -1.
     999900   -1    0    0    0    0 -0.00000000000E+00 -0.00000000000E+00 -0.74505805969E-08  0.93827000000E+00  0.93827000000E+00 0.  1.
     999902    2    1    2    0    0  0.13082796438E-01 -0.16364141442E-02 -0.11825596499E-02  0.10306923317E+01  0.10306073194E+01 0.  0.
     999903    2    3    3    0    0  0.20982686928E-01 -0.12297641007E+00 -0.44577311273E-01  0.14127178590E+00  0.49062309614E-01 0.  0.
         14    1    1    2    0    0 -0.13082796438E-01  0.16364141442E-02  0.11825596499E-02  0.13237668270E-01  0.00000000000E+00 0. -1.
     999901    1    3    3    0    0 -0.78998904901E-02  0.12133999593E+00  0.43394751623E-01  0.88942054583E+00  0.88000000000E+00 0. -1.
        -11    1    4    4    0    0  0.11351557440E-01 -0.82473084981E-01 -0.43321168811E-02  0.83364836474E-01  0.51100000000E-03 0. -1.
         11    1    4    4    0    0  0.96311294888E-02 -0.40503325093E-01 -0.40245194392E-01  0.57906949423E-01  0.51100000000E-03 0.  1.
</event>
<event>
 8    1  0.2190295E+004  0.1043930E+01  0.7957747E-01            NaN
         13   -1    0    0    0    0  0.00000000000E+00  0.00000000000E+00  0.74505805969E-08  0.10566000000E+00  0.10566000000E+00 0.  1.
     999900   -1    0    0    0    0 -0.00000000000E+00 -0.00000000000E+00 -0.74505805969E-08  0.93827000000E+00  0.93827000000E+00 0. -1.
     999902    2    1    2    0    0  0.92803090078E-02 -0.10148715537E-01  0.31470215539E-03  0.10301742885E+01  0.10300824457E+01 0.  0.
     999903    2    3    3    0    0 -0.69223494539E-01 -0.10779587796E+00  0.36627058399E-01  0.14055841478E+00  0.44758050198E-01 0.  0.
         14    1    1    2    0    0 -0.92803090078E-02  0.10148715537E-01 -0.31470215539E-03  0.13755711533E-01  0.00000000000E+00 0. -1.
     999901    1    3    3    0    0  0.78503803546E-01  0.97647162421E-01 -0.36312356243E-01  0.88961587369E+00  0.88000000000E+00 0.  1.
        -11    1    4    4    0    0 -0.20804599330E-01 -0.46664147863E-01 -0.63950733168E-02  0.51493029943E-01  0.51100000000E-03 0.  1.
         11    1    4    4    0    0 -0.48418895209E-01 -0.61131730095E-01  0.43022131715E-01  0.89065384836E-01  0.51100000000E-03 0. -1.
</event>
<event>
 8    1  0.2190295E+004  0.1043930E+01  0.7957747E-01            NaN
         13   -1    0    0    0    0  0.00000000000E+00  0.00000000000E+00  0.74505805969E-08  0.10566000000E+00  0.10566000000E+00 0.  1.
     999900   -1    0    0    0    0 -0.00000000000E+00 -0.00000000000E+00 -0.74505805969E-08  0.93827000000E+00  0.93827000000E+00 0.  1.
     999902    2    1    2    0    0  0.32119513988E-03 -0.10434193093E-01 -0.10036392796E-02  0.10334427294E+01  0.10333895162E+01 0.  0.
     999903    2    3    3    0    0 -0.10791874901E+00  0.70629930740E-01 -0.39541781521E-01  0.14227918324E+00  0.45219133058E-01 0.  0.
         14    1    1    2    0    0 -0.32119513988E-03  0.10434193093E-01  0.10036392796E-02  0.10487270552E-01  0.00000000000E+00 0. -1.
     999901    1    3    3    0    0  0.10823994415E+00 -0.81064123833E-01  0.38538142242E-01  0.89116354621E+00  0.88000000000E+00 0. -1.
        -11    1    4    4    0    0 -0.28591919829E-01  0.43084983263E-01 -0.68401659780E-02  0.52161888903E-01  0.51100000000E-03 0.  1.
         11    1    4    4    0    0 -0.79326829176E-01  0.27544947477E-01 -0.32701615543E-01  0.90117294338E-01  0.51100000000E-03 0. -1.
</event>
<event>
 8    1  0.2190295E+004  0.1043930E+01  0.7957747E-01            NaN
         13   -1    0    0    0    0  0.00000000000E+00  0.00000000000E+00  0.74505805969E-08  0.10566000000E+00  0.10566000000E+00 0. -1.
     999900   -1    0    0    0    0 -0.00000000000E+00 -0.00000000000E+00 -0.74505805969E-08  0.93827000000E+00  0.93827000000E+00 0.  1.
     999902    2    1    2    0    0 -0.22274603263E-02 -0.12503651468E-01 -0.33756176108E-02  0.10307885513E+01  0.10307047782E+01 0.  0.
     999903    2    3    3    0    0 -0.11522098989E+00 -0.62410209031E-01 -0.29897743436E-01  0.14176570269E+00  0.45085792585E-01 0.  0.
         14    1    1    2    0    0  0.22274603263E-02  0.12503651468E-01  0.33756176108E-02  0.13141448694E-01  0.00000000000E+00 0. -1.
     999901    1    3    3    0    0  0.11299352956E+00  0.49906557563E-01  0.26522125825E-01  0.88902284862E+00  0.88000000000E+00 0.  1.
        -11    1    4    4    0    0 -0.79557049232E-01 -0.19406122383E-01 -0.10198375179E-01  0.82523873187E-01  0.51100000000E-03 0. -1.
         11    1    4    4    0    0 -0.35663940657E-01 -0.43004086648E-01 -0.19699368256E-01  0.59241829498E-01  0.51100000000E-03 0.  1.
</event>
<event>
 8    1  0.2190295E+004  0.1043930E+01  0.7957747E-01            NaN
         13   -1    0    0    0    0  0.00000000000E+00  0.00000000000E+00  0.74505805969E-08  0.10566000000E+00  0.10566000000E+00 0.  1.
     999900   -1    0    0    0    0 -0.00000000000E+00 -0.00000000000E+00 -0.74505805969E-08  0.93827000000E+00  0.93827000000E+00 0. -1.
     999902    2    1    2    0    0  0.32626492254E-03  0.10867225183E-01 -0.73233351551E-02  0.10308214429E+01  0.10307380913E+01 0.  0.
     999903    2    3    3    0    0 -0.18897922803E-01 -0.11347484856E+00  0.63766836157E-01  0.13903428601E+00  0.45062740157E-01 0.  0.
         14    1    1    2    0    0 -0.32626492254E-03 -0.10867225183E-01  0.73233351551E-02  0.13108557120E-01  0.00000000000E+00 0.  1.
     999901    1    3    3    0    0  0.19224187725E-01  0.12434207375E+00 -0.71090171312E-01  0.89178715687E+00  0.88000000000E+00 0. -1.
        -11    1    4    4    0    0  0.59942869789E-02 -0.56484752831E-01  0.49225543579E-01  0.75165644017E-01  0.51100000000E-03 0. -1.
         11    1    4    4    0    0 -0.24892209781E-01 -0.56990095733E-01  0.14541292577E-01  0.63868641995E-01  0.51100000000E-03 0.  1.
</event>
<event>
 8    1  0.2190295E+004  0.1043930E+01  0.7957747E-01            NaN
         13   -1    0    0    0    0  0.00000000000E+00  0.00000000000E+00  0.74505805969E-08  0.10566000000E+00  0.10566000000E+00 0. -1.
     999900   -1    0    0    0    0 -0.00000000000E+00 -0.00000000000E+00 -0.74505805969E-08  0.93827000000E+00  0.93827000000E+00 0. -1.
     999902    2    1    2    0    0  0.32636332129E-03  0.93660162765E-02 -0.12696542252E-01  0.10281492852E+01  0.10280281717E+01 0.  0.
     999903    2    3    3    0    0 -0.12467098218E+00 -0.38411651291E-01 -0.30013254251E-02  0.13798017818E+00  0.44846547954E-01 0.  0.
         14    1    1    2    0    0 -0.32636332129E-03 -0.93660162765E-02  0.12696542252E-01  0.15780714783E-01  0.00000000000E+00 0. -1.
     999901    1    3    3    0    0  0.12499734550E+00  0.47777667568E-01 -0.96952168268E-02  0.89016910704E+00  0.88000000000E+00 0. -1.
        -11    1    4    4    0    0 -0.56277842405E-01 -0.38331023788E-01  0.85097523822E-02  0.68623173469E-01  0.51100000000E-03 0. -1.
         11    1    4    4    0    0 -0.68393139772E-01 -0.80627503773E-04 -0.11511077807E-01  0.69357004707E-01  0.51100000000E-03 0.  1.
</event>
<event>
 8    1  0.2190295E+004  0.1043930E+01  0.7957747E-01            NaN
         13   -1    0    0    0    0  0.00000000000E+00  0.00000000000E+00  0.74505805969E-08  0.10566000000E+00  0.10566000000E+00 0.  1.
     999900   -1    0    0    0    0 -0.00000000000E+00 -0.00000000000E+00 -0.74505805969E-08  0.93827000000E+00  0.93827000000E+00 0. -1.
     999902    2    1    2    0    0 -0.10053673685E-01  0.31564978290E-02  0.84234616383E-02  0.10304394648E+01  0.10303511519E+01 0.  0.
     999903    2    3    3    0    0 -0.12395033050E+00 -0.50795298893E-01  0.23836996962E-02  0.14144018276E+00  0.45340891641E-01 0.  0.
         14    1    1    2    0    0  0.10053673685E-01 -0.31564978290E-02 -0.84234616383E-02  0.13490535167E-01  0.00000000000E+00 0.  1.
     999901    1    3    3    0    0  0.11389665681E+00  0.53951796722E-01  0.60397619421E-02  0.88899928207E+00  0.88000000000E+00 0. -1.
        -11    1    4    4    0    0 -0.80715573918E-01 -0.51896523881E-01  0.13178389760E-01  0.96861675298E-01  0.51100000000E-03 0. -1.
         11    1    4    4    0    0 -0.43234756579E-01  0.11012249880E-02 -0.10794690064E-01  0.44578507462E-01  0.51100000000E-03 0.  1.
</event>
<event>
 8    1  0.2190295E+004  0.1043930E+01  0.7957747E-01            NaN
         13   -1    0    0    0    0  0.00000000000E+00  0.00000000000E+00  0.74505805969E-08  0.10566000000E+00  0.10566000000E+00 0.  1.
     999900   -1    0    0    0    0 -0.00000000000E+00 -0.00000000000E+00 -0.74505805969E-08  0.93827000000E+00  0.93827000000E+00 0.  1.
     999902    2    1    2    0    0  0.88887271121E-02 -0.34614599717E-02  0.79361337072E-02  0.10315213984E+01  0.10314467616E+01 0.  0.
     999903    2    3    3    0    0  0.11406013289E+00  0.30328423075E-01  0.66259314223E-01  0.14269949603E+00  0.45203122525E-01 0.  0.
         14    1    1    2    0    0 -0.88887271121E-02  0.34614599717E-02 -0.79361337072E-02  0.12408601574E-01  0.00000000000E+00 0. -1.
     999901    1    3    3    0    0 -0.10517140578E+00 -0.33789883047E-01 -0.58323180516E-01  0.88882190239E+00  0.88000000000E+00 0. -1.
        -11    1    4    4    0    0  0.74421619911E-01 -0.11856299412E-02  0.49360683160E-01  0.89312492920E-01  0.51100000000E-03 0. -1.
         11    1    4    4    0    0  0.39638512977E-01  0.31514053017E-01  0.16898631063E-01  0.53387003113E-01  0.51100000000E-03 0.  1.
</event>
<event>
 8    1  0.2190295E+004  0.1043930E+01  0.7957747E-01            NaN
         13   -1    0    0    0    0  0.00000000000E+00  0.00000000000E+00  0.74505805969E-08  0.10566000000E+00  0.10566000000E+00 0. -1.
     999900   -1    0    0    0    0 -0.00000000000E+00 -0.00000000000E+00 -0.74505805969E-08  0.93827000000E+00  0.93827000000E+00 0. -1.
     999902    2    1    2    0    0  0.95506958137E-02  0.42337218552E-02 -0.15157558420E-01  0.10255209868E+01  0.10253557444E+01 0.  0.
     999903    2    3    3    0    0  0.39967496914E-01  0.82527389998E-01 -0.93297029350E-01  0.13807473082E+00  0.44182855231E-01 0.  0.
         14    1    1    2    0    0 -0.95506958137E-02 -0.42337218552E-02  0.15157558420E-01  0.18409013241E-01  0.00000000000E+00 0.  1.
     999901    1    3    3    0    0 -0.30416801100E-01 -0.78293668143E-01  0.78139470930E-01  0.88744625594E+00  0.88000000000E+00 0.  1.
        -11    1    4    4    0    0  0.65004335815E-02  0.38875465130E-01 -0.65491342440E-01  0.76439090008E-01  0.51100000000E-03 0. -1.
         11    1    4    4    0    0  0.33467063332E-01  0.43651924868E-01 -0.27805686910E-01  0.61635640812E-01  0.51100000000E-03 0.  1.
</event>
<event>
 8    1  0.2190295E+004  0.1043930E+01  0.7957747E-01            NaN
         13   -1    0    0    0    0  0.00000000000E+00  0.00000000000E+00  0.74505805969E-08  0.10566000000E+00  0.10566000000E+00 0. -1.
     999900   -1    0    0    0    0 -0.00000000000E+00 -0.00000000000E+00 -0.74505805969E-08  0.93827000000E+00  0.93827000000E+00 0.  1.
     999902    2    1    2    0    0 -0.51257750537E-02 -0.50886012376E-02 -0.74624058409E-02  0.10335446770E+01  0.10334924985E+01 0.  0.
     999903    2    3    3    0    0  0.11810195211E+00 -0.29259004971E-01 -0.60648250989E-01  0.14304031696E+00  0.44476527133E-01 0.  0.
         14    1    1    2    0    0  0.51257750537E-02  0.50886012376E-02  0.74624058409E-02  0.10385322980E-01  0.00000000000E+00 0. -1.
     999901    1    3    3    0    0 -0.12322772716E+00  0.24170403733E-01  0.53185845149E-01  0.89050436006E+00  0.88000000000E+00 0. -1.
        -11    1    4    4    0    0  0.97648739962E-01 -0.23630268832E-01 -0.28344209730E-01  0.10439023598E+00  0.51100000000E-03 0. -1.
         11    1    4    4    0    0  0.20453212144E-01 -0.56287361387E-02 -0.32304041259E-01  0.38650080985E-01  0.51100000000E-03 0.  1.
</event>
<event>
 8    1  0.2190295E+004  0.1043930E+01  0.7957747E-01            NaN
         13   -1    0    0    0    0  0.00000000000E+00  0.00000000000E+00  0.74505805969E-08  0.10566000000E+00  0.10566000000E+00 0.  1.
     999900   -1    0    0    0    0 -0.00000000000E+00 -0.00000000000E+00 -0.74505805969E-08  0.93827000000E+00  0.93827000000E+00 0.  1.
     999902    2    1    2    0    0  0.38377347504E-02  0.59713305390E-02  0.37895597403E-02  0.10358835250E+01  0.10358522731E+01 0.  0.
     999903    2    3    3    0    0  0.11036831577E+00  0.68996500068E-01 -0.47731686939E-01  0.14572883311E+00  0.44909873248E-01 0.  0.
         14    1    1    2    0    0 -0.38377347504E-02 -0.59713305390E-02 -0.37895597403E-02  0.80464749702E-02  0.00000000000E+00 0. -1.
     999901    1    3    3    0    0 -0.10653058102E+00 -0.63025169529E-01  0.51521246680E-01  0.89015469192E+00  0.88000000000E+00 0. -1.
        -11    1    4    4    0    0  0.38544038355E-01  0.43296091382E-02 -0.25912326025E-01  0.46648667387E-01  0.51100000000E-03 0.  1.
         11    1    4    4    0    0  0.71824277411E-01  0.64666890929E-01 -0.21819360915E-01  0.99080165724E-01  0.51100000000E-03 0. -1.
</event>
<event>
 8    1  0.2190295E+004  0.1043930E+01  0.7957747E-01            NaN
         13   -1    0    0    0    0  0.00000000000E+00  0.00000000000E+00  0.74505805969E-08  0.10566000000E+00  0.10566000000E+00 0.  1.
     999900   -1    0    0    0    0 -0.00000000000E+00 -0.00000000000E+00 -0.74505805969E-08  0.93827000000E+00  0.93827000000E+00 0.  1.
     999902    2    1    2    0    0  0.28414059636E-02 -0.12158311059E-01 -0.54135132245E-02  0.10303210235E+01  0.10302311426E+01 0.  0.
     999903    2    3    3    0    0  0.13094008522E+00 -0.96138689670E-02 -0.23928427554E-01  0.14085008646E+00  0.45038259480E-01 0.  0.
         14    1    1    2    0    0 -0.28414059636E-02  0.12158311059E-01  0.54135132245E-02  0.13608976489E-01  0.00000000000E+00 0. -1.
     999901    1    3    3    0    0 -0.12809867925E+00 -0.25444420917E-02  0.18514914329E-01  0.88947093705E+00  0.88000000000E+00 0.  1.
        -11    1    4    4    0    0  0.25059376309E-01 -0.94300578940E-02 -0.22469938509E-01  0.34957940307E-01  0.51100000000E-03 0. -1.
         11    1    4    4    0    0  0.10588070891E+00 -0.18381107292E-03 -0.14584890447E-02  0.10589214615E+00  0.51100000000E-03 0.  1.
</event>
<event>
 8    1  0.2190295E+004  0.1043930E+01  0.7957747E-01            NaN
         13   -1    0    0    0    0  0.00000000000E+00  0.00000000000E+00  0.74505805969E-08  0.10566000000E+00  0.10566000000E+00 0. -1.
     999900   -1    0    0    0    0 -0.00000000000E+00 -0.00000000000E+00 -0.74505805969E-08  0.93827000000E+00  0.93827000000E+00 0. -1.
     999902    2    1    2    0    0  0.77351806708E-02  0.31101692763E-02  0.10341828539E-01  0.10306461907E+01  0.10305605808E+01 0.  0.
     999903    2    3    3    0    0 -0.11730073760E+00 -0.46887663516E-01 -0.37384395933E-01  0.13912414571E+00  0.44721570058E-01 0.  0.
         14    1    1    2    0    0 -0.77351806708E-02 -0.31101692763E-02 -0.10341828539E-01  0.13283809336E-01  0.00000000000E+00 0.  1.
     999901    1    3    3    0    0  0.12503591827E+00  0.49997832792E-01  0.47726224472E-01  0.89152204496E+00  0.88000000000E+00 0.  1.
        -11    1    4    4    0    0 -0.65033248898E-01 -0.44196621690E-01 -0.78385586213E-02  0.79021319613E-01  0.51100000000E-03 0. -1.
         11    1    4    4    0    0 -0.52267488700E-01 -0.26910418259E-02 -0.29545837312E-01  0.60102826095E-01  0.51100000000E-03 0.  1.
</event>
<event>
 8    1  0.2190295E+004  0.1043930E+01  0.7957747E-01            NaN
         13   -1    0    0    0    0  0.00000000000E+00  0.00000000000E+00  0.74505805969E-08  0.10566000000E+00  0.10566000000E+00 0. -1.
     999900   -1    0    0    0    0 -0.00000000000E+00 -0.00000000000E+00 -0.74505805969E-08  0.93827000000E+00  0.93827000000E+00 0.  1.
     999902    2    1    2    0    0  0.63710192345E-02  0.89356683918E-02  0.81751417541E-02  0.10302453736E+01  0.10301544840E+01 0.  0.
     999903    2    3    3    0    0 -0.39684904745E-02  0.56938560215E-01  0.12151234946E+00  0.14161918355E+00  0.45088729433E-01 0.  0.
         14    1    1    2    0    0 -0.63710192345E-02 -0.89356683918E-02 -0.81751417541E-02  0.13684626352E-01  0.00000000000E+00 0. -1.
     999901    1    3    3    0    0  0.10339509709E-01 -0.48002891823E-01 -0.11333720770E+00  0.88862619010E+00  0.88000000000E+00 0.  1.
        -11    1    4    4    0    0  0.23196780398E-02  0.48758248777E-01  0.51922692434E-01  0.71266926695E-01  0.51100000000E-03 0.  1.
         11    1    4    4    0    0 -0.62881685143E-02  0.81803114378E-02  0.69589657023E-01  0.70352256851E-01  0.51100000000E-03 0. -1.
</event>
<event>
 8    1  0.2190295E+004  0.1043930E+01  0.7957747E-01            NaN
         13   -1    0    0    0    0  0.00000000000E+00  0.00000000000E+00  0.74505805969E-08  0.10566000000E+00  0.10566000000E+00 0. -1.
     999900   -1    0    0    0    0 -0.00000000000E+00 -0.00000000000E+00 -0.74505805969E-08  0.93827000000E+00  0.93827000000E+00 0. -1.
     999902    2    1    2    0    0  0.24145854643E-02 -0.74214009044E-02  0.13782516218E-01  0.10280912763E+01  0.10279692638E+01 0.  0.
     999903    2    3    3    0    0 -0.45513996007E-02  0.72404227430E-01 -0.10625019885E+00  0.13633541928E+00  0.45112685652E-01 0.  0.
         14    1    1    2    0    0 -0.24145854643E-02  0.74214009044E-02 -0.13782516218E-01  0.15838723675E-01  0.00000000000E+00 0.  1.
     999901    1    3    3    0    0  0.69659850650E-02 -0.79825628334E-01  0.12003271507E+00  0.89175585704E+00  0.88000000000E+00 0.  1.
        -11    1    4    4    0    0  0.56556903700E-02  0.15451590916E-01 -0.60125961341E-01  0.62338838966E-01  0.51100000000E-03 0.  1.
         11    1    4    4    0    0 -0.10207089971E-01  0.56952636514E-01 -0.46124237508E-01  0.73996580314E-01  0.51100000000E-03 0. -1.
</event>
<event>
 8    1  0.2190295E+004  0.1043930E+01  0.7957747E-01            NaN
         13   -1    0    0    0    0  0.00000000000E+00  0.00000000000E+00  0.74505805969E-08  0.10566000000E+00  0.10566000000E+00 0.  1.
     999900   -1    0    0    0    0 -0.00000000000E+00 -0.00000000000E+00 -0.74505805969E-08  0.93827000000E+00  0.93827000000E+00 0. -1.
     999902    2    1    2    0    0 -0.30355211038E-02 -0.92403977475E-02  0.87992877011E-02  0.10308141011E+01  0.10307306556E+01 0.  0.
     999903    2    3    3    0    0 -0.89007411437E-01 -0.19173466920E-01 -0.96691874419E-01  0.14029839826E+00  0.45214829986E-01 0.  0.
         14    1    1    2    0    0  0.30355211038E-02  0.92403977475E-02 -0.87992877011E-02  0.13115898862E-01  0.00000000000E+00 0. -1.
     999901    1    3    3    0    0  0.85971890333E-01  0.99330691729E-02  0.10549116212E+00  0.89051570288E+00  0.88000000000E+00 0.  1.
        -11    1    4    4    0    0 -0.52721870469E-01 -0.29545920128E-01 -0.41040204648E-01  0.73055571591E-01  0.51100000000E-03 0.  1.
         11    1    4    4    0    0 -0.36285540968E-01  0.10372453207E-01 -0.55651669771E-01  0.67242826668E-01  0.51100000000E-03 0. -1.
</event>
<event>
 8    1  0.2190295E+004  0.1043930E+01  0.7957747E-01            NaN
         13   -1    0    0    0    0  0.00000000000E+00  0.00000000000E+00  0.74505805969E-08  0.10566000000E+00  0.10566000000E+00 0. -1.
     999900   -1    0    0    0    0 -0.00000000000E+00 -0.00000000000E+00 -0.74505805969E-08  0.93827000000E+00  0.93827000000E+00 0. -1.
     999902    2    1    2    0    0  0.30384961318E-02 -0.13309049737E-01 -0.26501595184E-02  0.10300236486E+01  0.10299297695E+01 0.  0.
     999903    2    3    3    0    0  0.91838464975E-01 -0.82864370214E-01 -0.51464837873E-01  0.14148200642E+00  0.45472201437E-01 0.  0.
         14    1    1    2    0    0 -0.30384961318E-02  0.13309049737E-01  0.26501595184E-02  0.13906351395E-01  0.00000000000E+00 0. -1.
     999901    1    3    3    0    0 -0.88799968844E-01  0.69555320477E-01  0.48814678354E-01  0.88854164218E+00  0.88000000000E+00 0.  1.
        -11    1    4    4    0    0  0.44538719934E-01 -0.39419302567E-01 -0.48398874415E-03  0.59481714454E-01  0.51100000000E-03 0.  1.
         11    1    4    4    0    0  0.47299745042E-01 -0.43445067646E-01 -0.50980849129E-01  0.82000291967E-01  0.51100000000E-03 0. -1.
</event>
<event>
 8    1  0.2190295E+004  0.1043930E+01  0.7957747E-01            NaN
         13   -1    0    0    0    0  0.00000000000E+00  0.00000000000E+00  0.74505805969E-08  0.10566000000E+00  0.10566000000E+00 0.  1.
     999900   -1    0    0    0    0 -0.00000000000E+00 -0.00000000000E+00 -0.74505805969E-08  0.93827000000E+00  0.93827000000E+00 0. -1.
     999902    2    1    2    0    0 -0.10303921873E-02 -0.75738665757E-02 -0.10888102314E-01  0.10306267698E+01  0.10305409078E+01 0.  0.
     999903    2    3    3    0    0  0.85514027250E-01 -0.98920628689E-01  0.27444136845E-01  0.14084953469E+00  0.44581062546E-01 0.  0.
         14    1    1    2    0    0  0.10303921873E-02  0.75738665757E-02  0.10888102314E-01  0.13303230246E-01  0.00000000000E+00 0.  1.
     999901    1    3    3    0    0 -0.86544419437E-01  0.91346762113E-01 -0.38332239159E-01  0.88977723507E+00  0.88000000000E+00 0. -1.
        -11    1    4    4    0    0  0.45556357314E-01 -0.72571767065E-01  0.34681246246E-01  0.92439672375E-01  0.51100000000E-03 0.  1.
         11    1    4    4    0    0  0.39957669936E-01 -0.26348861624E-01 -0.72371094008E-02  0.48409862312E-01  0.51100000000E-03 0. -1.
</event>
<event>
 8    1  0.2400839E+004  0.1043930E+01  0.7957747E-01            NaN
         13   -1    0    0    0    0  0.00000000000E+00  0.00000000000E+00  0.74505805969E-08  0.10566000000E+00  0.10566000000E+00 0. -1.
     999900   -1    0    0    0    0 -0.00000000000E+00 -0.00000000000E+00 -0.74505805969E-08  0.93827000000E+00  0.93827000000E+00 0.  1.
     999902    2    1    2    0    0 -0.13830777072E-01  0.11210256472E-01 -0.19566758804E-02  0.10260194214E+01  0.10258630826E+01 0.  0.
     999903    2    3    3    0    0  0.56721412822E-01 -0.40779286980E-01 -0.10686957355E+00  0.13546496479E+00  0.45270100685E-01 0.  0.
         14    1    1    2    0    0  0.13830777072E-01 -0.11210256472E-01  0.19566758804E-02  0.17910578580E-01  0.00000000000E+00 0. -1.
     999901    1    3    3    0    0 -0.70552189895E-01  0.51989543451E-01  0.10491289767E+00  0.89055445663E+00  0.88000000000E+00 0.  1.
        -11    1    4    4    0    0  0.25764660123E-01 -0.44414983330E-01 -0.74905476248E-01  0.90816297812E-01  0.51100000000E-03 0.  1.
         11    1    4    4    0    0  0.30956752699E-01  0.36356963500E-02 -0.31964097300E-01  0.44648666977E-01  0.51100000000E-03 0. -1.
</event>
<event>
 8    1  0.2190295E+004  0.1043930E+01  0.7957747E-01            NaN
         13   -1    0    0    0    0  0.00000000000E+00  0.00000000000E+00  0.74505805969E-08  0.10566000000E+00  0.10566000000E+00 0.  1.
     999900   -1    0    0    0    0 -0.00000000000E+00 -0.00000000000E+00 -0.74505805969E-08  0.93827000000E+00  0.93827000000E+00 0. -1.
     999902    2    1    2    0    0  0.95139497948E-02 -0.10656493362E-02 -0.95741368949E-02  0.10303906150E+01  0.10303016570E+01 0.  0.
     999903    2    3    3    0    0 -0.10256788637E+00 -0.29613380772E-01  0.77535863803E-01  0.13855797195E+00  0.42301037578E-01 0.  0.
         14    1    1    2    0    0 -0.95139497948E-02  0.10656493362E-02  0.95741368949E-02  0.13539385011E-01  0.00000000000E+00 0. -1.
     999901    1    3    3    0    0  0.11208183616E+00  0.28547731436E-01 -0.87110000698E-01  0.89183264304E+00  0.88000000000E+00 0. -1.
        -11    1    4    4    0    0 -0.59112520814E-01 -0.18325686312E-01  0.69291653641E-01  0.92907024929E-01  0.51100000000E-03 0.  1.
         11    1    4    4    0    0 -0.43455365555E-01 -0.11287694460E-01  0.82442101620E-02  0.45650947021E-01  0.51100000000E-03 0. -1.
</event>
<event>
 8    1  0.2190295E+004  0.1043930E+01  0.7957747E-01            NaN
         13   -1    0    0    0    0  0.00000000000E+00  0.00000000000E+00  0.74505805969E-08  0.10566000000E+00  0.10566000000E+00 0.  1.
     999900   -1    0    0    0    0 -0.00000000000E+00 -0.00000000000E+00 -0.74505805969E-08  0.93827000000E+00  0.93827000000E+00 0.  1.
     999902    2    1    2    0    0  0.10898575241E-01 -0.56601601874E-02 -0.69546903766E-02  0.10298167412E+01  0.10297200282E+01 0.  0.
     999903    2    3    3    0    0  0.12481398724E+00  0.36035170216E-01  0.29704810904E-01  0.14073905016E+00  0.45255270927E-01 0.  0.
         14    1    1    2    0    0 -0.10898575241E-01  0.56601601874E-02  0.69546903766E-02  0.14113258797E-01  0.00000000000E+00 0.  1.
     999901    1    3    3    0    0 -0.11391541200E+00 -0.41695330404E-01 -0.36659501281E-01  0.88907769104E+00  0.88000000000E+00 0. -1.
        -11    1    4    4    0    0  0.61626177755E-01 -0.43509208861E-02  0.59217379792E-02  0.62064840280E-01  0.51100000000E-03 0. -1.
         11    1    4    4    0    0  0.63187809486E-01  0.40386091102E-01  0.23783072925E-01  0.78674209884E-01  0.51100000000E-03 0.  1.
</event>
<event>
 8    1  0.2190295E+004  0.1043930E+01  0.7957747E-01            NaN
         13   -1    0    0    0    0  0.00000000000E+00  0.00000000000E+00  0.74505805969E-08  0.10566000000E+00  0.10566000000E+00 0. -1.
     999900   -1    0    0    0    0 -0.00000000000E+00 -0.00000000000E+00 -0.74505805969E-08  0.93827000000E+00  0.93827000000E+00 0. -1.
     999902    2    1    2    0    0  0.12060911729E-01 -0.62012129900E-02  0.34065674819E-02  0.10299469626E+01  0.10298520381E+01 0.  0.
     999903    2    3    3    0    0  0.23718756650E-01 -0.12071116500E+00 -0.51391687606E-01  0.14076122087E+00  0.45153637409E-01 0.  0.
         14    1    1    2    0    0 -0.12060911729E-01  0.62012129900E-02 -0.34065674819E-02  0.13983037448E-01  0.00000000000E+00 0. -1.
     999901    1    3    3    0    0 -0.11657844921E-01  0.11450995201E+00  0.54798255088E-01  0.88918574169E+00  0.88000000000E+00 0.  1.
        -11    1    4    4    0    0  0.20975485506E-01 -0.79948523601E-01 -0.11134453057E-01  0.83402485479E-01  0.51100000000E-03 0. -1.
         11    1    4    4    0    0  0.27432711443E-02 -0.40762641401E-01 -0.40257234549E-01  0.57358735386E-01  0.51100000000E-03 0.  1.
</event>
<event>
 8    1  0.2190295E+004  0.1043930E+01  0.7957747E-01            NaN
         13   -1    0    0    0    0  0.00000000000E+00  0.00000000000E+00  0.74505805969E-08  0.10566000000E+00  0.10566000000E+00 0. -1.
     999900   -1    0    0    0    0 -0.00000000000E+00 -0.00000000000E+00 -0.74505805969E-08  0.93827000000E+00  0.93827000000E+00 0.  1.
     999902    2    1    2    0    0  0.13412400616E-01  0.28488379261E-02  0.45250636784E-02  0.10294910053E+01  0.10293897441E+01 0.  0.
     999903    2    3    3    0    0 -0.14373104168E-01  0.96174102927E-01 -0.88763406992E-01  0.13921892431E+00  0.45242925052E-01 0.  0.
         14    1    1    2    0    0 -0.13412400616E-01 -0.28488379261E-02 -0.45250636784E-02  0.14438994740E-01  0.00000000000E+00 0. -1.
     999901    1    3    3    0    0  0.27785504783E-01 -0.93325265001E-01  0.93288470670E-01  0.89027208095E+00  0.88000000000E+00 0. -1.
        -11    1    4    4    0    0 -0.10752664797E-01  0.79025325370E-01 -0.43873805352E-01  0.91026335569E-01  0.51100000000E-03 0.  1.
         11    1    4    4    0    0 -0.36204393704E-02  0.17148777557E-01 -0.44889601640E-01  0.48192588738E-01  0.51100000000E-03 0. -1.
</event>
<event>
 8    1  0.2190295E+004  0.1043930E+01  0.7957747E-01            NaN
         13   -1    0    0    0    0  0.00000000000E+00  0.00000000000E+00  0.74505805969E-08  0.10566000000E+00  0.10566000000E+00 0.  1.
     999900   -1    0    0    0    0 -0.00000000000E+00 -0.00000000000E+00 -0.74505805969E-08  0.93827000000E+00  0.93827000000E+00 0. -1.
     999902    2    1    2    0    0  0.10193780887E-01 -0.37346038828E-03 -0.14717032210E-02  0.10336237615E+01  0.10335723786E+01 0.  0.
     999903    2    3    3    0    0  0.82099440366E-01  0.10274873700E+00 -0.37717689035E-01  0.14395057267E+00  0.44738375491E-01 0.  0.
         14    1    1    2    0    0 -0.10193780887E-01  0.37346038828E-03  0.14717032210E-02  0.10306238490E-01  0.00000000000E+00 0.  1.
     999901    1    3    3    0    0 -0.71905659479E-01 -0.10312219739E+00  0.36245985813E-01  0.88967318884E+00  0.88000000000E+00 0.  1.
        -11    1    4    4    0    0  0.25635972269E-01  0.22948517500E-01 -0.30407058266E-01  0.45920451251E-01  0.51100000000E-03 0. -1.
         11    1    4    4    0    0  0.56463468097E-01  0.79800219500E-01 -0.73106307682E-02  0.98030121417E-01  0.51100000000E-03 0.  1.
</event>
<event>
 8    1  0.2190295E+004  0.1043930E+01  0.7957747E-01            NaN
         13   -1    0    0    0    0  0.00000000000E+00  0.00000000000E+00  0.74505805969E-08  0.10566000000E+00  0.10566000000E+00 0.  1.
     999900   -1    0    0    0    0 -0.00000000000E+00 -0.00000000000E+00 -0.74505805969E-08  0.93827000000E+00  0.93827000000E+00 0.  1.
     999902    2    1    2    0    0 -0.33235492275E-02  0.11278090732E-01 -0.79966048445E-02  0.10297107525E+01  0.10296125712E+01 0.  0.
     999903    2    3    3    0    0  0.92269640793E-01 -0.61484026393E-01 -0.71293688985E-01  0.13929573438E+00  0.45017101334E-01 0.  0.
         14    1    1    2    0    0  0.33235492275E-02 -0.11278090732E-01  0.79966048445E-02  0.14219247486E-01  0.00000000000E+00 0. -1.
     999901    1    3    3    0    0 -0.95593190021E-01  0.72762117124E-01  0.63297084141E-01  0.89041501814E+00  0.88000000000E+00 0. -1.
        -11    1    4    4    0    0  0.45157169722E-01 -0.56273347200E-01 -0.45965251511E-01  0.85550716244E-01  0.51100000000E-03 0. -1.
         11    1    4    4    0    0  0.47112471071E-01 -0.52106791930E-02 -0.25328437474E-01  0.53745018132E-01  0.51100000000E-03 0.  1.
</event>
<event>
 8    1  0.2190295E+004  0.1043930E+01  0.7957747E-01            NaN
         13   -1    0    0    0    0  0.00000000000E+00  0.00000000000E+00  0.74505805969E-08  0.10566000000E+00  0.10566000000E+00 0.  1.
     999900   -1    0    0    0    0 -0.00000000000E+00 -0.00000000000E+00 -0.74505805969E-08  0.93827000000E+00  0.93827000000E+00 0.  1.
     999902    2    1    2    0    0 -0.10860020471E-01 -0.10073724310E-01  0.36931755210E-02  0.10286637132E+01  0.10285504243E+01 0.  0.
     999903    2    3    3    0    0 -0.13287525469E+00 -0.80568699502E-03  0.24706357684E-02  0.14019586998E+00  0.44635137255E-01 0.  0.
         14    1    1    2    0    0  0.10860020471E-01  0.10073724310E-01 -0.36931755210E-02  0.15266286763E-01  0.00000000000E+00 0.  1.
     999901    1    3    3    0    0  0.12201523422E+00 -0.92680373149E-02  0.12225397526E-02  0.88846784326E+00  0.88000000000E+00 0.  1.
        -11    1    4    4    0    0 -0.72337532034E-01 -0.14092323954E-01 -0.16210722974E-01  0.75460988567E-01  0.51100000000E-03 0.  1.
         11    1    4    4    0    0 -0.60537722657E-01  0.13286636959E-01  0.18681358742E-01  0.64734881413E-01  0.51100000000E-03 0. -1.
</event>
<event>
 8    1  0.2190295E+004  0.1043930E+01  0.7957747E-01            NaN
         13   -1    0    0    0    0  0.00000000000E+00  0.00000000000E+00  0.74505805969E-08  0.10566000000E+00  0.10566000000E+00 0. -1.
     999900   -1    0    0    0    0 -0.00000000000E+00 -0.00000000000E+00 -0.74505805969E-08  0.93827000000E+00  0.93827000000E+00 0.  1.
     999902    2    1    2    0    0  0.10048043901E-01  0.81647121352E-02 -0.48562152923E-02  0.10301021825E+01  0.10300093678E+01 0.  0.
     999903    2    3    3    0    0  0.12883090523E-01 -0.34773350120E-01  0.12673230018E+00  0.13927826492E+00  0.44296718508E-01 0.  0.
         14    1    1    2    0    0 -0.10048043901E-01 -0.81647121352E-02  0.48562152923E-02  0.13827817523E-01  0.00000000000E+00 0. -1.
     999901    1    3    3    0    0 -0.28350466227E-02  0.42938062255E-01 -0.13158851548E+00  0.89082391755E+00  0.88000000000E+00 0.  1.
        -11    1    4    4    0    0 -0.72042902787E-03 -0.16767336109E-01  0.10975932982E+00  0.11103618411E+00  0.51100000000E-03 0.  1.
         11    1    4    4    0    0  0.13603519551E-01 -0.18006014011E-01  0.16972970363E-01  0.28242080814E-01  0.51100000000E-03 0. -1.
</event>
<event>
 8    1  0.2190295E+004  0.1043930E+01  0.7957747E-01            NaN
         13   -1    0    0    0    0  0.00000000000E+00  0.00000000000E+00  0.74505805969E-08  0.10566000000E+00  0.10566000000E+00 0.  1.
     999900   -1    0    0    0    0 -0.00000000000E+00 -0.00000000000E+00 -0.74505805969E-08  0.93827000000E+00  0.93827000000E+00 0.  1.
     999902    2    1    2    0    0 -0.74731900542E-02 -0.11744536400E-01 -0.12822094985E-01  0.10250041229E+01  0.10248293824E+01 0.  0.
     999903    2    3    3    0    0  0.12226199198E+00 -0.23758428331E-01  0.14200688504E-01  0.13500087464E+00  0.50111066628E-01 0.  0.
         14    1    1    2    0    0  0.74731900542E-02  0.11744536400E-01  0.12822094985E-01  0.18925877117E-01  0.00000000000E+00 0. -1.
     999901    1    3    3    0    0 -0.12973518204E+00  0.12013891931E-01 -0.27022783489E-01  0.89000324824E+00  0.88000000000E+00 0. -1.
        -11    1    4    4    0    0  0.14288229558E-01 -0.19810219693E-01  0.11293270919E-01  0.26914631657E-01  0.51100000000E-03 0.  1.
         11    1    4    4    0    0  0.10797376243E+00 -0.39482086378E-02  0.29074175848E-02  0.10808624298E+00  0.51100000000E-03 0. -1.
</event>
<event>
 8    1  0.2190295E+004  0.1043930E+01  0.7957747E-01            NaN
         13   -1    0    0    0    0  0.00000000000E+00  0.00000000000E+00  0.74505805969E-08  0.10566000000E+00  0.10566000000E+00 0. -1.
     999900   -1    0    0    0    0 -0.00000000000E+00 -0.00000000000E+00 -0.74505805969E-08  0.93827000000E+00  0.93827000000E+00 0. -1.
     999902    2    1    2    0    0 -0.52893916512E-02 -0.75773874002E-02  0.10710549523E-01  0.10297839640E+01  0.10296867981E+01 0.  0.
     999903    2    3    3    0    0 -0.50414030925E-01  0.73689596980E-01  0.98793275877E-01  0.14051509435E+00  0.44862558603E-01 0.  0.
         14    1    1    2    0    0  0.52893916512E-02  0.75773874002E-02 -0.10710549523E-01  0.14146036015E-01  0.00000000000E+00 0.  1.
     999901    1    3    3    0    0  0.45124639274E-01 -0.81266984380E-01 -0.88082726353E-01  0.88926886963E+00  0.88000000000E+00 0. -1.
        -11    1    4    4    0    0 -0.13550821950E-01  0.26561668906E-01  0.65668460185E-01  0.72123191933E-01  0.51100000000E-03 0.  1.
         11    1    4    4    0    0 -0.36863208975E-01  0.47127928075E-01  0.33124815692E-01  0.68391902416E-01  0.51100000000E-03 0. -1.
</event>
<event>
 8    1  0.2190295E+004  0.1043930E+01  0.7957747E-01            NaN
         13   -1    0    0    0    0  0.00000000000E+00  0.00000000000E+00  0.74505805969E-08  0.10566000000E+00  0.10566000000E+00 0. -1.
     999900   -1    0    0    0    0 -0.00000000000E+00 -0.00000000000E+00 -0.74505805969E-08  0.93827000000E+00  0.93827000000E+00 0. -1.
     999902    2    1    2    0    0  0.96333074700E-02 -0.60118077996E-02  0.33716274897E-02  0.10320847344E+01  0.10320167579E+01 0.  0.
     999903    2    3    3    0    0  0.10968210872E+00 -0.80495440451E-01  0.22254849469E-02  0.14328842036E+00  0.44910329762E-01 0.  0.
         14    1    1    2    0    0 -0.96333074700E-02  0.60118077996E-02 -0.33716274897E-02  0.11845265626E-01  0.00000000000E+00 0.  1.
     999901    1    3    3    0    0 -0.10004880125E+00  0.74483632651E-01  0.11461425428E-02  0.88879631402E+00  0.88000000000E+00 0.  1.
        -11    1    4    4    0    0  0.10280029955E+00 -0.59191296511E-01 -0.75270042330E-02  0.11886306442E+00  0.51100000000E-03 0. -1.
         11    1    4    4    0    0  0.68818091696E-02 -0.21304143939E-01  0.97524891799E-02  0.24425355937E-01  0.51100000000E-03 0.  1.
</event>
<event>
 8    1  0.2190295E+004  0.1043930E+01  0.7957747E-01            NaN
         13   -1    0    0    0    0  0.00000000000E+00  0.00000000000E+00  0.74505805969E-08  0.10566000000E+00  0.10566000000E+00 0.  1.
     999900   -1    0    0    0    0 -0.00000000000E+00 -0.00000000000E+00 -0.74505805969E-08  0.93827000000E+00  0.93827000000E+00 0. -1.
     999902    2    1    2    0    0  0.54979307337E-02  0.12007186678E-01 -0.15832804060E-02  0.10306293778E+01  0.10305435497E+01 0.  0.
     999903    2    3    3    0    0  0.69996812392E-01  0.66329760221E-01 -0.93435643925E-01  0.14183924260E+00  0.45705145768E-01 0.  0.
         14    1    1    2    0    0 -0.54979307337E-02 -0.12007186678E-01  0.15832804060E-02  0.13300622208E-01  0.00000000000E+00 0. -1.
     999901    1    3    3    0    0 -0.64498881658E-01 -0.54322573543E-01  0.91852363519E-01  0.88879013519E+00  0.88000000000E+00 0. -1.
        -11    1    4    4    0    0  0.35137997434E-01  0.45795418666E-01 -0.81088881700E-01  0.99536762509E-01  0.51100000000E-03 0.  1.
         11    1    4    4    0    0  0.34858814958E-01  0.20534341555E-01 -0.12346762224E-01  0.42302480090E-01  0.51100000000E-03 0. -1.
</event>
<event>
 8    1  0.2190295E+004  0.1043930E+01  0.7957747E-01            NaN
         13   -1    0    0    0    0  0.00000000000E+00  0.00000000000E+00  0.74505805969E-08  0.10566000000E+00  0.10566000000E+00 0.  1.
     999900   -1    0    0    0    0 -0.00000000000E+00 -0.00000000000E+00 -0.74505805969E-08  0.93827000000E+00  0.93827000000E+00 0.  1.
     999902    2    1    2    0    0 -0.77249917895E-03 -0.64165839013E-02 -0.13215504582E-01  0.10292188184E+01  0.10291136755E+01 0.  0.
     999903    2    3    3    0    0 -0.25708144858E-01  0.10251279220E+00 -0.79244421268E-01  0.13969804106E+00  0.45454186788E-01 0.  0.
         14    1    1    2    0    0  0.77249917895E-03  0.64165839013E-02  0.13215504582E-01  0.14711181642E-01  0.00000000000E+00 0.  1.
     999901    1    3    3    0    0  0.24935645679E-01 -0.10892937611E+00  0.66028916687E-01  0.88952077730E+00  0.88000000000E+00 0. -1.
        -11    1    4    4    0    0  0.64074239356E-02  0.66412317696E-01 -0.46506222064E-01  0.81331057013E-01  0.51100000000E-03 0. -1.
         11    1    4    4    0    0 -0.32115568794E-01  0.36100474509E-01 -0.32738199204E-01  0.58366984048E-01  0.51100000000E-03 0.  1.
</event>
<event>
 8    1  0.2190295E+004  0.1043930E+01  0.7957747E-01            NaN
         13   -1    0    0    0    0  0.00000000000E+00  0.00000000000E+00  0.74505805969E-08  0.10566000000E+00  0.10566000000E+00 0. -1.
     999900   -1    0    0    0    0 -0.00000000000E+00 -0.00000000000E+00 -0.74505805969E-08  0.93827000000E+00  0.93827000000E+00 0.  1.
     999902    2    1    2    0    0  0.18136466910E-02 -0.12621195691E-01 -0.50287946566E-02  0.10302233348E+01  0.10301321502E+01 0.  0.
     999903    2    3    3    0    0  0.79634572205E-01 -0.10538126088E+00  0.15739579697E-01  0.14168979491E+00  0.48799471084E-01 0.  0.
         14    1    1    2    0    0 -0.18136466910E-02  0.12621195691E-01  0.50287946566E-02  0.13706665192E-01  0.00000000000E+00 0.  1.
     999901    1    3    3    0    0 -0.77820925514E-01  0.92760065193E-01 -0.20768374354E-01  0.88853353989E+00  0.88000000000E+00 0. -1.
        -11    1    4    4    0    0  0.65006399024E-01 -0.99653676570E-01 -0.64548594275E-03  0.11898472566E+00  0.51100000000E-03 0. -1.
         11    1    4    4    0    0  0.14628173181E-01 -0.57275843140E-02  0.16385065640E-01  0.22705069252E-01  0.51100000000E-03 0.  1.
</event>
<event>
 8    1  0.2190295E+004  0.1043930E+01  0.7957747E-01            NaN
         13   -1    0    0    0    0  0.00000000000E+00  0.00000000000E+00  0.74505805969E-08  0.10566000000E+00  0.10566000000E+00 0.  1.
     999900   -1    0    0    0    0 -0.00000000000E+00 -0.00000000000E+00 -0.74505805969E-08  0.93827000000E+00  0.93827000000E+00 0.  1.
     999902    2    1    2    0    0  0.36947477828E-02  0.12065075855E-01  0.17132473112E-02  0.10311960912E+01  0.10311174647E+01 0.  0.
     999903    2    3    3    0    0 -0.81291513668E-01  0.10300073836E+00 -0.30384114276E-01  0.14185802278E+00  0.44531358945E-01 0.  0.
         14    1    1    2    0    0 -0.36947477828E-02 -0.12065075855E-01 -0.17132473112E-02  0.12733908784E-01  0.00000000000E+00 0. -1.
     999901    1    3    3    0    0  0.84986261451E-01 -0.90935662504E-01  0.32097361587E-01  0.88933806844E+00  0.88000000000E+00 0.  1.
        -11    1    4    4    0    0 -0.81719014974E-01  0.78552676251E-01 -0.30561975123E-01  0.11740023764E+00  0.51100000000E-03 0. -1.
         11    1    4    4    0    0  0.42750130621E-03  0.24448062108E-01  0.17786084717E-03  0.24457785135E-01  0.51100000000E-03 0.  1.
</event>
<event>
 8    1  0.2190295E+004  0.1043930E+01  0.7957747E-01            NaN
         13   -1    0    0    0    0  0.00000000000E+00  0.00000000000E+00  0.74505805969E-08  0.10566000000E+00  0.10566000000E+00 0. -1.
     999900   -1    0    0    0    0 -0.00000000000E+00 -0.00000000000E+00 -0.74505805969E-08  0.93827000000E+00  0.93827000000E+00 0. -1.
     999902    2    1    2    0    0  0.51228866845E-02  0.11319552282E-01  0.71343686216E-02  0.10296025631E+01  0.10295028716E+01 0.  0.
     999903    2    3    3    0    0  0.10974990421E-01  0.12544402778E+00  0.45325893825E-01  0.14139243279E+00  0.45615007166E-01 0.  0.
         14    1    1    2    0    0 -0.51228866845E-02 -0.11319552282E-01 -0.71343686216E-02  0.14327436878E-01  0.00000000000E+00 0.  1.
     999901    1    3    3    0    0 -0.58521037364E-02 -0.11412447550E+00 -0.38191525203E-01  0.88821013033E+00  0.88000000000E+00 0. -1.
        -11    1    4    4    0    0  0.37977592028E-02  0.12238844020E+00  0.33035352001E-01  0.12682645178E+00  0.51100000000E-03 0. -1.
         11    1    4    4    0    0  0.71772312181E-02  0.30555875850E-02  0.12290541824E-01  0.14565981009E-01  0.51100000000E-03 0.  1.
</event>
<event>
 8    1  0.2190295E+004  0.1043930E+01  0.7957747E-01            NaN
         13   -1    0    0    0    0  0.00000000000E+00  0.00000000000E+00  0.74505805969E-08  0.10566000000E+00  0.10566000000E+00 0. -1.
     999900   -1    0    0    0    0 -0.00000000000E+00 -0.00000000000E+00 -0.74505805969E-08  0.93827000000E+00  0.93827000000E+00 0.  1.
     999902    2    1    2    0    0 -0.33067618114E-02 -0.18046398189E-02 -0.63887198444E-02  0.10365133202E+01  0.10364867851E+01 0.  0.
     999903    2    3    3    0    0 -0.53789850260E-01 -0.66114659286E-01 -0.10919675271E+00  0.14676402264E+00  0.48489703802E-01 0.  0.
         14    1    1    2    0    0  0.33067618114E-02  0.18046398189E-02  0.63887198444E-02  0.74166798369E-02  0.00000000000E+00 0. -1.
     999901    1    3    3    0    0  0.50483088449E-01  0.64310019467E-01  0.10280803287E+00  0.88974929752E+00  0.88000000000E+00 0. -1.
        -11    1    4    4    0    0 -0.52892795259E-01 -0.45213138174E-01 -0.55094658101E-01  0.88755608984E-01  0.51100000000E-03 0. -1.
         11    1    4    4    0    0 -0.89705500107E-03 -0.20901521112E-01 -0.54102094611E-01  0.58008413655E-01  0.51100000000E-03 0.  1.
</event>
<event>
 8    1  0.2190295E+004  0.1043930E+01  0.7957747E-01            NaN
         13   -1    0    0    0    0  0.00000000000E+00  0.00000000000E+00  0.74505805969E-08  0.10566000000E+00  0.10566000000E+00 0.  1.
     999900   -1    0    0    0    0 -0.00000000000E+00 -0.00000000000E+00 -0.74505805969E-08  0.93827000000E+00  0.93827000000E+00 0. -1.
     999902    2    1    2    0    0 -0.82997405824E-02  0.11046629726E-01  0.25898255572E-02  0.10298722293E+01  0.10297762804E+01 0.  0.
     999903    2    3    3    0    0 -0.93558278641E-01 -0.85314901410E-01  0.39409881327E-01  0.13975410254E+00  0.44116737471E-01 0.  0.
         14    1    1    2    0    0  0.82997405824E-02 -0.11046629726E-01 -0.25898255572E-02  0.14057770750E-01  0.00000000000E+00 0.  1.
     999901    1    3    3    0    0  0.85258538059E-01  0.96361531136E-01 -0.36820055770E-01  0.89011812671E+00  0.88000000000E+00 0.  1.
        -11    1    4    4    0    0 -0.52103045516E-01 -0.66727654067E-01  0.91260018685E-02  0.85151935975E-01  0.51100000000E-03 0.  1.
         11    1    4    4    0    0 -0.41455233125E-01 -0.18587247344E-01  0.30283879459E-01  0.54602166563E-01  0.51100000000E-03 0. -1.
</event>
<event>
 8    1  0.2190295E+004  0.1043930E+01  0.7957747E-01            NaN
         13   -1    0    0    0    0  0.00000000000E+00  0.00000000000E+00  0.74505805969E-08  0.10566000000E+00  0.10566000000E+00 0. -1.
     999900   -1    0    0    0    0 -0.00000000000E+00 -0.00000000000E+00 -0.74505805969E-08  0.93827000000E+00  0.93827000000E+00 0.  1.
     999902    2    1    2    0    0  0.71403683964E-02  0.11833262825E-01  0.45117186734E-02  0.10293915484E+01  0.10292888775E+01 0.  0.
     999903    2    3    3    0    0  0.31609493099E-01  0.11725269900E+00 -0.54070096877E-01  0.14082876237E+00  0.46495262719E-01 0.  0.
         14    1    1    2    0    0 -0.71403683964E-02 -0.11833262825E-01 -0.45117186734E-02  0.14538451614E-01  0.00000000000E+00 0. -1.
     999901    1    3    3    0    0 -0.24469124702E-01 -0.10541943618E+00  0.58581815551E-01  0.88856278602E+00  0.88000000000E+00 0. -1.
        -11    1    4    4    0    0  0.12686225171E-01  0.90640745791E-01 -0.20100655769E-01  0.93706897238E-01  0.51100000000E-03 0. -1.
         11    1    4    4    0    0  0.18923267928E-01  0.26611953214E-01 -0.33969441108E-01  0.47121865128E-01  0.51100000000E-03 0.  1.
</event>
<event>
 8    1  0.2190295E+004  0.1043930E+01  0.7957747E-01            NaN
         13   -1    0    0    0    0  0.00000000000E+00  0.00000000000E+00  0.74505805969E-08  0.10566000000E+00  0.10566000000E+00 0. -1.
     999900   -1    0    0    0    0 -0.00000000000E+00 -0.00000000000E+00 -0.74505805969E-08  0.93827000000E+00  0.93827000000E+00 0.  1.
     999902    2    1    2    0    0  0.13142487585E-01 -0.77759979284E-02 -0.18678409266E-02  0.10285455938E+01  0.10284305317E+01 0.  0.
     999903    2    3    3    0    0  0.13106467535E+00 -0.23861053418E-01  0.33631093736E-02  0.14051871685E+00  0.44574659708E-01 0.  0.
         14    1    1    2    0    0 -0.13142487585E-01  0.77759979284E-02  0.18678409266E-02  0.15384406178E-01  0.00000000000E+00 0.  1.
     999901    1    3    3    0    0 -0.11792218776E+00  0.16085055490E-01 -0.52309503001E-02  0.88802687697E+00  0.88000000000E+00 0. -1.
        -11    1    4    4    0    0  0.12974383680E+00 -0.14375395636E-01  0.60863376945E-03  0.13054021121E+00  0.51100000000E-03 0. -1.
         11    1    4    4    0    0  0.13208385469E-02 -0.94856577818E-02  0.27544756041E-02  0.99785056433E-02  0.51100000000E-03 0.  1.
</event>
<event>
 8    1  0.2190295E+004  0.1043930E+01  0.7957747E-01            NaN
         13   -1    0    0    0    0  0.00000000000E+00  0.00000000000E+00  0.74505805969E-08  0.10566000000E+00  0.10566000000E+00 0. -1.
     999900   -1    0    0    0    0 -0.00000000000E+00 -0.00000000000E+00 -0.74505805969E-08  0.93827000000E+00  0.93827000000E+00 0. -1.
     999902    2    1    2    0    0 -0.13183811499E-02  0.17376189397E-02  0.10119186863E-01  0.10335784112E+01  0.10335265728E+01 0.  0.
     999903    2    3    3    0    0  0.12209878046E+00 -0.57700441686E-01  0.14115475911E-01  0.14297151183E+00  0.44767771611E-01 0.  0.
         14    1    1    2    0    0  0.13183811499E-02 -0.17376189397E-02 -0.10119186863E-01  0.10351588825E-01  0.00000000000E+00 0.  1.
     999901    1    3    3    0    0 -0.12341716161E+00  0.59438060625E-01 -0.39962890488E-02  0.89060689934E+00  0.88000000000E+00 0.  1.
        -11    1    4    4    0    0  0.49084567772E-01 -0.13130711515E-02 -0.27772460868E-02  0.49183261035E-01  0.51100000000E-03 0.  1.
         11    1    4    4    0    0  0.73014212688E-01 -0.56387370534E-01  0.16892721998E-01  0.93788250798E-01  0.51100000000E-03 0. -1.
</event>
<event>
 8    1  0.2190295E+004  0.1043930E+01  0.7957747E-01            NaN
         13   -1    0    0    0    0  0.00000000000E+00  0.00000000000E+00  0.74505805969E-08  0.10566000000E+00  0.10566000000E+00 0. -1.
     999900   -1    0    0    0    0 -0.00000000000E+00 -0.00000000000E+00 -0.74505805969E-08  0.93827000000E+00  0.93827000000E+00 0.  1.
     999902    2    1    2    0    0  0.13485758869E-02 -0.63549932151E-02  0.92576191476E-02  0.10326203533E+01  0.10325584177E+01 0.  0.
     999903    2    3    3    0    0 -0.13184880175E-01  0.10119200629E+00 -0.86164075217E-01  0.14083401221E+00  0.44680061936E-01 0.  0.
         14    1    1    2    0    0 -0.13485758869E-02  0.63549932151E-02 -0.92576191476E-02  0.11309646677E-01  0.00000000000E+00 0.  1.
     999901    1    3    3    0    0  0.14533456062E-01 -0.10754699950E+00  0.95421694365E-01  0.89178634112E+00  0.88000000000E+00 0.  1.
        -11    1    4    4    0    0 -0.95810042839E-02  0.40613019198E-01 -0.90460758648E-02  0.42700182447E-01  0.51100000000E-03 0.  1.
         11    1    4    4    0    0 -0.36038758912E-02  0.60578987088E-01 -0.77117999353E-01  0.98133829759E-01  0.51100000000E-03 0. -1.
</event>
<event>
 8    1  0.2190295E+004  0.1043930E+01  0.7957747E-01            NaN
         13   -1    0    0    0    0  0.00000000000E+00  0.00000000000E+00  0.74505805969E-08  0.10566000000E+00  0.10566000000E+00 0. -1.
     999900   -1    0    0    0    0 -0.00000000000E+00 -0.00000000000E+00 -0.74505805969E-08  0.93827000000E+00  0.93827000000E+00 0.  1.
     999902    2    1    2    0    0  0.11762344677E-01  0.11276060827E-01  0.43808261143E-02  0.10270571242E+01  0.10269185179E+01 0.  0.
     999903    2    3    3    0    0 -0.12694352496E+00 -0.15884125348E-01  0.13382698654E-01  0.13573337399E+00  0.43329992208E-01 0.  0.
         14    1    1    2    0    0 -0.11762344677E-01 -0.11276060827E-01 -0.43808261143E-02  0.16872875793E-01  0.00000000000E+00 0.  1.
     999901    1    3    3    0    0  0.13870586964E+00  0.27160186174E-01 -0.90018725394E-02  0.89132375021E+00  0.88000000000E+00 0. -1.
        -11    1    4    4    0    0 -0.38534258477E-01 -0.11706057282E-01 -0.14700918971E-01  0.42875389130E-01  0.51100000000E-03 0.  1.
         11    1    4    4    0    0 -0.88409266485E-01 -0.41780680658E-02  0.28083617624E-01  0.92857984865E-01  0.51100000000E-03 0. -1.
</event>
<event>
 8    1  0.2190295E+004  0.1043930E+01  0.7957747E-01            NaN
         13   -1    0    0    0    0  0.00000000000E+00  0.00000000000E+00  0.74505805969E-08  0.10566000000E+00  0.10566000000E+00 0.  1.
     999900   -1    0    0    0    0 -0.00000000000E+00 -0.00000000000E+00 -0.74505805969E-08  0.93827000000E+00  0.93827000000E+00 0. -1.
     999902    2    1    2    0    0 -0.85551207651E-02  0.11468710269E-01  0.52565272608E-02  0.10286868873E+01  0.10285739446E+01 0.  0.
     999903    2    3    3    0    0  0.10712443872E+00 -0.50957406362E-01 -0.51830073721E-01  0.13709412120E+00  0.45123595725E-01 0.  0.
         14    1    1    2    0    0  0.85551207651E-02 -0.11468710269E-01 -0.52565272608E-02  0.15243112720E-01  0.00000000000E+00 0. -1.
     999901    1    3    3    0    0 -0.11567955948E+00  0.62426116631E-01  0.57086600981E-01  0.89159276608E+00  0.88000000000E+00 0.  1.
        -11    1    4    4    0    0  0.34524811373E-01 -0.26575498834E-01  0.17816406725E-02  0.43607970637E-01  0.51100000000E-03 0.  1.
         11    1    4    4    0    0  0.72599627345E-01 -0.24381907528E-01 -0.53611714393E-01  0.93486150560E-01  0.51100000000E-03 0. -1.
</event>
<event>
 8    1  0.2190295E+004  0.1043930E+01  0.7957747E-01            NaN
         13   -1    0    0    0    0  0.00000000000E+00  0.00000000000E+00  0.74505805969E-08  0.10566000000E+00  0.10566000000E+00 0. -1.
     999900   -1    0    0    0    0 -0.00000000000E+00 -0.00000000000E+00 -0.74505805969E-08  0.93827000000E+00  0.93827000000E+00 0.  1.
     999902    2    1    2    0    0 -0.35697363698E-02 -0.13381678163E-01  0.23680842425E-02  0.10298793719E+01  0.10297835211E+01 0.  0.
     999903    2    3    3    0    0 -0.48418388903E-01 -0.12656709960E+00 -0.72033847753E-02  0.14144594482E+00  0.39893551699E-01 0.  0.
         14    1    1    2    0    0  0.35697363698E-02  0.13381678163E-01 -0.23680842425E-02  0.14050628142E-01  0.00000000000E+00 0.  1.
     999901    1    3    3    0    0  0.44848652533E-01  0.11318542144E+00  0.95714690178E-02  0.88843342704E+00  0.88000000000E+00 0. -1.
        -11    1    4    4    0    0 -0.17368662345E-02 -0.55172073835E-01 -0.99831836699E-02  0.56097232666E-01  0.51100000000E-03 0.  1.
         11    1    4    4    0    0 -0.46681522668E-01 -0.71395025770E-01  0.27797988946E-02  0.85348712153E-01  0.51100000000E-03 0. -1.
</event>
<event>
 8    1  0.2190295E+004  0.1043930E+01  0.7957747E-01            NaN
         13   -1    0    0    0    0  0.00000000000E+00  0.00000000000E+00  0.74505805969E-08  0.10566000000E+00  0.10566000000E+00 0.  1.
     999900   -1    0    0    0    0 -0.00000000000E+00 -0.00000000000E+00 -0.74505805969E-08  0.93827000000E+00  0.93827000000E+00 0.  1.
     999902    2    1    2    0    0  0.11020576351E-01  0.67533348766E-02  0.29097848246E-02  0.10306813215E+01  0.10305961668E+01 0.  0.
     999903    2    3    3    0    0  0.11709337838E+00  0.72242238419E-02 -0.66058067775E-01  0.14163226447E+00  0.43965683759E-01 0.  0.
         14    1    1    2    0    0 -0.11020576351E-01 -0.67533348766E-02 -0.29097848246E-02  0.13248678530E-01  0.00000000000E+00 0. -1.
     999901    1    3    3    0    0 -0.10607280203E+00 -0.47088896530E-03  0.68967852599E-01  0.88904905700E+00  0.88000000000E+00 0. -1.
        -11    1    4    4    0    0  0.50151858163E-01 -0.17249276635E-01 -0.19559868430E-01  0.56529602825E-01  0.51100000000E-03 0. -1.
         11    1    4    4    0    0  0.66941520220E-01  0.24473500477E-01 -0.46498199345E-01  0.85102661641E-01  0.51100000000E-03 0.  1.
</event>
<event>
 8    1  0.2190295E+004  0.1043930E+01  0.7957747E-01            NaN
         13   -1    0    0    0    0  0.00000000000E+00  0.00000000000E+00  0.74505805969E-08  0.10566000000E+00  0.10566000000E+00 0.  1.
     999900   -1    0    0    0    0 -0.00000000000E+00 -0.00000000000E+00 -0.74505805969E-08  0.93827000000E+00  0.93827000000E+00 0. -1.
     999902    2    1    2    0    0  0.55039664270E-02 -0.13112907998E-01 -0.24889849032E-02  0.10294926509E+01  0.10293914130E+01 0.  0.
     999903    2    3    3    0    0 -0.72911974259E-01  0.17052543068E-01 -0.10782829306E+00  0.13923685395E+00  0.46400598044E-01 0.  0.
         14    1    1    2    0    0 -0.55039664270E-02  0.13112907998E-01  0.24889849032E-02  0.14437349079E-01  0.00000000000E+00 0. -1.
     999901    1    3    3    0    0  0.78415940686E-01 -0.30165451066E-01  0.10533930816E+00  0.89025579697E+00  0.88000000000E+00 0.  1.
        -11    1    4    4    0    0 -0.62070838005E-01  0.22230208671E-01 -0.57475425734E-01  0.87468032975E-01  0.51100000000E-03 0.  1.
         11    1    4    4    0    0 -0.10841136253E-01 -0.51776656027E-02 -0.50352867327E-01  0.51768820978E-01  0.51100000000E-03 0. -1.
</event>
<event>
 8    1  0.2190295E+004  0.1043930E+01  0.7957747E-01            NaN
         13   -1    0    0    0    0  0.00000000000E+00  0.00000000000E+00  0.74505805969E-08  0.10566000000E+00  0.10566000000E+00 0.  1.
     999900   -1    0    0    0    0 -0.00000000000E+00 -0.00000000000E+00 -0.74505805969E-08  0.93827000000E+00  0.93827000000E+00 0. -1.
     999902    2    1    2    0    0 -0.11296718983E-01  0.74342718434E-02 -0.35561374525E-03  0.10304018546E+01  0.10303130452E+01 0.  0.
     999903    2    3    3    0    0 -0.12726736963E+00 -0.42139713084E-01 -0.57438617349E-02  0.14139352783E+00  0.44569036036E-01 0.  0.
         14    1    1    2    0    0  0.11296718983E-01 -0.74342718434E-02  0.35561374525E-03  0.13528145429E-01  0.00000000000E+00 0.  1.
     999901    1    3    3    0    0  0.11597065065E+00  0.49573984928E-01  0.53882479897E-02  0.88900832674E+00  0.88000000000E+00 0. -1.
        -11    1    4    4    0    0 -0.71635018734E-01 -0.35296925903E-01 -0.22354392981E-01  0.82930265246E-01  0.51100000000E-03 0. -1.
         11    1    4    4    0    0 -0.55632350899E-01 -0.68427871810E-02  0.16610531246E-01  0.58463262586E-01  0.51100000000E-03 0.  1.
</event>
<event>
 8    1  0.2190295E+004  0.1043930E+01  0.7957747E-01            NaN
         13   -1    0    0    0    0  0.00000000000E+00  0.00000000000E+00  0.74505805969E-08  0.10566000000E+00  0.10566000000E+00 0. -1.
     999900   -1    0    0    0    0 -0.00000000000E+00 -0.00000000000E+00 -0.74505805969E-08  0.93827000000E+00  0.93827000000E+00 0. -1.
     999902    2    1    2    0    0  0.12579039856E-01 -0.66035643610E-04  0.67502544096E-02  0.10296540573E+01  0.10295550861E+01 0.  0.
     999903    2    3    3    0    0 -0.30922214009E-01 -0.10262883193E+00  0.79607682281E-01  0.13964299501E+00  0.40913598138E-01 0.  0.
         14    1    1    2    0    0 -0.12579039856E-01  0.66035643610E-04 -0.67502544096E-02  0.14275942666E-01  0.00000000000E+00 0.  1.
     999901    1    3    3    0    0  0.43501253865E-01  0.10256279629E+00 -0.72857427872E-01  0.89001106233E+00  0.88000000000E+00 0. -1.
        -11    1    4    4    0    0 -0.18017729854E-01 -0.79227226831E-01  0.78366356721E-01  0.11288551301E+00  0.51100000000E-03 0. -1.
         11    1    4    4    0    0 -0.12904484155E-01 -0.23401605102E-01  0.12413255605E-02  0.26757481997E-01  0.51100000000E-03 0.  1.
</event>
<event>
 8    1  0.2190295E+004  0.1043930E+01  0.7957747E-01            NaN
         13   -1    0    0    0    0  0.00000000000E+00  0.00000000000E+00  0.74505805969E-08  0.10566000000E+00  0.10566000000E+00 0. -1.
     999900   -1    0    0    0    0 -0.00000000000E+00 -0.00000000000E+00 -0.74505805969E-08  0.93827000000E+00  0.93827000000E+00 0.  1.
     999902    2    1    2    0    0 -0.41023688090E-02 -0.11401950054E-01 -0.74245963231E-02  0.10297187887E+01  0.10296207192E+01 0.  0.
     999903    2    3    3    0    0 -0.20508577881E-01 -0.83593060675E-01 -0.10238682613E+00  0.14151917985E+00  0.46219200988E-01 0.  0.
         14    1    1    2    0    0  0.41023688090E-02  0.11401950054E-01  0.74245963231E-02  0.14211211259E-01  0.00000000000E+00 0. -1.
     999901    1    3    3    0    0  0.16406209072E-01  0.72191110621E-01  0.94962229807E-01  0.88819960889E+00  0.88000000000E+00 0. -1.
        -11    1    4    4    0    0 -0.22875263552E-01 -0.85320122485E-01 -0.80757704644E-01  0.11968654462E+00  0.51100000000E-03 0. -1.
         11    1    4    4    0    0  0.23666856713E-02  0.17270618106E-02 -0.21629121486E-01  0.21832635224E-01  0.51100000000E-03 0.  1.
</event>
<event>
 8    1  0.2190295E+004  0.1043930E+01  0.7957747E-01            NaN
         13   -1    0    0    0    0  0.00000000000E+00  0.00000000000E+00  0.74505805969E-08  0.10566000000E+00  0.10566000000E+00 0.  1.
     999900   -1    0    0    0    0 -0.00000000000E+00 -0.00000000000E+00 -0.74505805969E-08  0.93827000000E+00  0.93827000000E+00 0. -1.
     999902    2    1    2    0    0 -0.13075972382E-01 -0.36164001028E-02 -0.30154221826E-02  0.10300320802E+01  0.10299383157E+01 0.  0.
     999903    2    3    3    0    0 -0.33177900535E-01 -0.12797969088E+00  0.17274423098E-01  0.14082906997E+00  0.45330419062E-01 0.  0.
         14    1    1    2    0    0  0.13075972382E-01  0.36164001028E-02  0.30154221826E-02  0.13897919786E-01  0.00000000000E+00 0.  1.
     999901    1    3    3    0    0  0.20101928153E-01  0.12436329078E+00 -0.20289845281E-01  0.88920301025E+00  0.88000000000E+00 0. -1.
        -11    1    4    4    0    0 -0.25455170974E-01 -0.81652582379E-01  0.32435413864E-01  0.91473641734E-01  0.51100000000E-03 0.  1.
         11    1    4    4    0    0 -0.77227295603E-02 -0.46327108504E-01 -0.15160990766E-01  0.49355428234E-01  0.51100000000E-03 0. -1.
</event>
<event>
 8    1  0.2190295E+004  0.1043930E+01  0.7957747E-01            NaN
         13   -1    0    0    0    0  0.00000000000E+00  0.00000000000E+00  0.74505805969E-08  0.10566000000E+00  0.10566000000E+00 0.  1.
     999900   -1    0    0    0    0 -0.00000000000E+00 -0.00000000000E+00 -0.74505805969E-08  0.93827000000E+00  0.93827000000E+00 0.  1.
     999902    2    1    2    0    0  0.32894471491E-02  0.39722228352E-02  0.94921063452E-02  0.10331272643E+01  0.10330707841E+01 0.  0.
     999903    2    3    3    0    0  0.12304461357E-01  0.13629195015E+00  0.78490297109E-02  0.14318767056E+00  0.41402974380E-01 0.  0.
         14    1    1    2    0    0 -0.32894471491E-02 -0.39722228352E-02 -0.94921063452E-02  0.10802735749E-01  0.00000000000E+00 0. -1.
     999901    1    3    3    0    0 -0.90150142078E-02 -0.13231972732E+00  0.16430766343E-02  0.88993959369E+00  0.88000000000E+00 0.  1.
        -11    1    4    4    0    0 -0.57070332561E-02  0.18263412622E-01  0.13872844625E-01  0.23639784436E-01  0.51100000000E-03 0. -1.
         11    1    4    4    0    0  0.18011494613E-01  0.11802853753E+00 -0.60238149142E-02  0.11954788612E+00  0.51100000000E-03 0.  1.
</event>
<event>
 8    1  0.2190295E+004  0.1043930E+01  0.7957747E-01            NaN
         13   -1    0    0    0    0  0.00000000000E+00  0.00000000000E+00  0.74505805969E-08  0.10566000000E+00  0.10566000000E+00 0. -1.
     999900   -1    0    0    0    0 -0.00000000000E+00 -0.00000000000E+00 -0.74505805969E-08  0.93827000000E+00  0.93827000000E+00 0. -1.
     999902    2    1    2    0    0 -0.11222915769E-01 -0.42983839045E-02  0.48910414695E-02  0.10309549382E+01  0.10308732863E+01 0.  0.
     999903    2    3    3    0    0  0.83545125368E-01  0.95668500830E-01 -0.40001582070E-01  0.13910870294E+00  0.40234992756E-01 0.  0.
         14    1    1    2    0    0  0.11222915769E-01  0.42983839045E-02 -0.48910414695E-02  0.12975061819E-01  0.00000000000E+00 0.  1.
     999901    1    3    3    0    0 -0.94768041136E-01 -0.99966884735E-01  0.44892623539E-01  0.89184623524E+00  0.88000000000E+00 0. -1.
        -11    1    4    4    0    0  0.33147938462E-01  0.24334279905E-01 -0.30603908231E-01  0.51262104159E-01  0.51100000000E-03 0. -1.
         11    1    4    4    0    0  0.50397186905E-01  0.71334220925E-01 -0.93976738386E-02  0.87846598782E-01  0.51100000000E-03 0.  1.
</event>
<event>
 7    1  0.3538235E+004  0.1043930E+01  0.7957747E-01            NaN
         13   -1    0    0    0    0  0.00000000000E+00  0.00000000000E+00  0.74505805969E-08  0.10566000000E+00  0.10566000000E+00 0.  1.
     999900   -1    0    0    0    0 -0.00000000000E+00 -0.00000000000E+00 -0.74505805969E-08  0.93827000000E+00  0.93827000000E+00 0. -1.
     999903    2    1    2    0    0  0.55236266532E-01  0.30913263529E-01 -0.79280449532E-01  0.11118658590E+00  0.45501562640E-01 0.  0.
         14    1    1    2    0    0  0.36639804863E-01  0.21648188137E-01 -0.25328804760E-02  0.42632556029E-01  0.00000000000E+00 0.  1.
     999901    1    1    2    0    0 -0.91876071396E-01 -0.52561451666E-01  0.81813330008E-01  0.89011085808E+00  0.88000000000E+00 0.  1.
        -11    1    3    3    0    0  0.19646753679E-01  0.36687440696E-01 -0.37787357834E-01  0.56214844730E-01  0.51100000000E-03 0. -1.
         11    1    3    3    0    0  0.35589512853E-01 -0.57741771673E-02 -0.41493091699E-01  0.54971741166E-01  0.51100000000E-03 0.  1.
</event>
<event>
 8    1  0.2190295E+004  0.1043930E+01  0.7957747E-01            NaN
         13   -1    0    0    0    0  0.00000000000E+00  0.00000000000E+00  0.74505805969E-08  0.10566000000E+00  0.10566000000E+00 0. -1.
     999900   -1    0    0    0    0 -0.00000000000E+00 -0.00000000000E+00 -0.74505805969E-08  0.93827000000E+00  0.93827000000E+00 0. -1.
     999902    2    1    2    0    0  0.12599499298E-01  0.34749396332E-02 -0.44266652878E-02  0.10301307988E+01  0.10300383705E+01 0.  0.
     999903    2    3    3    0    0 -0.75747062346E-01  0.10443384652E+00  0.26400508061E-01  0.13942987793E+00  0.45822028337E-01 0.  0.
         14    1    1    2    0    0 -0.12599499298E-01 -0.34749396332E-02  0.44266652878E-02  0.13799201194E-01  0.00000000000E+00 0. -1.
     999901    1    3    3    0    0  0.88346561645E-01 -0.10095890688E+00 -0.30827173349E-01  0.89070092088E+00  0.88000000000E+00 0. -1.
        -11    1    4    4    0    0 -0.17213167850E-01  0.58637506263E-01  0.17939257767E-02  0.61140245166E-01  0.51100000000E-03 0.  1.
         11    1    4    4    0    0 -0.58533894496E-01  0.45796340254E-01  0.24606582284E-01  0.78289632764E-01  0.51100000000E-03 0. -1.
</event>
<event>
 8    1  0.2190295E+004  0.1043930E+01  0.7957747E-01            NaN
         13   -1    0    0    0    0  0.00000000000E+00  0.00000000000E+00  0.74505805969E-08  0.10566000000E+00  0.10566000000E+00 0. -1.
     999900   -1    0    0    0    0 -0.00000000000E+00 -0.00000000000E+00 -0.74505805969E-08  0.93827000000E+00  0.93827000000E+00 0. -1.
     999902    2    1    2    0    0  0.90038970550E-02  0.44763135308E-02 -0.46645842127E-02  0.10328455112E+01  0.10327860302E+01 0.  0.
     999903    2    3    3    0    0  0.31801427786E-01 -0.10686610019E+00 -0.76615567711E-01  0.14262430024E+00  0.45166930656E-01 0.  0.
         14    1    1    2    0    0 -0.90038970550E-02 -0.44763135308E-02  0.46645842127E-02  0.11084488751E-01  0.00000000000E+00 0. -1.
     999901    1    3    3    0    0 -0.22797530731E-01  0.11134241372E+00  0.71950983498E-01  0.89022121101E+00  0.88000000000E+00 0.  1.
        -11    1    4    4    0    0  0.34074360216E-02 -0.14638855208E-01 -0.33912557690E-01  0.37097565852E-01  0.51100000000E-03 0. -1.
         11    1    4    4    0    0  0.28393991764E-01 -0.92227244981E-01 -0.42703010020E-01  0.10552673439E+00  0.51100000000E-03 0.  1.
</event>
<event>
 8    1  0.2190295E+004  0.1043930E+01  0.7957747E-01            NaN
         13   -1    0    0    0    0  0.00000000000E+00  0.00000000000E+00  0.74505805969E-08  0.10566000000E+00  0.10566000000E+00 0.  1.
     999900   -1    0    0    0    0 -0.00000000000E+00 -0.00000000000E+00 -0.74505805969E-08  0.93827000000E+00  0.93827000000E+00 0. -1.
     999902    2    1    2    0    0 -0.15285058835E-01  0.18764093575E-02  0.89415157702E-02  0.10261225678E+01  0.10259680402E+01 0.  0.
     999903    2    3    3    0    0 -0.44684112399E-01 -0.82554156918E-01  0.90303924400E-01  0.13785871830E+00  0.45148297023E-01 0.  0.
         14    1    1    2    0    0  0.15285058835E-01 -0.18764093575E-02 -0.89415157702E-02  0.17807432154E-01  0.00000000000E+00 0. -1.
     999901    1    3    3    0    0  0.29399053564E-01  0.84430566275E-01 -0.81362408629E-01  0.88826384955E+00  0.88000000000E+00 0. -1.
        -11    1    4    4    0    0 -0.42523560514E-01 -0.50048031098E-01  0.80379769027E-01  0.10379897401E+00  0.51100000000E-03 0.  1.
         11    1    4    4    0    0 -0.21605518847E-02 -0.32506125820E-01  0.99241553726E-02  0.34059744291E-01  0.51100000000E-03 0. -1.
</event>
<event>
 8    1  0.2190295E+004  0.1043930E+01  0.7957747E-01            NaN
         13   -1    0    0    0    0  0.00000000000E+00  0.00000000000E+00  0.74505805969E-08  0.10566000000E+00  0.10566000000E+00 0. -1.
     999900   -1    0    0    0    0 -0.00000000000E+00 -0.00000000000E+00 -0.74505805969E-08  0.93827000000E+00  0.93827000000E+00 0.  1.
     999902    2    1    2    0    0 -0.48012260990E-03 -0.13807334634E-01 -0.35519007753E-03  0.10301097552E+01  0.10300170428E+01 0.  0.
     999903    2    3    3    0    0  0.25674934770E-01 -0.11003177630E+00 -0.72314747556E-01  0.14155958319E+00  0.45205075023E-01 0.  0.
         14    1    1    2    0    0  0.48012260990E-03  0.13807334634E-01  0.35519007753E-03  0.13820244839E-01  0.00000000000E+00 0. -1.
     999901    1    3    3    0    0 -0.26155057379E-01  0.96224441664E-01  0.71959557478E-01  0.88855017197E+00  0.88000000000E+00 0. -1.
        -11    1    4    4    0    0  0.33201980037E-02 -0.87835927907E-02 -0.26651725322E-01  0.28262179689E-01  0.51100000000E-03 0.  1.
         11    1    4    4    0    0  0.22354736766E-01 -0.10124818351E+00 -0.45663022234E-01  0.11329740350E+00  0.51100000000E-03 0. -1.
</event>
<event>
 8    1  0.2190295E+004  0.1043930E+01  0.7957747E-01            NaN
         13   -1    0    0    0    0  0.00000000000E+00  0.00000000000E+00  0.74505805969E-08  0.10566000000E+00  0.10566000000E+00 0.  1.
     999900   -1    0    0    0    0 -0.00000000000E+00 -0.00000000000E+00 -0.74505805969E-08  0.93827000000E+00  0.93827000000E+00 0.  1.
     999902    2    1    2    0    0  0.71709321619E-02 -0.12224776866E-01 -0.23835594463E-02  0.10295581945E+01  0.10294578802E+01 0.  0.
     999903    2    3    3    0    0  0.76903961062E-01 -0.99521619427E-01  0.46644203184E-01  0.14113984961E+00  0.43886256355E-01 0.  0.
         14    1    1    2    0    0 -0.71709321619E-02  0.12224776866E-01  0.23835594463E-02  0.14371805493E-01  0.00000000000E+00 0. -1.
     999901    1    3    3    0    0 -0.69733028900E-01  0.87296842560E-01 -0.49027762630E-01  0.88841834490E+00  0.88000000000E+00 0. -1.
        -11    1    4    4    0    0  0.55020344803E-01 -0.93121728155E-01  0.28118913306E-01  0.11175790354E+00  0.51100000000E-03 0.  1.
         11    1    4    4    0    0  0.21883616259E-01 -0.63998912717E-02  0.18525289878E-01  0.29381946071E-01  0.51100000000E-03 0. -1.
</event>
<event>
 8    1  0.2190295E+004  0.1043930E+01  0.7957747E-01            NaN
         13   -1    0    0    0    0  0.00000000000E+00  0.00000000000E+00  0.74505805969E-08  0.10566000000E+00  0.10566000000E+00 0.  1.
     999900   -1    0    0    0    0 -0.00000000000E+00 -0.00000000000E+00 -0.74505805969E-08  0.93827000000E+00  0.93827000000E+00 0.  1.
     999902    2    1    2    0    0  0.12954839544E-01  0.97778444325E-03  0.34593394014E-02  0.10304856347E+01  0.10303979291E+01 0.  0.
     999903    2    3    3    0    0  0.13106326518E+00  0.69411329853E-02 -0.29507061200E-01  0.14196329657E+00  0.45355838724E-01 0.  0.
         14    1    1    2    0    0 -0.12954839544E-01 -0.97778444325E-03 -0.34593394014E-02  0.13444365330E-01  0.00000000000E+00 0. -1.
     999901    1    3    3    0    0 -0.11810842563E+00 -0.59633485420E-02  0.32966400601E-01  0.88852233810E+00  0.88000000000E+00 0.  1.
        -11    1    4    4    0    0  0.66173097049E-01 -0.10984310750E-01 -0.32573616678E-01  0.74571009650E-01  0.51100000000E-03 0. -1.
         11    1    4    4    0    0  0.64890168130E-01  0.17925443735E-01  0.30665554782E-02  0.67392286922E-01  0.51100000000E-03 0.  1.
</event>
<event>
 8    1  0.2190295E+004  0.1043930E+01  0.7957747E-01            NaN
         13   -1    0    0    0    0  0.00000000000E+00  0.00000000000E+00  0.74505805969E-08  0.10566000000E+00  0.10566000000E+00 0. -1.
     999900   -1    0    0    0    0 -0.00000000000E+00 -0.00000000000E+00 -0.74505805969E-08  0.93827000000E+00  0.93827000000E+00 0. -1.
     999902    2    1    2    0    0 -0.45481036406E-03 -0.58870770568E-02  0.12978313634E-01  0.10296716287E+01  0.10295729026E+01 0.  0.
     999903    2    3    3    0    0 -0.87777178482E-01  0.78694406274E-01 -0.57300582655E-01  0.13853844749E+00  0.44854230795E-01 0.  0.
         14    1    1    2    0    0  0.45481036406E-03  0.58870770568E-02 -0.12978313634E-01  0.14258371349E-01  0.00000000000E+00 0.  1.
     999901    1    3    3    0    0  0.87322368118E-01 -0.84581483331E-01  0.70278896289E-01  0.89113318116E+00  0.88000000000E+00 0.  1.
        -11    1    4    4    0    0 -0.35013132675E-01  0.58575590333E-01 -0.20985960870E-01  0.71398115642E-01  0.51100000000E-03 0.  1.
         11    1    4    4    0    0 -0.52764045806E-01  0.20118815941E-01 -0.36314621785E-01  0.67140331851E-01  0.51100000000E-03 0. -1.
</event>
<event>
 8    1  0.2190295E+004  0.1043930E+01  0.7957747E-01            NaN
         13   -1    0    0    0    0  0.00000000000E+00  0.00000000000E+00  0.74505805969E-08  0.10566000000E+00  0.10566000000E+00 0.  1.
     999900   -1    0    0    0    0 -0.00000000000E+00 -0.00000000000E+00 -0.74505805969E-08  0.93827000000E+00  0.93827000000E+00 0.  1.
     999902    2    1    2    0    0  0.12470678091E-01 -0.29041272524E-02  0.10953483464E-01  0.10270797606E+01  0.10269415291E+01 0.  0.
     999903    2    3    3    0    0 -0.47162264662E-01 -0.11289217111E+00  0.41629885563E-01  0.13770104528E+00  0.47535344679E-01 0.  0.
         14    1    1    2    0    0 -0.12470678091E-01  0.29041272524E-02 -0.10953483464E-01  0.16850239380E-01  0.00000000000E+00 0. -1.
     999901    1    3    3    0    0  0.59632942754E-01  0.10998804386E+00 -0.30676402099E-01  0.88937871534E+00  0.88000000000E+00 0.  1.
        -11    1    4    4    0    0 -0.31919020374E-01 -0.47872460720E-01  0.41451823329E-01  0.70916226178E-01  0.51100000000E-03 0. -1.
         11    1    4    4    0    0 -0.15243244289E-01 -0.65019710389E-01  0.17806223392E-03  0.66784819103E-01  0.51100000000E-03 0.  1.
</event>
<event>
 8    1  0.2190295E+004  0.1043930E+01  0.7957747E-01            NaN
         13   -1    0    0    0    0  0.00000000000E+00  0.00000000000E+00  0.74505805969E-08  0.10566000000E+00  0.10566000000E+00 0. -1.
     999900   -1    0    0    0    0 -0.00000000000E+00 -0.00000000000E+00 -0.74505805969E-08  0.93827000000E+00  0.93827000000E+00 0.  1.
     999902    2    1    2    0    0  0.41032120013E-02  0.11112519135E-01 -0.76798513609E-02  0.10298124738E+01  0.10297157018E+01 0.  0.
     999903    2    3    3    0    0 -0.12884130581E+00 -0.15968854301E-01 -0.28063922659E-01  0.13918171078E+00  0.41579784391E-01 0.  0.
         14    1    1    2    0    0 -0.41032120013E-02 -0.11112519135E-01  0.76798513609E-02  0.14117526241E-01  0.00000000000E+00 0. -1.
     999901    1    3    3    0    0  0.13294451781E+00  0.27081373436E-01  0.20384071298E-01  0.89063076298E+00  0.88000000000E+00 0. -1.
        -11    1    4    4    0    0 -0.99254429540E-01 -0.23949689452E-01 -0.34668626560E-01  0.10782951450E+00  0.51100000000E-03 0. -1.
         11    1    4    4    0    0 -0.29586876269E-01  0.79808351506E-02  0.66047039010E-02  0.31352196282E-01  0.51100000000E-03 0.  1.
</event>
<event>
 8    1  0.2190295E+004  0.1043930E+01  0.7957747E-01            NaN
         13   -1    0    0    0    0  0.00000000000E+00  0.00000000000E+00  0.74505805969E-08  0.10566000000E+00  0.10566000000E+00 0. -1.
     999900   -1    0    0    0    0 -0.00000000000E+00 -0.00000000000E+00 -0.74505805969E-08  0.93827000000E+00  0.93827000000E+00 0. -1.
     999902    2    1    2    0    0  0.24917131659E-02  0.15683702480E-02  0.13555118493E-01  0.10300588192E+01  0.10299654175E+01 0.  0.
     999903    2    3    3    0    0  0.71191575078E-02  0.82010218420E-01 -0.10229950088E+00  0.13881553197E+00  0.45035604892E-01 0.  0.
         14    1    1    2    0    0 -0.24917131659E-02 -0.15683702480E-02 -0.13555118493E-01  0.13871180811E-01  0.00000000000E+00 0.  1.
     999901    1    3    3    0    0 -0.46274443419E-02 -0.80441848172E-01  0.11585461937E+00  0.89124328722E+00  0.88000000000E+00 0.  1.
        -11    1    4    4    0    0 -0.16876796325E-01  0.15956840148E-01 -0.30563744200E-01  0.38390761678E-01  0.51100000000E-03 0.  1.
         11    1    4    4    0    0  0.23995953833E-01  0.66053378272E-01 -0.71735756679E-01  0.10042477029E+00  0.51100000000E-03 0. -1.
</event>
<event>
 8    1  0.2190295E+004  0.1043930E+01  0.7957747E-01            NaN
         13   -1    0    0    0    0  0.00000000000E+00  0.00000000000E+00  0.74505805969E-08  0.10566000000E+00  0.10566000000E+00 0. -1.
     999900   -1    0    0    0    0 -0.00000000000E+00 -0.00000000000E+00 -0.74505805969E-08  0.93827000000E+00  0.93827000000E+00 0.  1.
     999902    2    1    2    0    0  0.66291545228E-02  0.18950049091E-01  0.26531964895E-02  0.10236793333E+01  0.10234790120E+01 0.  0.
     999903    2    3    3    0    0 -0.11047161536E+00 -0.56628353851E-01  0.14802492076E-01  0.13262810543E+00  0.44275866095E-01 0.  0.
         14    1    1    2    0    0 -0.66291545228E-02 -0.18950049091E-01 -0.26531964895E-02  0.20250666702E-01  0.00000000000E+00 0. -1.
     999901    1    3    3    0    0  0.11710076988E+00  0.75578402942E-01 -0.12149295586E-01  0.89105122787E+00  0.88000000000E+00 0. -1.
        -11    1    4    4    0    0 -0.58569550359E-01 -0.33714548941E-01 -0.13972188956E-01  0.69011203617E-01  0.51100000000E-03 0. -1.
         11    1    4    4    0    0 -0.51902065003E-01 -0.22913804910E-01  0.28774681032E-01  0.63616901815E-01  0.51100000000E-03 0.  1.
</event>
<event>
 8    1  0.2190295E+004  0.1043930E+01  0.7957747E-01            NaN
         13   -1    0    0    0    0  0.00000000000E+00  0.00000000000E+00  0.74505805969E-08  0.10566000000E+00  0.10566000000E+00 0.  1.
     999900   -1    0    0    0    0 -0.00000000000E+00 -0.00000000000E+00 -0.74505805969E-08  0.93827000000E+00  0.93827000000E+00 0. -1.
     999902    2    1    2    0    0  0.10101734729E-01 -0.31890900038E-02 -0.91537883528E-02  0.10299297435E+01  0.10298345835E+01 0.  0.
     999903    2    3    3    0    0 -0.25900626745E-01  0.12975703823E-01 -0.13022768532E+00  0.14076364032E+00  0.44899232261E-01 0.  0.
         14    1    1    2    0    0 -0.10101734729E-01  0.31890900038E-02  0.91537883528E-02  0.14000256455E-01  0.00000000000E+00 0.  1.
     999901    1    3    3    0    0  0.36002361474E-01 -0.16164793827E-01  0.12107389697E+00  0.88916610322E+00  0.88000000000E+00 0.  1.
        -11    1    4    4    0    0 -0.23349096515E-01  0.28723365684E-01 -0.82157948209E-01  0.90113271049E-01  0.51100000000E-03 0.  1.
         11    1    4    4    0    0 -0.25515302297E-02 -0.15747661861E-01 -0.48069737112E-01  0.50650369274E-01  0.51100000000E-03 0. -1.
</event>
<event>
 8    1  0.2190295E+004  0.1043930E+01  0.7957747E-01            NaN
         13   -1    0    0    0    0  0.00000000000E+00  0.00000000000E+00  0.74505805969E-08  0.10566000000E+00  0.10566000000E+00 0.  1.
     999900   -1    0    0    0    0 -0.00000000000E+00 -0.00000000000E+00 -0.74505805969E-08  0.93827000000E+00  0.93827000000E+00 0. -1.
     999902    2    1    2    0    0 -0.12345920561E-01  0.14023002365E-01  0.82576433125E-02  0.10235031788E+01  0.10232993218E+01 0.  0.
     999903    2    3    3    0    0  0.12229669332E+00 -0.11879815449E-01  0.23869371946E-01  0.13274882689E+00  0.44214170933E-01 0.  0.
         14    1    1    2    0    0  0.12345920561E-01 -0.14023002365E-01 -0.82576433125E-02  0.20426821165E-01  0.00000000000E+00 0. -1.
     999901    1    3    3    0    0 -0.13464261388E+00  0.25902817814E-01 -0.15611728633E-01  0.89075435195E+00  0.88000000000E+00 0. -1.
        -11    1    4    4    0    0  0.47821194892E-01 -0.22645657749E-01  0.22460894463E-01  0.57484305657E-01  0.51100000000E-03 0. -1.
         11    1    4    4    0    0  0.74475498426E-01  0.10765842300E-01  0.14084774831E-02  0.75264521230E-01  0.51100000000E-03 0.  1.
</event>
<event>
 8    1  0.2190295E+004  0.1043930E+01  0.7957747E-01            NaN
         13   -1    0    0    0    0  0.00000000000E+00  0.00000000000E+00  0.74505805969E-08  0.10566000000E+00  0.10566000000E+00 0.  1.
     999900   -1    0    0    0    0 -0.00000000000E+00 -0.00000000000E+00 -0.74505805969E-08  0.93827000000E+00  0.93827000000E+00 0.  1.
     999902    2    1    2    0    0  0.70129662364E-02  0.10535541382E-01 -0.55773803628E-02  0.10300993637E+01  0.10300065110E+01 0.  0.
     999903    2    3    3    0    0  0.73232149039E-01 -0.52203131015E-01 -0.98286706517E-01  0.14053984334E+00  0.44755517499E-01 0.  0.
         14    1    1    2    0    0 -0.70129662364E-02 -0.10535541382E-01  0.55773803628E-02  0.13830636260E-01  0.00000000000E+00 0.  1.
     999901    1    3    3    0    0 -0.66219182802E-01  0.62738672397E-01  0.92709326154E-01  0.88955952040E+00  0.88000000000E+00 0. -1.
        -11    1    4    4    0    0  0.70293912706E-02 -0.14572473883E-01  0.21001147684E-04  0.16187368494E-01  0.51100000000E-03 0.  1.
         11    1    4    4    0    0  0.66202757768E-01 -0.37630657132E-01 -0.98307707664E-01  0.12435247484E+00  0.51100000000E-03 0. -1.
</event>
<event>
 8    1  0.2190295E+004  0.1043930E+01  0.7957747E-01            NaN
         13   -1    0    0    0    0  0.00000000000E+00  0.00000000000E+00  0.74505805969E-08  0.10566000000E+00  0.10566000000E+00 0. -1.
     999900   -1    0    0    0    0 -0.00000000000E+00 -0.00000000000E+00 -0.74505805969E-08  0.93827000000E+00  0.93827000000E+00 0.  1.
     999902    2    1    2    0    0  0.60633537656E-02  0.93451682350E-02  0.74031763202E-02  0.10305545206E+01  0.10304677174E+01 0.  0.
     999903    2    3    3    0    0  0.10243723989E+00  0.69631308189E-01 -0.50883820823E-01  0.14133029773E+00  0.45201577833E-01 0.  0.
         14    1    1    2    0    0 -0.60633537656E-02 -0.93451682350E-02 -0.74031763202E-02  0.13375479351E-01  0.00000000000E+00 0. -1.
     999901    1    3    3    0    0 -0.96373886120E-01 -0.60286139954E-01  0.58286997143E-01  0.88922422292E+00  0.88000000000E+00 0. -1.
        -11    1    4    4    0    0  0.28079367851E-01  0.35566980914E-01 -0.36708731493E-01  0.58320263366E-01  0.51100000000E-03 0.  1.
         11    1    4    4    0    0  0.74357872034E-01  0.34064327274E-01 -0.14175089331E-01  0.83010034361E-01  0.51100000000E-03 0. -1.
</event>
<event>
 8    1  0.2190295E+004  0.1043930E+01  0.7957747E-01            NaN
         13   -1    0    0    0    0  0.00000000000E+00  0.00000000000E+00  0.74505805969E-08  0.10566000000E+00  0.10566000000E+00 0.  1.
     999900   -1    0    0    0    0 -0.00000000000E+00 -0.00000000000E+00 -0.74505805969E-08  0.93827000000E+00  0.93827000000E+00 0.  1.
     999902    2    1    2    0    0 -0.99637270251E-02 -0.96950223026E-02 -0.14908429280E-02  0.10299481573E+01  0.10298532491E+01 0.  0.
     999903    2    3    3    0    0 -0.18233468327E-01 -0.13217235807E+00  0.12700437766E-01  0.14131410500E+00  0.44792672906E-01 0.  0.
         14    1    1    2    0    0  0.99637270251E-02  0.96950223026E-02  0.14908429280E-02  0.13981842737E-01  0.00000000000E+00 0.  1.
     999901    1    3    3    0    0  0.82697413021E-02  0.12247733577E+00 -0.14191280694E-01  0.88863405227E+00  0.88000000000E+00 0.  1.
        -11    1    4    4    0    0 -0.42885642917E-02 -0.12126427216E+00  0.18355038180E-01  0.12272157118E+00  0.51100000000E-03 0.  1.
         11    1    4    4    0    0 -0.13944904035E-01 -0.10908085917E-01 -0.56546004144E-02  0.18592533818E-01  0.51100000000E-03 0. -1.
</event>
<event>
 8    1  0.2190295E+004  0.1043930E+01  0.7957747E-01            NaN
         13   -1    0    0    0    0  0.00000000000E+00  0.00000000000E+00  0.74505805969E-08  0.10566000000E+00  0.10566000000E+00 0.  1.
     999900   -1    0    0    0    0 -0.00000000000E+00 -0.00000000000E+00 -0.74505805969E-08  0.93827000000E+00  0.93827000000E+00 0.  1.
     999902    2    1    2    0    0  0.91446936244E-03  0.13568942090E-01 -0.22197583791E-02  0.10301503131E+01  0.10300581478E+01 0.  0.
     999903    2    3    3    0    0 -0.94488844339E-01 -0.63056527861E-01 -0.66717483142E-01  0.13934550204E+00  0.45405715197E-01 0.  0.
         14    1    1    2    0    0 -0.91446936244E-03 -0.13568942090E-01  0.22197583791E-02  0.13779686895E-01  0.00000000000E+00 0.  1.
     999901    1    3    3    0    0  0.95403313701E-01  0.76625469951E-01  0.64497724763E-01  0.89080481106E+00  0.88000000000E+00 0. -1.
        -11    1    4    4    0    0 -0.67549691448E-01 -0.39400082320E-01 -0.20488831570E-01  0.80841701130E-01  0.51100000000E-03 0.  1.
         11    1    4    4    0    0 -0.26939152891E-01 -0.23656445541E-01 -0.46228651572E-01  0.58503800914E-01  0.51100000000E-03 0. -1.
</event>
<event>
 8    1  0.2190295E+004  0.1043930E+01  0.7957747E-01            NaN
         13   -1    0    0    0    0  0.00000000000E+00  0.00000000000E+00  0.74505805969E-08  0.10566000000E+00  0.10566000000E+00 0. -1.
     999900   -1    0    0    0    0 -0.00000000000E+00 -0.00000000000E+00 -0.74505805969E-08  0.93827000000E+00  0.93827000000E+00 0. -1.
     999902    2    1    2    0    0  0.15703963156E-01 -0.22736882625E-02  0.50309322073E-03  0.10280543199E+01  0.10279317328E+01 0.  0.
     999903    2    3    3    0    0 -0.85756673358E-01  0.34326827139E-01 -0.90794947366E-01  0.13678040534E+00  0.43961559698E-01 0.  0.
         14    1    1    2    0    0 -0.15703963156E-01  0.22736882625E-02 -0.50309322073E-03  0.15875680140E-01  0.00000000000E+00 0.  1.
     999901    1    3    3    0    0  0.10146063651E+00 -0.36600515401E-01  0.91298040586E-01  0.89127391452E+00  0.88000000000E+00 0.  1.
        -11    1    4    4    0    0 -0.46162384143E-01 -0.26582537934E-02 -0.54928899596E-01  0.71801651477E-01  0.51100000000E-03 0.  1.
         11    1    4    4    0    0 -0.39594289215E-01  0.36985080932E-01 -0.35866047769E-01  0.64978753863E-01  0.51100000000E-03 0. -1.
</event>
<event>
 7    1  0.2550840E+004  0.1043930E+01  0.7957747E-01            NaN
         13   -1    0    0    0    0  0.00000000000E+00  0.00000000000E+00  0.74505805969E-08  0.10566000000E+00  0.10566000000E+00 0. -1.
     999900   -1    0    0    0    0 -0.00000000000E+00 -0.00000000000E+00 -0.74505805969E-08  0.93827000000E+00  0.93827000000E+00 0. -1.
     999903    2    1    2    0    0  0.77185380439E-01 -0.46917802275E-01  0.67473772922E-01  0.12126090632E+00  0.44638931940E-01 0.  0.
         14    1    1    2    0    0  0.53179327005E-02 -0.26146642885E-01 -0.22081984616E-01  0.34634396010E-01  0.00000000000E+00 0.  1.
     999901    1    1    2    0    0 -0.82503313139E-01  0.73064445161E-01 -0.45391788305E-01  0.88803469767E+00  0.88000000000E+00 0. -1.
        -11    1    3    3    0    0  0.46043040617E-01 -0.51617837850E-01  0.44037743078E-01  0.81999675060E-01  0.51100000000E-03 0.  1.
         11    1    3    3    0    0  0.31142339822E-01  0.47000355745E-02  0.23436029844E-01  0.39261231257E-01  0.51100000000E-03 0. -1.
</event>
<event>
 8    1  0.2190295E+004  0.1043930E+01  0.7957747E-01            NaN
         13   -1    0    0    0    0  0.00000000000E+00  0.00000000000E+00  0.74505805969E-08  0.10566000000E+00  0.10566000000E+00 0.  1.
     999900   -1    0    0    0    0 -0.00000000000E+00 -0.00000000000E+00 -0.74505805969E-08  0.93827000000E+00  0.93827000000E+00 0. -1.
     999902    2    1    2    0    0  0.11764667866E-02  0.13736982872E-01  0.18305748975E-03  0.10301415163E+01  0.10300492325E+01 0.  0.
     999903    2    3    3    0    0 -0.51018265538E-01  0.84490088642E-01  0.90134606288E-01  0.14119743866E+00  0.45508580896E-01 0.  0.
         14    1    1    2    0    0 -0.11764667866E-02 -0.13736982872E-01 -0.18305748975E-03  0.13788483694E-01  0.00000000000E+00 0.  1.
     999901    1    3    3    0    0  0.52194732325E-01 -0.70753105770E-01 -0.89951548799E-01  0.88894407765E+00  0.88000000000E+00 0. -1.
        -11    1    4    4    0    0  0.86317623124E-02  0.10530201223E-01  0.12623444091E-01  0.18574308066E-01  0.51100000000E-03 0.  1.
         11    1    4    4    0    0 -0.59650027850E-01  0.73959887418E-01  0.77511162197E-01  0.12262313059E+00  0.51100000000E-03 0. -1.
</event>
<event>
 8    1  0.2190295E+004  0.1043930E+01  0.7957747E-01            NaN
         13   -1    0    0    0    0  0.00000000000E+00  0.00000000000E+00  0.74505805969E-08  0.10566000000E+00  0.10566000000E+00 0.  1.
     999900   -1    0    0    0    0 -0.00000000000E+00 -0.00000000000E+00 -0.74505805969E-08  0.93827000000E+00  0.93827000000E+00 0. -1.
     999902    2    1    2    0    0 -0.10616869232E-01  0.36758977107E-02  0.85454738104E-02  0.10298142195E+01  0.10297174717E+01 0.  0.
     999903    2    3    3    0    0 -0.49958701033E-02  0.28324891631E-01  0.13080341195E+00  0.14100255669E+00  0.44101362918E-01 0.  0.
         14    1    1    2    0    0  0.10616869232E-01 -0.36758977107E-02 -0.85454738104E-02  0.14115780492E-01  0.00000000000E+00 0. -1.
     999901    1    3    3    0    0 -0.56209991285E-02 -0.24648993920E-01 -0.12225793813E+00  0.88881166282E+00  0.88000000000E+00 0. -1.
        -11    1    4    4    0    0 -0.10779809477E-01 -0.25814582509E-02  0.83284226416E-01  0.84020186323E-01  0.51100000000E-03 0. -1.
         11    1    4    4    0    0  0.57839393735E-02  0.30906349882E-01  0.47519185529E-01  0.56982370362E-01  0.51100000000E-03 0.  1.
</event>
<event>
 8    1  0.2190295E+004  0.1043930E+01  0.7957747E-01            NaN
         13   -1    0    0    0    0  0.00000000000E+00  0.00000000000E+00  0.74505805969E-08  0.10566000000E+00  0.10566000000E+00 0. -1.
     999900   -1    0    0    0    0 -0.00000000000E+00 -0.00000000000E+00 -0.74505805969E-08  0.93827000000E+00  0.93827000000E+00 0.  1.
     999902    2    1    2    0    0 -0.55699928229E-02  0.63847722038E-02 -0.10994594883E-01  0.10300493929E+01  0.10299558634E+01 0.  0.
     999903    2    3    3    0    0 -0.33098393126E-01 -0.29485190061E-01 -0.12653699356E+00  0.14134555423E+00  0.44744551637E-01 0.  0.
         14    1    1    2    0    0  0.55699928229E-02 -0.63847722038E-02  0.10994594883E-01  0.13880607075E-01  0.00000000000E+00 0. -1.
     999901    1    3    3    0    0  0.27528400303E-01  0.35869962265E-01  0.11554239868E+00  0.88870383869E+00  0.88000000000E+00 0. -1.
        -11    1    4    4    0    0 -0.14888961058E-01 -0.19365287628E-01 -0.16809121875E-01  0.29656419634E-01  0.51100000000E-03 0.  1.
         11    1    4    4    0    0 -0.18209432068E-01 -0.10119902433E-01 -0.10972787169E+00  0.11168913460E+00  0.51100000000E-03 0. -1.
</event>
<event>
 8    1  0.2190295E+004  0.1043930E+01  0.7957747E-01            NaN
         13   -1    0    0    0    0  0.00000000000E+00  0.00000000000E+00  0.74505805969E-08  0.10566000000E+00  0.10566000000E+00 0.  1.
     999900   -1    0    0    0    0 -0.00000000000E+00 -0.00000000000E+00 -0.74505805969E-08  0.93827000000E+00  0.93827000000E+00 0. -1.
     999902    2    1    2    0    0 -0.31212932855E-02 -0.13579960391E-01 -0.18269902462E-02  0.10298766840E+01  0.10297807964E+01 0.  0.
     999903    2    3    3    0    0  0.24896255078E-01  0.11246687243E+00  0.54982236681E-01  0.13864154372E+00  0.54127722879E-01 0.  0.
         14    1    1    2    0    0  0.31212932855E-02  0.13579960391E-01  0.18269902462E-02  0.14053315956E-01  0.00000000000E+00 0.  1.
     999901    1    3    3    0    0 -0.28017548363E-01 -0.12604683282E+00 -0.56809226928E-01  0.89123514032E+00  0.88000000000E+00 0. -1.
        -11    1    4    4    0    0  0.28911176847E-01  0.22702629508E-01  0.22463149606E-01  0.43082708184E-01  0.51100000000E-03 0.  1.
         11    1    4    4    0    0 -0.40149217688E-02  0.89764242922E-01  0.32519087075E-01  0.95558835538E-01  0.51100000000E-03 0. -1.
</event>
<event>
 8    1  0.2354245E+004  0.1043930E+01  0.7957747E-01            NaN
         13   -1    0    0    0    0  0.00000000000E+00  0.00000000000E+00  0.74505805969E-08  0.10566000000E+00  0.10566000000E+00 0. -1.
     999900   -1    0    0    0    0 -0.00000000000E+00 -0.00000000000E+00 -0.74505805969E-08  0.93827000000E+00  0.93827000000E+00 0.  1.
     999902    2    1    2    0    0  0.96837847172E-02 -0.10714036713E-01 -0.30215954550E-03  0.10294850158E+01  0.10293836700E+01 0.  0.
     999903    2    3    3    0    0 -0.60638387423E-01  0.36473117892E-01 -0.11025338607E+00  0.13860842068E+00  0.45267900159E-01 0.  0.
         14    1    1    2    0    0 -0.96837847172E-02  0.10714036713E-01  0.30215954550E-03  0.14444984235E-01  0.00000000000E+00 0. -1.
     999901    1    3    3    0    0  0.70322172140E-01 -0.47187154606E-01  0.10995122653E+00  0.89087659508E+00  0.88000000000E+00 0. -1.
        -11    1    4    4    0    0 -0.17868546430E-02  0.18906317779E-01 -0.45766414045E-01  0.49552673762E-01  0.51100000000E-03 0.  1.
         11    1    4    4    0    0 -0.58851532780E-01  0.17566800114E-01 -0.64486972030E-01  0.89055746919E-01  0.51100000000E-03 0. -1.
</event>
<event>
 8    1  0.2190295E+004  0.1043930E+01  0.7957747E-01            NaN
         13   -1    0    0    0    0  0.00000000000E+00  0.00000000000E+00  0.74505805969E-08  0.10566000000E+00  0.10566000000E+00 0. -1.
     999900   -1    0    0    0    0 -0.00000000000E+00 -0.00000000000E+00 -0.74505805969E-08  0.93827000000E+00  0.93827000000E+00 0.  1.
     999902    2    1    2    0    0 -0.12613923849E-01 -0.33789389764E-02  0.60988346951E-02  0.10295173636E+01  0.10294164744E+01 0.  0.
     999903    2    3    3    0    0  0.73579269411E-01 -0.83271949965E-01  0.62811522645E-01  0.13989469710E+00  0.57246068526E-01 0.  0.
         14    1    1    2    0    0  0.12613923849E-01  0.33789389764E-02 -0.60988346951E-02  0.14412636404E-01  0.00000000000E+00 0.  1.
     999901    1    3    3    0    0 -0.86193193260E-01  0.79893010988E-01 -0.56712687950E-01  0.88962266650E+00  0.88000000000E+00 0.  1.
        -11    1    4    4    0    0  0.73102275368E-01 -0.46298532821E-01  0.33824453241E-01  0.92907758360E-01  0.51100000000E-03 0.  1.
         11    1    4    4    0    0  0.47699404328E-03 -0.36973417143E-01  0.28987069403E-01  0.46986938740E-01  0.51100000000E-03 0. -1.
</event>
<event>
 8    1  0.2190295E+004  0.1043930E+01  0.7957747E-01            NaN
         13   -1    0    0    0    0  0.00000000000E+00  0.00000000000E+00  0.74505805969E-08  0.10566000000E+00  0.10566000000E+00 0. -1.
     999900   -1    0    0    0    0 -0.00000000000E+00 -0.00000000000E+00 -0.74505805969E-08  0.93827000000E+00  0.93827000000E+00 0.  1.
     999902    2    1    2    0    0 -0.13968146459E-02 -0.12901568474E-02 -0.13364972761E-01  0.10304304410E+01  0.10303420091E+01 0.  0.
     999903    2    3    3    0    0  0.49583252494E-01 -0.72936877580E-01  0.98555079500E-01  0.13899434239E+00  0.42755543288E-01 0.  0.
         14    1    1    2    0    0  0.13968146459E-02  0.12901568474E-02  0.13364972761E-01  0.13499558984E-01  0.00000000000E+00 0. -1.
     999901    1    3    3    0    0 -0.50980067140E-01  0.71646720732E-01 -0.11192005226E+00  0.89143609863E+00  0.88000000000E+00 0.  1.
        -11    1    4    4    0    0  0.18882683097E-01 -0.61198618022E-01  0.74586053680E-01  0.98311581684E-01  0.51100000000E-03 0.  1.
         11    1    4    4    0    0  0.30700569397E-01 -0.11738259558E-01  0.23969025821E-01  0.40682760704E-01  0.51100000000E-03 0. -1.
</event>
<event>
 8    1  0.2190295E+004  0.1043930E+01  0.7957747E-01            NaN
         13   -1    0    0    0    0  0.00000000000E+00  0.00000000000E+00  0.74505805969E-08  0.10566000000E+00  0.10566000000E+00 0. -1.
     999900   -1    0    0    0    0 -0.00000000000E+00 -0.00000000000E+00 -0.74505805969E-08  0.93827000000E+00  0.93827000000E+00 0.  1.
     999902    2    1    2    0    0  0.68433468890E-02  0.10547233693E-01  0.37428757780E-02  0.10308118959E+01  0.10307284221E+01 0.  0.
     999903    2    3    3    0    0 -0.18422187548E-01  0.10519316680E+00 -0.80886553629E-01  0.14134107561E+00  0.45052033918E-01 0.  0.
         14    1    1    2    0    0 -0.68433468890E-02 -0.10547233693E-01 -0.37428757780E-02  0.13118104066E-01  0.00000000000E+00 0.  1.
     999901    1    3    3    0    0  0.25265534437E-01 -0.94645933112E-01  0.84629429407E-01  0.88947082032E+00  0.88000000000E+00 0. -1.
        -11    1    4    4    0    0 -0.30952624653E-01  0.62634597914E-01 -0.60883041264E-01  0.92672345731E-01  0.51100000000E-03 0.  1.
         11    1    4    4    0    0  0.12530437105E-01  0.42558568891E-01 -0.20003512365E-01  0.48668729879E-01  0.51100000000E-03 0. -1.
</event>
<event>
 8    1  0.2190295E+004  0.1043930E+01  0.7957747E-01            NaN
         13   -1    0    0    0    0  0.00000000000E+00  0.00000000000E+00  0.74505805969E-08  0.10566000000E+00  0.10566000000E+00 0.  1.
     999900   -1    0    0    0    0 -0.00000000000E+00 -0.00000000000E+00 -0.74505805969E-08  0.93827000000E+00  0.93827000000E+00 0. -1.
     999902    2    1    2    0    0 -0.15088454782E-01 -0.43931754735E-02 -0.46201944966E-02  0.10275499006E+01  0.10274193353E+01 0.  0.
     999903    2    3    3    0    0 -0.11656013808E+00 -0.48746870224E-01 -0.40065961340E-01  0.13990123412E+00  0.44772211305E-01 0.  0.
         14    1    1    2    0    0  0.15088454782E-01  0.43931754735E-02  0.46201944966E-02  0.16380099379E-01  0.00000000000E+00 0.  1.
     999901    1    3    3    0    0  0.10147168330E+00  0.44353694750E-01  0.35445766843E-01  0.88764866650E+00  0.88000000000E+00 0.  1.
        -11    1    4    4    0    0 -0.29006052156E-01 -0.27055349552E-01 -0.28750338547E-01  0.48991694078E-01  0.51100000000E-03 0.  1.
         11    1    4    4    0    0 -0.87554085924E-01 -0.21691520672E-01 -0.11315622793E-01  0.90909540045E-01  0.51100000000E-03 0. -1.
</event>
<event>
 8    1  0.2190295E+004  0.1043930E+01  0.7957747E-01            NaN
         13   -1    0    0    0    0  0.00000000000E+00  0.00000000000E+00  0.74505805969E-08  0.10566000000E+00  0.10566000000E+00 0. -1.
     999900   -1    0    0    0    0 -0.00000000000E+00 -0.00000000000E+00 -0.74505805969E-08  0.93827000000E+00  0.93827000000E+00 0. -1.
     999902    2    1    2    0    0 -0.69764962723E-02  0.57431884081E-02  0.10273926819E-01  0.10302475556E+01  0.10301566951E+01 0.  0.
     999903    2    3    3    0    0 -0.79038491639E-01 -0.10559760509E+00  0.10808225803E-01  0.14030936168E+00  0.46604311684E-01 0.  0.
         14    1    1    2    0    0  0.69764962723E-02 -0.57431884081E-02 -0.10273926819E-01  0.13682444431E-01  0.00000000000E+00 0. -1.
     999901    1    3    3    0    0  0.72061995367E-01  0.11134079350E+00 -0.53429898407E-03  0.88993819389E+00  0.88000000000E+00 0.  1.
        -11    1    4    4    0    0 -0.41705627455E-02 -0.21351879653E-01 -0.12672984085E-01  0.25182573438E-01  0.51100000000E-03 0. -1.
         11    1    4    4    0    0 -0.74867928894E-01 -0.84245725438E-01  0.23481209888E-01  0.11512678824E+00  0.51100000000E-03 0.  1.
</event>
<event>
 8    1  0.2190295E+004  0.1043930E+01  0.7957747E-01            NaN
         13   -1    0    0    0    0  0.00000000000E+00  0.00000000000E+00  0.74505805969E-08  0.10566000000E+00  0.10566000000E+00 0.  1.
     999900   -1    0    0    0    0 -0.00000000000E+00 -0.00000000000E+00 -0.74505805969E-08  0.93827000000E+00  0.93827000000E+00 0.  1.
     999902    2    1    2    0    0 -0.33306188215E-02  0.69556737201E-02 -0.96840061753E-02  0.10315504041E+01  0.10314761179E+01 0.  0.
     999903    2    3    3    0    0  0.81658795652E-01  0.23694218535E-02  0.10460363207E+00  0.14008761828E+00  0.44820172756E-01 0.  0.
         14    1    1    2    0    0  0.33306188215E-02 -0.69556737201E-02  0.96840061753E-02  0.12379595883E-01  0.00000000000E+00 0. -1.
     999901    1    3    3    0    0 -0.84989414474E-01  0.45862518665E-02 -0.11428763824E+00  0.89146278584E+00  0.88000000000E+00 0.  1.
        -11    1    4    4    0    0  0.30502358605E-01  0.11346351848E-01  0.13539738845E-01  0.35252223046E-01  0.51100000000E-03 0. -1.
         11    1    4    4    0    0  0.51156437047E-01 -0.89769299946E-02  0.91063893223E-01  0.10483539523E+00  0.51100000000E-03 0.  1.
</event>
<event>
 8    1  0.2190295E+004  0.1043930E+01  0.7957747E-01            NaN
         13   -1    0    0    0    0  0.00000000000E+00  0.00000000000E+00  0.74505805969E-08  0.10566000000E+00  0.10566000000E+00 0. -1.
     999900   -1    0    0    0    0 -0.00000000000E+00 -0.00000000000E+00 -0.74505805969E-08  0.93827000000E+00  0.93827000000E+00 0.  1.
     999902    2    1    2    0    0  0.52828061906E-02 -0.10911877746E-01 -0.55211086303E-02  0.10306085978E+01  0.10305224995E+01 0.  0.
     999903    2    3    3    0    0 -0.82543504526E-01  0.10077144775E+00  0.16788672589E-01  0.13893357154E+00  0.45303012620E-01 0.  0.
         14    1    1    2    0    0 -0.52828061906E-02  0.10911877746E-01  0.55211086303E-02  0.13321402242E-01  0.00000000000E+00 0. -1.
     999901    1    3    3    0    0  0.87826310717E-01 -0.11168332549E+00 -0.22309781219E-01  0.89167502622E+00  0.88000000000E+00 0.  1.
        -11    1    4    4    0    0 -0.65130541469E-01  0.86334654119E-01  0.30641153041E-01  0.11240463209E+00  0.51100000000E-03 0.  1.
         11    1    4    4    0    0 -0.17412963057E-01  0.14436793628E-01 -0.13852480453E-01  0.26528939450E-01  0.51100000000E-03 0. -1.
</event>
<event>
 8    1  0.2190295E+004  0.1043930E+01  0.7957747E-01            NaN
         13   -1    0    0    0    0  0.00000000000E+00  0.00000000000E+00  0.74505805969E-08  0.10566000000E+00  0.10566000000E+00 0.  1.
     999900   -1    0    0    0    0 -0.00000000000E+00 -0.00000000000E+00 -0.74505805969E-08  0.93827000000E+00  0.93827000000E+00 0.  1.
     999902    2    1    2    0    0  0.27867500347E-02  0.33613428378E-02  0.13480638716E-01  0.10297598828E+01  0.10296623835E+01 0.  0.
     999903    2    3    3    0    0 -0.10697115594E+00  0.59970131729E-01  0.51564211507E-01  0.14032089589E+00  0.44630046080E-01 0.  0.
         14    1    1    2    0    0 -0.27867500347E-02 -0.33613428378E-02 -0.13480638716E-01  0.14170117205E-01  0.00000000000E+00 0. -1.
     999901    1    3    3    0    0  0.10975790598E+00 -0.56608788891E-01 -0.38083572791E-01  0.88943898690E+00  0.88000000000E+00 0. -1.
        -11    1    4    4    0    0 -0.17754710886E-01  0.27345960370E-01  0.81308041713E-03  0.32618300507E-01  0.51100000000E-03 0. -1.
         11    1    4    4    0    0 -0.89216445055E-01  0.32624171359E-01  0.50751131089E-01  0.10770259539E+00  0.51100000000E-03 0.  1.
</event>
<event>
 8    1  0.2190295E+004  0.1043930E+01  0.7957747E-01            NaN
         13   -1    0    0    0    0  0.00000000000E+00  0.00000000000E+00  0.74505805969E-08  0.10566000000E+00  0.10566000000E+00 0.  1.
     999900   -1    0    0    0    0 -0.00000000000E+00 -0.00000000000E+00 -0.74505805969E-08  0.93827000000E+00  0.93827000000E+00 0.  1.
     999902    2    1    2    0    0  0.79880217589E-03 -0.15181087296E-02 -0.15347956521E-01  0.10284864736E+01  0.10283705187E+01 0.  0.
     999903    2    3    3    0    0  0.41202274599E-01  0.11941325582E-01 -0.12611037180E+00  0.14052143508E+00  0.44746230598E-01 0.  0.
         14    1    1    2    0    0 -0.79880217589E-03  0.15181087296E-02  0.15347956521E-01  0.15443526423E-01  0.00000000000E+00 0.  1.
     999901    1    3    3    0    0 -0.40403472423E-01 -0.13459434312E-01  0.11076241528E+00  0.88796503850E+00  0.88000000000E+00 0. -1.
        -11    1    4    4    0    0 -0.47589684486E-03 -0.55581940928E-03 -0.67589693339E-01  0.67595585504E-01  0.51100000000E-03 0. -1.
         11    1    4    4    0    0  0.41678171443E-01  0.12497144991E-01 -0.58520678460E-01  0.72925849575E-01  0.51100000000E-03 0.  1.
</event>
<event>
 8    1  0.2190295E+004  0.1043930E+01  0.7957747E-01            NaN
         13   -1    0    0    0    0  0.00000000000E+00  0.00000000000E+00  0.74505805969E-08  0.10566000000E+00  0.10566000000E+00 0. -1.
     999900   -1    0    0    0    0 -0.00000000000E+00 -0.00000000000E+00 -0.74505805969E-08  0.93827000000E+00  0.93827000000E+00 0. -1.
     999902    2    1    2    0    0  0.12985040987E-02  0.11801530985E-01 -0.24747021215E-02  0.10318020819E+01  0.10317308030E+01 0.  0.
     999903    2    3    3    0    0 -0.11915091870E+00 -0.83150278156E-02 -0.61234684177E-01  0.14142829811E+00  0.44566757174E-01 0.  0.
         14    1    1    2    0    0 -0.12985040987E-02 -0.11801530985E-01  0.24747021215E-02  0.12127918085E-01  0.00000000000E+00 0.  1.
     999901    1    3    3    0    0  0.12044942280E+00  0.20116558800E-01  0.58759982056E-01  0.89037378380E+00  0.88000000000E+00 0. -1.
        -11    1    4    4    0    0 -0.32773288850E-01 -0.22761557331E-01 -0.19279752261E-01  0.44318697210E-01  0.51100000000E-03 0. -1.
         11    1    4    4    0    0 -0.86377629855E-01  0.14446529515E-01 -0.41954931916E-01  0.97109600903E-01  0.51100000000E-03 0.  1.
</event>
<event>
 8    1  0.2190295E+004  0.1043930E+01  0.7957747E-01            NaN
         13   -1    0    0    0    0  0.00000000000E+00  0.00000000000E+00  0.74505805969E-08  0.10566000000E+00  0.10566000000E+00 0.  1.
     999900   -1    0    0    0    0 -0.00000000000E+00 -0.00000000000E+00 -0.74505805969E-08  0.93827000000E+00  0.93827000000E+00 0.  1.
     999902    2    1    2    0    0  0.10633547907E-01  0.12403797946E-01  0.21735098223E-01  0.10167391736E+01  0.10163755242E+01 0.  0.
     999903    2    3    3    0    0 -0.12957937932E-01 -0.10690565663E+00  0.52063593524E-01  0.12785722320E+00  0.45167733813E-01 0.  0.
         14    1    1    2    0    0 -0.10633547907E-01 -0.12403797946E-01 -0.21735098223E-01  0.27190826382E-01  0.00000000000E+00 0. -1.
     999901    1    3    3    0    0  0.23591485840E-01  0.11930945458E+00 -0.30328495302E-01  0.88888195042E+00  0.88000000000E+00 0.  1.
        -11    1    4    4    0    0 -0.18727945863E-01 -0.81192566811E-01  0.57113013196E-01  0.10102042496E+00  0.51100000000E-03 0.  1.
         11    1    4    4    0    0  0.57700079302E-02 -0.25713089821E-01 -0.50494196722E-02  0.26836798238E-01  0.51100000000E-03 0. -1.
</event>
<event>
 8    1  0.2190295E+004  0.1043930E+01  0.7957747E-01            NaN
         13   -1    0    0    0    0  0.00000000000E+00  0.00000000000E+00  0.74505805969E-08  0.10566000000E+00  0.10566000000E+00 0.  1.
     999900   -1    0    0    0    0 -0.00000000000E+00 -0.00000000000E+00 -0.74505805969E-08  0.93827000000E+00  0.93827000000E+00 0.  1.
     999902    2    1    2    0    0 -0.18404078199E-02 -0.11819365425E-01  0.76146589664E-02  0.10297501717E+01  0.10296525378E+01 0.  0.
     999903    2    3    3    0    0  0.35060523547E-01  0.22149098033E-01  0.12666445440E+00  0.14031867402E+00  0.43881925828E-01 0.  0.
         14    1    1    2    0    0  0.18404078199E-02  0.11819365425E-01 -0.76146589664E-02  0.14179828319E-01  0.00000000000E+00 0.  1.
     999901    1    3    3    0    0 -0.36900931367E-01 -0.33968463458E-01 -0.11904979543E+00  0.88943149766E+00  0.88000000000E+00 0.  1.
        -11    1    4    4    0    0  0.27637621197E-01  0.33419070763E-01  0.72373333967E-01  0.84373176938E-01  0.51100000000E-03 0.  1.
         11    1    4    4    0    0  0.74229023498E-02 -0.11269972729E-01  0.54291120431E-01  0.55945497078E-01  0.51100000000E-03 0. -1.
</event>
<event>
 8    1  0.2190295E+004  0.1043930E+01  0.7957747E-01            NaN
         13   -1    0    0    0    0  0.00000000000E+00  0.00000000000E+00  0.74505805969E-08  0.10566000000E+00  0.10566000000E+00 0. -1.
     999900   -1    0    0    0    0 -0.00000000000E+00 -0.00000000000E+00 -0.74505805969E-08  0.93827000000E+00  0.93827000000E+00 0.  1.
     999902    2    1    2    0    0 -0.10166791349E-01  0.86368677984E-02 -0.78638927372E-02  0.10284445248E+01  0.10283279344E+01 0.  0.
     999903    2    3    3    0    0  0.53280453067E-02 -0.12739449526E+00  0.26329375290E-01  0.13720168405E+00  0.43281873966E-01 0.  0.
         14    1    1    2    0    0  0.10166791349E-01 -0.86368677984E-02  0.78638927372E-02  0.15485475152E-01  0.00000000000E+00 0. -1.
     999901    1    3    3    0    0 -0.15494836656E-01  0.13603136306E+00 -0.34193268027E-01  0.89124284080E+00  0.88000000000E+00 0. -1.
        -11    1    4    4    0    0  0.18706128107E-01 -0.95161106215E-01  0.68365692112E-02  0.97224251935E-01  0.51100000000E-03 0.  1.
         11    1    4    4    0    0 -0.13378082800E-01 -0.32233389042E-01  0.19492806078E-01  0.39977432113E-01  0.51100000000E-03 0. -1.
</event>
<event>
 8    1  0.2190295E+004  0.1043930E+01  0.7957747E-01            NaN
         13   -1    0    0    0    0  0.00000000000E+00  0.00000000000E+00  0.74505805969E-08  0.10566000000E+00  0.10566000000E+00 0. -1.
     999900   -1    0    0    0    0 -0.00000000000E+00 -0.00000000000E+00 -0.74505805969E-08  0.93827000000E+00  0.93827000000E+00 0. -1.
     999902    2    1    2    0    0 -0.13315849577E-01 -0.36050968565E-02 -0.14418378411E-02  0.10300596190E+01  0.10299662282E+01 0.  0.
     999903    2    3    3    0    0 -0.11476509343E+00  0.64942170968E-01 -0.23911246865E-01  0.14129893615E+00  0.44778671149E-01 0.  0.
         14    1    1    2    0    0  0.13315849577E-01  0.36050968565E-02  0.14418378411E-02  0.13870381021E-01  0.00000000000E+00 0.  1.
     999901    1    3    3    0    0  0.10144924385E+00 -0.68547267825E-01  0.22469409024E-01  0.88876068283E+00  0.88000000000E+00 0. -1.
        -11    1    4    4    0    0 -0.81322467246E-01  0.34750335547E-01  0.35917026394E-02  0.88510400228E-01  0.51100000000E-03 0.  1.
         11    1    4    4    0    0 -0.33442626184E-01  0.30191835422E-01 -0.27502949504E-01  0.52788535920E-01  0.51100000000E-03 0. -1.
</event>
<event>
 8    1  0.2190295E+004  0.1043930E+01  0.7957747E-01            NaN
         13   -1    0    0    0    0  0.00000000000E+00  0.00000000000E+00  0.74505805969E-08  0.10566000000E+00  0.10566000000E+00 0. -1.
     999900   -1    0    0    0    0 -0.00000000000E+00 -0.00000000000E+00 -0.74505805969E-08  0.93827000000E+00  0.93827000000E+00 0.  1.
     999902    2    1    2    0    0 -0.23475794726E-02  0.12930536973E-01  0.46550064765E-02  0.10299880130E+01  0.10298936489E+01 0.  0.
     999903    2    3    3    0    0 -0.55460891887E-01 -0.10409096682E+00  0.58452044057E-01  0.13902831833E+00  0.44736919204E-01 0.  0.
         14    1    1    2    0    0  0.23475794726E-02 -0.12930536973E-01 -0.46550064765E-02  0.13941986984E-01  0.00000000000E+00 0.  1.
     999901    1    3    3    0    0  0.53113312415E-01  0.11702150379E+00 -0.53797037580E-01  0.89095969469E+00  0.88000000000E+00 0. -1.
        -11    1    4    4    0    0 -0.50647163587E-01 -0.65567281825E-01  0.56243577624E-01  0.10013892735E+00  0.51100000000E-03 0.  1.
         11    1    4    4    0    0 -0.48137283000E-02 -0.38523684996E-01  0.22084664332E-02  0.38889390980E-01  0.51100000000E-03 0. -1.
</event>
<event>
 8    1  0.2190295E+004  0.1043930E+01  0.7957747E-01            NaN
         13   -1    0    0    0    0  0.00000000000E+00  0.00000000000E+00  0.74505805969E-08  0.10566000000E+00  0.10566000000E+00 0. -1.
     999900   -1    0    0    0    0 -0.00000000000E+00 -0.00000000000E+00 -0.74505805969E-08  0.93827000000E+00  0.93827000000E+00 0. -1.
     999902    2    1    2    0    0 -0.83142169627E-02 -0.89562376792E-02  0.58104973752E-02  0.10303984710E+01  0.10303096170E+01 0.  0.
     999903    2    3    3    0    0  0.12641023611E+00  0.30462747242E-01  0.20505358047E-01  0.13915188697E+00  0.45113758159E-01 0.  0.
         14    1    1    2    0    0  0.83142169627E-02  0.89562376792E-02 -0.58104973752E-02  0.13531528990E-01  0.00000000000E+00 0.  1.
     999901    1    3    3    0    0 -0.13472445308E+00 -0.39418984922E-01 -0.14694860672E-01  0.89124658404E+00  0.88000000000E+00 0. -1.
        -11    1    4    4    0    0  0.71236997901E-01  0.10915157721E-01  0.33049890497E-01  0.79286864744E-01  0.51100000000E-03 0. -1.
         11    1    4    4    0    0  0.55173238213E-01  0.19547589521E-01 -0.12544532450E-01  0.59865022228E-01  0.51100000000E-03 0.  1.
</event>
<event>
 8    1  0.2190295E+004  0.1043930E+01  0.7957747E-01            NaN
         13   -1    0    0    0    0  0.00000000000E+00  0.00000000000E+00  0.74505805969E-08  0.10566000000E+00  0.10566000000E+00 0.  1.
     999900   -1    0    0    0    0 -0.00000000000E+00 -0.00000000000E+00 -0.74505805969E-08  0.93827000000E+00  0.93827000000E+00 0. -1.
     999902    2    1    2    0    0  0.56681305623E-02  0.10380198542E-01 -0.96277861208E-02  0.10286797380E+01  0.10285666886E+01 0.  0.
     999903    2    3    3    0    0 -0.36876897527E-01  0.15120955555E-01  0.12331854270E+00  0.13766499033E+00  0.46428845793E-01 0.  0.
         14    1    1    2    0    0 -0.56681305623E-02 -0.10380198542E-01  0.96277861208E-02  0.15250262012E-01  0.00000000000E+00 0.  1.
     999901    1    3    3    0    0  0.42545028090E-01 -0.47407570133E-02 -0.13294632882E+00  0.89101474766E+00  0.88000000000E+00 0. -1.
        -11    1    4    4    0    0 -0.44336448557E-01  0.61560532827E-02  0.11478440504E+00  0.12320445781E+00  0.51100000000E-03 0.  1.
         11    1    4    4    0    0  0.74595510293E-02  0.89649022725E-02  0.85341376632E-02  0.14460532527E-01  0.51100000000E-03 0. -1.
</event>
<event>
 8    1  0.2190295E+004  0.1043930E+01  0.7957747E-01            NaN
         13   -1    0    0    0    0  0.00000000000E+00  0.00000000000E+00  0.74505805969E-08  0.10566000000E+00  0.10566000000E+00 0. -1.
     999900   -1    0    0    0    0 -0.00000000000E+00 -0.00000000000E+00 -0.74505805969E-08  0.93827000000E+00  0.93827000000E+00 0.  1.
     999902    2    1    2    0    0 -0.45771771179E-03  0.94590436245E-02 -0.11390438158E-01  0.10291169958E+01  0.10290103819E+01 0.  0.
     999903    2    3    3    0    0 -0.90537412395E-01 -0.27070518568E-01 -0.93169332975E-01  0.13999577351E+00  0.44592106631E-01 0.  0.
         14    1    1    2    0    0  0.45771771179E-03 -0.94590436245E-02  0.11390438158E-01  0.14813004193E-01  0.00000000000E+00 0.  1.
     999901    1    3    3    0    0  0.90079694683E-01  0.36529562192E-01  0.81778894817E-01  0.88912122230E+00  0.88000000000E+00 0. -1.
        -11    1    4    4    0    0 -0.55741109793E-02  0.77771248081E-02 -0.21390308908E-01  0.23438447467E-01  0.51100000000E-03 0.  1.
         11    1    4    4    0    0 -0.84963301415E-01 -0.34847643376E-01 -0.71779024067E-01  0.11655732604E+00  0.51100000000E-03 0. -1.
</event>
<event>
 8    1  0.2190295E+004  0.1043930E+01  0.7957747E-01            NaN
         13   -1    0    0    0    0  0.00000000000E+00  0.00000000000E+00  0.74505805969E-08  0.10566000000E+00  0.10566000000E+00 0.  1.
     999900   -1    0    0    0    0 -0.00000000000E+00 -0.00000000000E+00 -0.74505805969E-08  0.93827000000E+00  0.93827000000E+00 0.  1.
     999902    2    1    2    0    0 -0.42478933039E-02 -0.12237096328E-01  0.50555477204E-02  0.10300249762E+01  0.10299311151E+01 0.  0.
     999903    2    3    3    0    0 -0.13172091241E+00 -0.28685830391E-02 -0.19394905491E-01  0.14045487537E+00  0.44640588264E-01 0.  0.
         14    1    1    2    0    0  0.42478933039E-02  0.12237096328E-01 -0.50555477204E-02  0.13905023797E-01  0.00000000000E+00 0. -1.
     999901    1    3    3    0    0  0.12747301910E+00 -0.93685132885E-02  0.24450453212E-01  0.88957010084E+00  0.88000000000E+00 0. -1.
        -11    1    4    4    0    0 -0.12259525678E+00 -0.13878757832E-01 -0.11010047938E-01  0.12386968629E+00  0.51100000000E-03 0.  1.
         11    1    4    4    0    0 -0.91256556280E-02  0.11010174793E-01 -0.83848575532E-02  0.16585189079E-01  0.51100000000E-03 0. -1.
</event>
<event>
 8    1  0.2190295E+004  0.1043930E+01  0.7957747E-01            NaN
         13   -1    0    0    0    0  0.00000000000E+00  0.00000000000E+00  0.74505805969E-08  0.10566000000E+00  0.10566000000E+00 0. -1.
     999900   -1    0    0    0    0 -0.00000000000E+00 -0.00000000000E+00 -0.74505805969E-08  0.93827000000E+00  0.93827000000E+00 0. -1.
     999902    2    1    2    0    0  0.30014911027E-02 -0.93286325928E-02 -0.90442870803E-02  0.10305946536E+01  0.10305083738E+01 0.  0.
     999903    2    3    3    0    0 -0.98818727756E-01 -0.35302543434E-01  0.80463618227E-01  0.13983449164E+00  0.45473955915E-01 0.  0.
         14    1    1    2    0    0 -0.30014911027E-02  0.93286325928E-02  0.90442870803E-02  0.13335346403E-01  0.00000000000E+00 0. -1.
     999901    1    3    3    0    0  0.10182021886E+00  0.25973910841E-01 -0.89507905307E-01  0.89076016195E+00  0.88000000000E+00 0. -1.
        -11    1    4    4    0    0 -0.36098268591E-01 -0.12955573708E-01  0.41867072233E-02  0.38583954226E-01  0.51100000000E-03 0.  1.
         11    1    4    4    0    0 -0.62720459166E-01 -0.22346969726E-01  0.76276911004E-01  0.10125053742E+00  0.51100000000E-03 0. -1.
</event>
<event>
 8    1  0.2190295E+004  0.1043930E+01  0.7957747E-01            NaN
         13   -1    0    0    0    0  0.00000000000E+00  0.00000000000E+00  0.74505805969E-08  0.10566000000E+00  0.10566000000E+00 0.  1.
     999900   -1    0    0    0    0 -0.00000000000E+00 -0.00000000000E+00 -0.74505805969E-08  0.93827000000E+00  0.93827000000E+00 0. -1.
     999902    2    1    2    0    0 -0.30576829021E-03  0.12837086820E-01  0.66622529340E-02  0.10294638358E+01  0.10293621905E+01 0.  0.
     999903    2    3    3    0    0 -0.10882226163E+00 -0.24911750331E-01  0.71312380965E-01  0.13964338027E+00  0.44180742916E-01 0.  0.
         14    1    1    2    0    0  0.30576829021E-03 -0.12837086820E-01 -0.66622529340E-02  0.14466164192E-01  0.00000000000E+00 0. -1.
     999901    1    3    3    0    0  0.10851649334E+00  0.37748837151E-01 -0.64650128031E-01  0.88982045553E+00  0.88000000000E+00 0.  1.
        -11    1    4    4    0    0 -0.10767844542E+00 -0.25066284576E-01  0.55366083487E-01  0.12364720196E+00  0.51100000000E-03 0. -1.
         11    1    4    4    0    0 -0.11438162072E-02  0.15453424546E-03  0.15946297478E-01  0.15996178313E-01  0.51100000000E-03 0.  1.
</event>
<event>
 8    1  0.2190295E+004  0.1043930E+01  0.7957747E-01            NaN
         13   -1    0    0    0    0  0.00000000000E+00  0.00000000000E+00  0.74505805969E-08  0.10566000000E+00  0.10566000000E+00 0. -1.
     999900   -1    0    0    0    0 -0.00000000000E+00 -0.00000000000E+00 -0.74505805969E-08  0.93827000000E+00  0.93827000000E+00 0. -1.
     999902    2    1    2    0    0 -0.58576784955E-03  0.10219391048E-01  0.86870753560E-02  0.10305044886E+01  0.10304170305E+01 0.  0.
     999903    2    3    3    0    0 -0.36811742248E-01  0.38047010704E-01  0.12316180896E+00  0.14191506585E+00  0.46565817271E-01 0.  0.
         14    1    1    2    0    0  0.58576784955E-03 -0.10219391048E-01 -0.86870753560E-02  0.13425511372E-01  0.00000000000E+00 0.  1.
     999901    1    3    3    0    0  0.36225974399E-01 -0.27827619656E-01 -0.11447473361E+00  0.88858942278E+00  0.88000000000E+00 0. -1.
        -11    1    4    4    0    0 -0.57893326913E-02  0.21187004300E-01  0.92737956086E-01  0.95304748802E-01  0.51100000000E-03 0. -1.
         11    1    4    4    0    0 -0.31022409557E-01  0.16860006404E-01  0.30423852875E-01  0.46610317049E-01  0.51100000000E-03 0.  1.
</event>
<event>
 8    1  0.2190295E+004  0.1043930E+01  0.7957747E-01            NaN
         13   -1    0    0    0    0  0.00000000000E+00  0.00000000000E+00  0.74505805969E-08  0.10566000000E+00  0.10566000000E+00 0.  1.
     999900   -1    0    0    0    0 -0.00000000000E+00 -0.00000000000E+00 -0.74505805969E-08  0.93827000000E+00  0.93827000000E+00 0. -1.
     999902    2    1    2    0    0  0.47951691575E-02  0.10262202524E-01 -0.90724338357E-02  0.10294174019E+01  0.10293150984E+01 0.  0.
     999903    2    3    3    0    0  0.68244417293E-01 -0.34360197301E-01  0.10967155948E+00  0.13806051400E+00  0.34567772835E-01 0.  0.
         14    1    1    2    0    0 -0.47951691575E-02 -0.10262202524E-01  0.90724338357E-02  0.14512598099E-01  0.00000000000E+00 0.  1.
     999901    1    3    3    0    0 -0.63449248136E-01  0.44622399824E-01 -0.11874399331E+00  0.89135688790E+00  0.88000000000E+00 0. -1.
        -11    1    4    4    0    0  0.29368338690E-01 -0.23376885030E-03  0.57613172447E-01  0.64669101786E-01  0.51100000000E-03 0. -1.
         11    1    4    4    0    0  0.38876078603E-01 -0.34126428450E-01  0.52058387028E-01  0.73391412217E-01  0.51100000000E-03 0.  1.
</event>
<event>
 8    1  0.2190295E+004  0.1043930E+01  0.7957747E-01            NaN
         13   -1    0    0    0    0  0.00000000000E+00  0.00000000000E+00  0.74505805969E-08  0.10566000000E+00  0.10566000000E+00 0.  1.
     999900   -1    0    0    0    0 -0.00000000000E+00 -0.00000000000E+00 -0.74505805969E-08  0.93827000000E+00  0.93827000000E+00 0. -1.
     999902    2    1    2    0    0  0.28926872436E-02 -0.13208226842E-01  0.33980937124E-02  0.10299882664E+01  0.10298939057E+01 0.  0.
     999903    2    3    3    0    0  0.79987061063E-01 -0.93521120146E-01  0.53581157980E-01  0.14155591484E+00  0.44977846594E-01 0.  0.
         14    1    1    2    0    0 -0.28926872436E-02  0.13208226842E-01 -0.33980937124E-02  0.13941733632E-01  0.00000000000E+00 0.  1.
     999901    1    3    3    0    0 -0.77094373820E-01  0.80312893305E-01 -0.50183064267E-01  0.88843235153E+00  0.88000000000E+00 0. -1.
        -11    1    4    4    0    0  0.53157896107E-01 -0.80302716136E-01  0.56242420997E-01  0.11152470210E+00  0.51100000000E-03 0.  1.
         11    1    4    4    0    0  0.26829164956E-01 -0.13218404010E-01 -0.26612630172E-02  0.30031212740E-01  0.51100000000E-03 0. -1.
</event>
<event>
 8    1  0.2190295E+004  0.1043930E+01  0.7957747E-01            NaN
         13   -1    0    0    0    0  0.00000000000E+00  0.00000000000E+00  0.74505805969E-08  0.10566000000E+00  0.10566000000E+00 0.  1.
     999900   -1    0    0    0    0 -0.00000000000E+00 -0.00000000000E+00 -0.74505805969E-08  0.93827000000E+00  0.93827000000E+00 0.  1.
     999902    2    1    2    0    0 -0.63741511725E-02 -0.22866574200E-02  0.11487048453E-01  0.10305954251E+01  0.10305091554E+01 0.  0.
     999903    2    3    3    0    0  0.96285852892E-02 -0.89434453546E-01  0.99926731748E-01  0.14173525415E+00  0.44858660417E-01 0.  0.
         14    1    1    2    0    0  0.63741511725E-02  0.22866574200E-02 -0.11487048453E-01  0.13334574889E-01  0.00000000000E+00 0.  1.
     999901    1    3    3    0    0 -0.16002736462E-01  0.87147796127E-01 -0.88439683295E-01  0.88886017096E+00  0.88000000000E+00 0. -1.
        -11    1    4    4    0    0 -0.14681896970E-01 -0.57850274246E-01  0.69351171276E-01  0.91498953039E-01  0.51100000000E-03 0.  1.
         11    1    4    4    0    0  0.24310482260E-01 -0.31584179300E-01  0.30575560472E-01  0.50236301108E-01  0.51100000000E-03 0. -1.
</event>
<event>
 8    1  0.2190295E+004  0.1043930E+01  0.7957747E-01            NaN
         13   -1    0    0    0    0  0.00000000000E+00  0.00000000000E+00  0.74505805969E-08  0.10566000000E+00  0.10566000000E+00 0.  1.
     999900   -1    0    0    0    0 -0.00000000000E+00 -0.00000000000E+00 -0.74505805969E-08  0.93827000000E+00  0.93827000000E+00 0.  1.
     999902    2    1    2    0    0 -0.13427440697E-01 -0.30250673878E-02 -0.12114420880E-02  0.10301128082E+01  0.10300201371E+01 0.  0.
     999903    2    3    3    0    0 -0.73351211676E-01  0.64125011506E-01  0.91510708510E-01  0.14067625140E+00  0.43854082827E-01 0.  0.
         14    1    1    2    0    0  0.13427440697E-01  0.30250673878E-02  0.12114420880E-02  0.13817191766E-01  0.00000000000E+00 0. -1.
     999901    1    3    3    0    0  0.59923770979E-01 -0.67150078894E-01 -0.92722150598E-01  0.88943655684E+00  0.88000000000E+00 0.  1.
        -11    1    4    4    0    0 -0.59367926369E-01  0.57684127099E-01  0.50737909982E-01  0.97090709292E-01  0.51100000000E-03 0.  1.
         11    1    4    4    0    0 -0.13983285306E-01  0.64408844074E-02  0.40772798527E-01  0.43585542106E-01  0.51100000000E-03 0. -1.
</event>
<event>
 8    1  0.2190295E+004  0.1043930E+01  0.7957747E-01            NaN
         13   -1    0    0    0    0  0.00000000000E+00  0.00000000000E+00  0.74505805969E-08  0.10566000000E+00  0.10566000000E+00 0.  1.
     999900   -1    0    0    0    0 -0.00000000000E+00 -0.00000000000E+00 -0.74505805969E-08  0.93827000000E+00  0.93827000000E+00 0.  1.
     999902    2    1    2    0    0  0.13981795612E-02 -0.11204333493E-01 -0.78656268779E-02  0.10301691831E+01  0.10300772717E+01 0.  0.
     999903    2    3    3    0    0 -0.63273976352E-01 -0.11610455522E+00  0.20111794762E-01  0.14114202921E+00  0.45085743787E-01 0.  0.
         14    1    1    2    0    0 -0.13981795612E-02  0.11204333493E-01  0.78656268779E-02  0.13760816883E-01  0.00000000000E+00 0.  1.
     999901    1    3    3    0    0  0.64672155914E-01  0.10490022173E+00 -0.27977421640E-01  0.88902715391E+00  0.88000000000E+00 0. -1.
        -11    1    4    4    0    0 -0.35184791182E-01 -0.37474911411E-01  0.25670630285E-01  0.57459384751E-01  0.51100000000E-03 0. -1.
         11    1    4    4    0    0 -0.28089185171E-01 -0.78629643812E-01 -0.55588355226E-02  0.83682644454E-01  0.51100000000E-03 0.  1.
</event>
<event>
 8    1  0.2190295E+004  0.1043930E+01  0.7957747E-01            NaN
         13   -1    0    0    0    0  0.00000000000E+00  0.00000000000E+00  0.74505805969E-08  0.10566000000E+00  0.10566000000E+00 0.  1.
     999900   -1    0    0    0    0 -0.00000000000E+00 -0.00000000000E+00 -0.74505805969E-08  0.93827000000E+00  0.93827000000E+00 0. -1.
     999902    2    1    2    0    0  0.44287934417E-02 -0.11573559308E-01  0.67595099219E-02  0.10298143186E+01  0.10297175721E+01 0.  0.
     999903    2    3    3    0    0  0.12275053874E+00 -0.52608152232E-01 -0.21184631425E-02  0.14090336041E+00  0.44877128307E-01 0.  0.
         14    1    1    2    0    0 -0.44287934417E-02  0.11573559308E-01 -0.67595099219E-02  0.14115681379E-01  0.00000000000E+00 0. -1.
     999901    1    3    3    0    0 -0.11832174530E+00  0.41034592923E-01  0.88779730644E-02  0.88891095821E+00  0.88000000000E+00 0.  1.
        -11    1    4    4    0    0  0.36277478433E-01 -0.38867614210E-01  0.24377371654E-02  0.53225469085E-01  0.51100000000E-03 0. -1.
         11    1    4    4    0    0  0.86473060309E-01 -0.13740538021E-01 -0.45562003079E-02  0.87677891322E-01  0.51100000000E-03 0.  1.
</event>
<event>
 8    1  0.2190295E+004  0.1043930E+01  0.7957747E-01            NaN
         13   -1    0    0    0    0  0.00000000000E+00  0.00000000000E+00  0.74505805969E-08  0.10566000000E+00  0.10566000000E+00 0.  1.
     999900   -1    0    0    0    0 -0.00000000000E+00 -0.00000000000E+00 -0.74505805969E-08  0.93827000000E+00  0.93827000000E+00 0.  1.
     999902    2    1    2    0    0  0.59000501261E-02  0.11513741270E-01 -0.46525492306E-02  0.10301814348E+01  0.10300896882E+01 0.  0.
     999903    2    3    3    0    0 -0.17046098979E-01 -0.10089540682E+00 -0.84337965994E-01  0.13916397824E+00  0.42228754700E-01 0.  0.
         14    1    1    2    0    0 -0.59000501261E-02 -0.11513741270E-01  0.46525492306E-02  0.13748565156E-01  0.00000000000E+00 0.  1.
     999901    1    3    3    0    0  0.22946149106E-01  0.11240914809E+00  0.79685416763E-01  0.89101745661E+00  0.88000000000E+00 0. -1.
        -11    1    4    4    0    0  0.79361833400E-02 -0.64384597683E-01 -0.38407148122E-01  0.75390513811E-01  0.51100000000E-03 0. -1.
         11    1    4    4    0    0 -0.24982282319E-01 -0.36510809134E-01 -0.45930817872E-01  0.63773464427E-01  0.51100000000E-03 0.  1.
</event>
<event>
 8    1  0.2190295E+004  0.1043930E+01  0.7957747E-01            NaN
         13   -1    0    0    0    0  0.00000000000E+00  0.00000000000E+00  0.74505805969E-08  0.10566000000E+00  0.10566000000E+00 0.  1.
     999900   -1    0    0    0    0 -0.00000000000E+00 -0.00000000000E+00 -0.74505805969E-08  0.93827000000E+00  0.93827000000E+00 0. -1.
     999902    2    1    2    0    0 -0.11515875869E-01 -0.86200955716E-02  0.53145134447E-03  0.10295354217E+01  0.10294347870E+01 0.  0.
     999903    2    3    3    0    0  0.55876881200E-01 -0.51463179165E-01 -0.10751255154E+00  0.13933835356E+00  0.45667749804E-01 0.  0.
         14    1    1    2    0    0  0.11515875869E-01  0.86200955716E-02 -0.53145134447E-03  0.14394578328E-01  0.00000000000E+00 0.  1.
     999901    1    3    3    0    0 -0.67392757069E-01  0.42843083594E-01  0.10804400288E+00  0.89019706811E+00  0.88000000000E+00 0.  1.
        -11    1    4    4    0    0  0.14880770012E-01 -0.11926201691E-01 -0.16779444302E-02  0.19150671566E-01  0.51100000000E-03 0. -1.
         11    1    4    4    0    0  0.40996111187E-01 -0.39536977474E-01 -0.10583460711E+00  0.12018768199E+00  0.51100000000E-03 0.  1.
</event>
<event>
 8    1  0.2190295E+004  0.1043930E+01  0.7957747E-01            NaN
         13   -1    0    0    0    0  0.00000000000E+00  0.00000000000E+00  0.74505805969E-08  0.10566000000E+00  0.10566000000E+00 0.  1.
     999900   -1    0    0    0    0 -0.00000000000E+00 -0.00000000000E+00 -0.74505805969E-08  0.93827000000E+00  0.93827000000E+00 0. -1.
     999902    2    1    2    0    0 -0.96701260393E-02  0.64388976410E-02 -0.74301292200E-02  0.10301395119E+01  0.10300472011E+01 0.  0.
     999903    2    3    3    0    0  0.10066474896E+00 -0.51338295076E-01  0.65840595679E-01  0.13835445502E+00  0.45143758807E-01 0.  0.
         14    1    1    2    0    0  0.96701260393E-02 -0.64388976410E-02  0.74301292200E-02  0.13790488051E-01  0.00000000000E+00 0. -1.
     999901    1    3    3    0    0 -0.11033487500E+00  0.57777192717E-01 -0.73270724899E-01  0.89178505693E+00  0.88000000000E+00 0. -1.
        -11    1    4    4    0    0  0.77828086688E-01 -0.55308852581E-01  0.39677172402E-01  0.10339641861E+00  0.51100000000E-03 0. -1.
         11    1    4    4    0    0  0.22836662273E-01  0.39705575048E-02  0.26163423277E-01  0.34958036404E-01  0.51100000000E-03 0.  1.
</event>
<event>
 8    1  0.2190295E+004  0.1043930E+01  0.7957747E-01            NaN
         13   -1    0    0    0    0  0.00000000000E+00  0.00000000000E+00  0.74505805969E-08  0.10566000000E+00  0.10566000000E+00 0.  1.
     999900   -1    0    0    0    0 -0.00000000000E+00 -0.00000000000E+00 -0.74505805969E-08  0.93827000000E+00  0.93827000000E+00 0. -1.
     999902    2    1    2    0    0  0.63176445296E-02  0.11447976670E-01 -0.42882420798E-02  0.10301692652E+01  0.10300773549E+01 0.  0.
     999903    2    3    3    0    0  0.11465426520E+00 -0.17392896498E-01 -0.65943711824E-01  0.14091676096E+00  0.45396552863E-01 0.  0.
         14    1    1    2    0    0 -0.63176445296E-02 -0.11447976670E-01  0.42882420798E-02  0.13760734805E-01  0.00000000000E+00 0. -1.
     999901    1    3    3    0    0 -0.10833662067E+00  0.28840873168E-01  0.61655469744E-01  0.88925250424E+00  0.88000000000E+00 0.  1.
        -11    1    4    4    0    0  0.69721348814E-01 -0.85262215942E-02 -0.13928955529E-01  0.71610333460E-01  0.51100000000E-03 0.  1.
         11    1    4    4    0    0  0.44932916388E-01 -0.88666749036E-02 -0.52014756294E-01  0.69306427497E-01  0.51100000000E-03 0. -1.
</event>
<event>
 8    1  0.2190295E+004  0.1043930E+01  0.7957747E-01            NaN
         13   -1    0    0    0    0  0.00000000000E+00  0.00000000000E+00  0.74505805969E-08  0.10566000000E+00  0.10566000000E+00 0. -1.
     999900   -1    0    0    0    0 -0.00000000000E+00 -0.00000000000E+00 -0.74505805969E-08  0.93827000000E+00  0.93827000000E+00 0. -1.
     999902    2    1    2    0    0  0.66077307699E-04  0.12517864916E-01  0.73893820720E-02  0.10293936911E+01  0.10292910507E+01 0.  0.
     999903    2    3    3    0    0 -0.12436572412E+00 -0.40507530236E-01 -0.12902468550E-01  0.13882829491E+00  0.44711614052E-01 0.  0.
         14    1    1    2    0    0 -0.66077307699E-04 -0.12517864916E-01 -0.73893820720E-02  0.14536308874E-01  0.00000000000E+00 0.  1.
     999901    1    3    3    0    0  0.12443180143E+00  0.53025395152E-01  0.20291850622E-01  0.89056539622E+00  0.88000000000E+00 0.  1.
        -11    1    4    4    0    0 -0.14711265467E-01 -0.15770721108E-01 -0.15205925298E-01  0.26393526879E-01  0.51100000000E-03 0.  1.
         11    1    4    4    0    0 -0.10965445865E+00 -0.24736809128E-01  0.23034567484E-02  0.11243476803E+00  0.51100000000E-03 0. -1.
</event>
<event>
 8    1  0.2190295E+004  0.1043930E+01  0.7957747E-01            NaN
         13   -1    0    0    0    0  0.00000000000E+00  0.00000000000E+00  0.74505805969E-08  0.10566000000E+00  0.10566000000E+00 0.  1.
     999900   -1    0    0    0    0 -0.00000000000E+00 -0.00000000000E+00 -0.74505805969E-08  0.93827000000E+00  0.93827000000E+00 0.  1.
     999902    2    1    2    0    0 -0.13012475744E-01 -0.12654387848E-02  0.29036503543E-02  0.10305375751E+01  0.10304505503E+01 0.  0.
     999903    2    3    3    0    0  0.12369226979E+00 -0.92221323453E-02 -0.43140722331E-01  0.13875756818E+00  0.44807538128E-01 0.  0.
         14    1    1    2    0    0  0.13012475744E-01  0.12654387848E-02 -0.29036503543E-02  0.13392424937E-01  0.00000000000E+00 0.  1.
     999901    1    3    3    0    0 -0.13670474553E+00  0.79566935605E-02  0.46044372685E-01  0.89178000688E+00  0.88000000000E+00 0. -1.
        -11    1    4    4    0    0  0.89355794222E-01  0.17580087135E-02 -0.10258296792E-01  0.89961337973E-01  0.51100000000E-03 0. -1.
         11    1    4    4    0    0  0.34336475566E-01 -0.10980141059E-01 -0.32882425539E-01  0.48796230206E-01  0.51100000000E-03 0.  1.
</event>
<event>
 8    1  0.2190295E+004  0.1043930E+01  0.7957747E-01            NaN
         13   -1    0    0    0    0  0.00000000000E+00  0.00000000000E+00  0.74505805969E-08  0.10566000000E+00  0.10566000000E+00 0. -1.
     999900   -1    0    0    0    0 -0.00000000000E+00 -0.00000000000E+00 -0.74505805969E-08  0.93827000000E+00  0.93827000000E+00 0.  1.
     999902    2    1    2    0    0  0.10196241278E-01 -0.12047819961E-01  0.77330965186E-03  0.10281277435E+01  0.10280062965E+01 0.  0.
     999903    2    3    3    0    0 -0.25137113352E-01 -0.11982423289E-02 -0.12786997865E+00  0.13800682201E+00  0.45407501894E-01 0.  0.
         14    1    1    2    0    0 -0.10196241278E-01  0.12047819961E-01 -0.77330965186E-03  0.15802256479E-01  0.00000000000E+00 0. -1.
     999901    1    3    3    0    0  0.35333354630E-01 -0.10849577632E-01  0.12864328831E+00  0.89012092151E+00  0.88000000000E+00 0. -1.
        -11    1    4    4    0    0 -0.95912415225E-02  0.16838111208E-01 -0.21268468521E-01  0.28777122462E-01  0.51100000000E-03 0. -1.
         11    1    4    4    0    0 -0.15545871830E-01 -0.18036353537E-01 -0.10660151013E+00  0.10922969955E+00  0.51100000000E-03 0.  1.
</event>
<event>
 8    1  0.2190295E+004  0.1043930E+01  0.7957747E-01            NaN
         13   -1    0    0    0    0  0.00000000000E+00  0.00000000000E+00  0.74505805969E-08  0.10566000000E+00  0.10566000000E+00 0. -1.
     999900   -1    0    0    0    0 -0.00000000000E+00 -0.00000000000E+00 -0.74505805969E-08  0.93827000000E+00  0.93827000000E+00 0.  1.
     999902    2    1    2    0    0  0.47625324453E-02 -0.20691512215E-02 -0.13169948613E-01  0.10297733532E+01  0.10296760405E+01 0.  0.
     999903    2    3    3    0    0  0.80363993738E-01  0.96699600768E-01 -0.43566642708E-01  0.14050691038E+00  0.45110478045E-01 0.  0.
         14    1    1    2    0    0 -0.47625324453E-02  0.20691512215E-02  0.13169948613E-01  0.14156646797E-01  0.00000000000E+00 0. -1.
     999901    1    3    3    0    0 -0.75601461293E-01 -0.98768751989E-01  0.30396694094E-01  0.88926644282E+00  0.88000000000E+00 0. -1.
        -11    1    4    4    0    0  0.13039873663E-01  0.23279078638E-02  0.58480448552E-02  0.14488554441E-01  0.51100000000E-03 0. -1.
         11    1    4    4    0    0  0.67324120075E-01  0.94371692904E-01 -0.49414687563E-01  0.12601835594E+00  0.51100000000E-03 0.  1.
</event>
<event>
 8    1  0.2190295E+004  0.1043930E+01  0.7957747E-01            NaN
         13   -1    0    0    0    0  0.00000000000E+00  0.00000000000E+00  0.74505805969E-08  0.10566000000E+00  0.10566000000E+00 0.  1.
     999900   -1    0    0    0    0 -0.00000000000E+00 -0.00000000000E+00 -0.74505805969E-08  0.93827000000E+00  0.93827000000E+00 0.  1.
     999902    2    1    2    0    0  0.11634726451E-01 -0.67779914871E-02 -0.39545300138E-02  0.10298962430E+01  0.10298006239E+01 0.  0.
     999903    2    3    3    0    0 -0.29438107451E-01 -0.12506664662E+00  0.34165496441E-01  0.14021522148E+00  0.44550633215E-01 0.  0.
         14    1    1    2    0    0 -0.11634726451E-01  0.67779914871E-02  0.39545300138E-02  0.14033757010E-01  0.00000000000E+00 0. -1.
     999901    1    3    3    0    0  0.41072833903E-01  0.11828865513E+00 -0.38120026455E-01  0.88968102151E+00  0.88000000000E+00 0. -1.
        -11    1    4    4    0    0 -0.19879793815E-01 -0.10030527612E+00  0.44769666020E-01  0.11162857491E+00  0.51100000000E-03 0.  1.
         11    1    4    4    0    0 -0.95583136366E-02 -0.24761370502E-01 -0.10604169578E-01  0.28586646571E-01  0.51100000000E-03 0. -1.
</event>
<event>
 8    1  0.2190295E+004  0.1043930E+01  0.7957747E-01            NaN
         13   -1    0    0    0    0  0.00000000000E+00  0.00000000000E+00  0.74505805969E-08  0.10566000000E+00  0.10566000000E+00 0. -1.
     999900   -1    0    0    0    0 -0.00000000000E+00 -0.00000000000E+00 -0.74505805969E-08  0.93827000000E+00  0.93827000000E+00 0.  1.
     999902    2    1    2    0    0  0.11204367701E-01  0.75757252512E-02 -0.30269802407E-02  0.10300702714E+01  0.10299770249E+01 0.  0.
     999903    2    3    3    0    0  0.42024161332E-01  0.78407772675E-01 -0.99473972633E-01  0.14143701688E+00  0.46856691743E-01 0.  0.
         14    1    1    2    0    0 -0.11204367701E-01 -0.75757252512E-02  0.30269802407E-02  0.13859728643E-01  0.00000000000E+00 0. -1.
     999901    1    3    3    0    0 -0.30819793631E-01 -0.70832047423E-01  0.96446992392E-01  0.88863325448E+00  0.88000000000E+00 0. -1.
        -11    1    4    4    0    0  0.22930054459E-01  0.19836309677E-01 -0.83694987333E-02  0.31457530245E-01  0.51100000000E-03 0.  1.
         11    1    4    4    0    0  0.19094106873E-01  0.58571462997E-01 -0.91104473899E-01  0.10997948663E+00  0.51100000000E-03 0. -1.
</event>
<event>
 8    1  0.2190295E+004  0.1043930E+01  0.7957747E-01            NaN
         13   -1    0    0    0    0  0.00000000000E+00  0.00000000000E+00  0.74505805969E-08  0.10566000000E+00  0.10566000000E+00 0. -1.
     999900   -1    0    0    0    0 -0.00000000000E+00 -0.00000000000E+00 -0.74505805969E-08  0.93827000000E+00  0.93827000000E+00 0. -1.
     999902    2    1    2    0    0 -0.31486206281E-02  0.12221204550E-01  0.55759097224E-02  0.10301328111E+01  0.10300404099E+01 0.  0.
     999903    2    3    3    0    0  0.12929821752E+00  0.25415496967E-01 -0.81202534049E-02  0.14001830207E+00  0.46639145140E-01 0.  0.
         14    1    1    2    0    0  0.31486206281E-02 -0.12221204550E-01 -0.55759097224E-02  0.13797188908E-01  0.00000000000E+00 0.  1.
     999901    1    3    3    0    0 -0.13244683815E+00 -0.13194292417E-01  0.13696163127E-01  0.89011450902E+00  0.88000000000E+00 0. -1.
        -11    1    4    4    0    0  0.86623469472E-01  0.23827902656E-02 -0.22319599492E-01  0.89485913949E-01  0.51100000000E-03 0. -1.
         11    1    4    4    0    0  0.42674748048E-01  0.23032706702E-01  0.14199346087E-01  0.50532388121E-01  0.51100000000E-03 0.  1.
</event>
<event>
 8    1  0.2190295E+004  0.1043930E+01  0.7957747E-01            NaN
         13   -1    0    0    0    0  0.00000000000E+00  0.00000000000E+00  0.74505805969E-08  0.10566000000E+00  0.10566000000E+00 0.  1.
     999900   -1    0    0    0    0 -0.00000000000E+00 -0.00000000000E+00 -0.74505805969E-08  0.93827000000E+00  0.93827000000E+00 0.  1.
     999902    2    1    2    0    0 -0.94249290431E-02 -0.45970188842E-03 -0.85196392686E-02  0.10312168231E+01  0.10311384540E+01 0.  0.
     999903    2    3    3    0    0  0.54142278992E-01  0.32585964404E-01 -0.11462296574E+00  0.14195267682E+00  0.54944578716E-01 0.  0.
         14    1    1    2    0    0  0.94249290431E-02  0.45970188842E-03  0.85196392686E-02  0.12713176887E-01  0.00000000000E+00 0.  1.
     999901    1    3    3    0    0 -0.63567208035E-01 -0.33045666293E-01  0.10610332647E+00  0.88926414630E+00  0.88000000000E+00 0. -1.
        -11    1    4    4    0    0  0.99740591046E-02  0.35885799098E-01 -0.68702140964E-01  0.78150609249E-01  0.51100000000E-03 0.  1.
         11    1    4    4    0    0  0.44168219888E-01 -0.32998346935E-02 -0.45920824775E-01  0.63802067569E-01  0.51100000000E-03 0. -1.
</event>
<event>
 8    1  0.2190295E+004  0.1043930E+01  0.7957747E-01            NaN
         13   -1    0    0    0    0  0.00000000000E+00  0.00000000000E+00  0.74505805969E-08  0.10566000000E+00  0.10566000000E+00 0. -1.
     999900   -1    0    0    0    0 -0.00000000000E+00 -0.00000000000E+00 -0.74505805969E-08  0.93827000000E+00  0.93827000000E+00 0. -1.
     999902    2    1    2    0    0  0.10362795237E-01  0.80362143481E-03  0.88613596284E-02  0.10302714120E+01  0.10301808702E+01 0.  0.
     999903    2    3    3    0    0  0.12056280810E+00 -0.41264004154E-01 -0.40979995125E-01  0.14100323611E+00  0.44322047083E-01 0.  0.
         14    1    1    2    0    0 -0.10362795237E-01 -0.80362143481E-03 -0.88613596284E-02  0.13658588031E-01  0.00000000000E+00 0.  1.
     999901    1    3    3    0    0 -0.11020001286E+00  0.42067625589E-01  0.49841354753E-01  0.88926817586E+00  0.88000000000E+00 0.  1.
        -11    1    4    4    0    0  0.94515012171E-01 -0.45239684660E-01 -0.18589389482E-01  0.10642153502E+00  0.51100000000E-03 0.  1.
         11    1    4    4    0    0  0.26047795925E-01  0.39756805067E-02 -0.22390605642E-01  0.34581701087E-01  0.51100000000E-03 0. -1.
</event>
<event>
 8    1  0.2190295E+004  0.1043930E+01  0.7957747E-01            NaN
         13   -1    0    0    0    0  0.00000000000E+00  0.00000000000E+00  0.74505805969E-08  0.10566000000E+00  0.10566000000E+00 0. -1.
     999900   -1    0    0    0    0 -0.00000000000E+00 -0.00000000000E+00 -0.74505805969E-08  0.93827000000E+00  0.93827000000E+00 0. -1.
     999902    2    1    2    0    0  0.95362434871E-02 -0.77355780884E-02 -0.56929038743E-02  0.10303952941E+01  0.10303063981E+01 0.  0.
     999903    2    3    3    0    0  0.57771372661E-01  0.13627881879E-01 -0.12039503909E+00  0.14138483024E+00  0.44401059899E-01 0.  0.
         14    1    1    2    0    0 -0.95362434871E-02  0.77355780884E-02  0.56929038743E-02  0.13534705860E-01  0.00000000000E+00 0.  1.
     999901    1    3    3    0    0 -0.48235129174E-01 -0.21363459967E-01  0.11470213521E+00  0.88901046390E+00  0.88000000000E+00 0.  1.
        -11    1    4    4    0    0  0.13101346346E-01 -0.50513072721E-02 -0.70388145526E-01  0.71776828663E-01  0.51100000000E-03 0. -1.
         11    1    4    4    0    0  0.44670026315E-01  0.18679189151E-01 -0.50006893561E-01  0.69608001573E-01  0.51100000000E-03 0.  1.
</event>
<event>
 8    1  0.2190295E+004  0.1043930E+01  0.7957747E-01            NaN
         13   -1    0    0    0    0  0.00000000000E+00  0.00000000000E+00  0.74505805969E-08  0.10566000000E+00  0.10566000000E+00 0. -1.
     999900   -1    0    0    0    0 -0.00000000000E+00 -0.00000000000E+00 -0.74505805969E-08  0.93827000000E+00  0.93827000000E+00 0.  1.
     999902    2    1    2    0    0  0.10126988589E-01  0.76188548978E-02 -0.31687814959E-02  0.10308669213E+01  0.10307841508E+01 0.  0.
     999903    2    3    3    0    0  0.62264799950E-02 -0.16976004346E-01 -0.13247354575E+00  0.14106927967E+00  0.44992750167E-01 0.  0.
         14    1    1    2    0    0 -0.10126988589E-01 -0.76188548978E-02  0.31687814959E-02  0.13063078657E-01  0.00000000000E+00 0.  1.
     999901    1    3    3    0    0  0.39005085938E-02  0.24594859243E-01  0.12930476425E+00  0.88979764167E+00  0.88000000000E+00 0. -1.
        -11    1    4    4    0    0  0.56078440985E-02 -0.20595492050E-01 -0.22445395306E-01  0.30978687830E-01  0.51100000000E-03 0. -1.
         11    1    4    4    0    0  0.61863589650E-03  0.36194877047E-02 -0.11002815044E+00  0.11009059184E+00  0.51100000000E-03 0.  1.
</event>
<event>
 8    1  0.2190295E+004  0.1043930E+01  0.7957747E-01            NaN
         13   -1    0    0    0    0  0.00000000000E+00  0.00000000000E+00  0.74505805969E-08  0.10566000000E+00  0.10566000000E+00 0.  1.
     999900   -1    0    0    0    0 -0.00000000000E+00 -0.00000000000E+00 -0.74505805969E-08  0.93827000000E+00  0.93827000000E+00 0.  1.
     999902    2    1    2    0    0  0.89287707690E-02 -0.10783085057E-01  0.31774395623E-02  0.10295740259E+01  0.10294739340E+01 0.  0.
     999903    2    3    3    0    0 -0.42211423029E-01  0.10929687533E+00 -0.56387577925E-01  0.13795611017E+00  0.46094665610E-01 0.  0.
         14    1    1    2    0    0 -0.89287707690E-02  0.10783085057E-01 -0.31774395623E-02  0.14355974121E-01  0.00000000000E+00 0. -1.
     999901    1    3    3    0    0  0.51140193798E-01 -0.12007996039E+00  0.59565017487E-01  0.89161791571E+00  0.88000000000E+00 0. -1.
        -11    1    4    4    0    0 -0.50897259322E-01  0.75942608232E-01 -0.41832689217E-01  0.10053877739E+00  0.51100000000E-03 0. -1.
         11    1    4    4    0    0  0.86858362935E-02  0.33354267097E-01 -0.14554888708E-01  0.37417332775E-01  0.51100000000E-03 0.  1.
</event>
<event>
 8    1  0.2190295E+004  0.1043930E+01  0.7957747E-01            NaN
         13   -1    0    0    0    0  0.00000000000E+00  0.00000000000E+00  0.74505805969E-08  0.10566000000E+00  0.10566000000E+00 0.  1.
     999900   -1    0    0    0    0 -0.00000000000E+00 -0.00000000000E+00 -0.74505805969E-08  0.93827000000E+00  0.93827000000E+00 0.  1.
     999902    2    1    2    0    0 -0.14699088425E-01  0.58908640331E-03 -0.78963958053E-03  0.10291979345E+01  0.10290924908E+01 0.  0.
     999903    2    3    3    0    0  0.93774295602E-01 -0.43911366483E-01  0.79164059646E-01  0.13782856136E+00  0.44810014109E-01 0.  0.
         14    1    1    2    0    0  0.14699088425E-01 -0.58908640331E-03  0.78963958053E-03  0.14732065503E-01  0.00000000000E+00 0.  1.
     999901    1    3    3    0    0 -0.10847338403E+00  0.44500452886E-01 -0.79953699227E-01  0.89136937314E+00  0.88000000000E+00 0.  1.
        -11    1    4    4    0    0  0.71293676775E-01 -0.52175849785E-01  0.56634492395E-01  0.10494205305E+00  0.51100000000E-03 0.  1.
         11    1    4    4    0    0  0.22480618827E-01  0.82644833020E-02  0.22529567251E-01  0.32886508307E-01  0.51100000000E-03 0. -1.
</event>
<event>
 8    1  0.2190295E+004  0.1043930E+01  0.7957747E-01            NaN
         13   -1    0    0    0    0  0.00000000000E+00  0.00000000000E+00  0.74505805969E-08  0.10566000000E+00  0.10566000000E+00 0. -1.
     999900   -1    0    0    0    0 -0.00000000000E+00 -0.00000000000E+00 -0.74505805969E-08  0.93827000000E+00  0.93827000000E+00 0. -1.
     999902    2    1    2    0    0  0.84431006797E-02 -0.54841643462E-02 -0.74402046145E-02  0.10314112679E+01  0.10313352922E+01 0.  0.
     999903    2    3    3    0    0  0.52709167633E-01 -0.72308405659E-01  0.99054424419E-01  0.14137415078E+00  0.46562964148E-01 0.  0.
         14    1    1    2    0    0 -0.84431006797E-02  0.54841643462E-02  0.74402046145E-02  0.12518732059E-01  0.00000000000E+00 0. -1.
     999901    1    3    3    0    0 -0.44266066953E-01  0.66824241313E-01 -0.10649462903E+00  0.89003711716E+00  0.88000000000E+00 0. -1.
        -11    1    4    4    0    0  0.58079020614E-01 -0.60071016520E-01  0.68592734118E-01  0.10810607733E+00  0.51100000000E-03 0. -1.
         11    1    4    4    0    0 -0.53698529810E-02 -0.12237389140E-01  0.30461690301E-01  0.33268073449E-01  0.51100000000E-03 0.  1.
</event>
<event>
 8    1  0.2190295E+004  0.1043930E+01  0.7957747E-01            NaN
         13   -1    0    0    0    0  0.00000000000E+00  0.00000000000E+00  0.74505805969E-08  0.10566000000E+00  0.10566000000E+00 0. -1.
     999900   -1    0    0    0    0 -0.00000000000E+00 -0.00000000000E+00 -0.74505805969E-08  0.93827000000E+00  0.93827000000E+00 0. -1.
     999902    2    1    2    0    0  0.86555038908E-02 -0.24168437634E-03  0.11853703730E-01  0.10292505432E+01  0.10291458567E+01 0.  0.
     999903    2    3    3    0    0  0.37931567477E-01 -0.72999021111E-01  0.10517694730E+00  0.14084751209E+00  0.44812615670E-01 0.  0.
         14    1    1    2    0    0 -0.86555038908E-02  0.24168437634E-03 -0.11853703730E-01  0.14679456770E-01  0.00000000000E+00 0.  1.
     999901    1    3    3    0    0 -0.29276063586E-01  0.72757336734E-01 -0.93323243574E-01  0.88840303114E+00  0.88000000000E+00 0. -1.
        -11    1    4    4    0    0 -0.26948473364E-02 -0.41688742858E-01  0.39323642147E-01  0.57374414471E-01  0.51100000000E-03 0.  1.
         11    1    4    4    0    0  0.40626414813E-01 -0.31310278253E-01  0.65853305157E-01  0.83473097618E-01  0.51100000000E-03 0. -1.
</event>
<event>
 8    1  0.2190295E+004  0.1043930E+01  0.7957747E-01            NaN
         13   -1    0    0    0    0  0.00000000000E+00  0.00000000000E+00  0.74505805969E-08  0.10566000000E+00  0.10566000000E+00 0. -1.
     999900   -1    0    0    0    0 -0.00000000000E+00 -0.00000000000E+00 -0.74505805969E-08  0.93827000000E+00  0.93827000000E+00 0.  1.
     999902    2    1    2    0    0 -0.13466963429E-01  0.51428403868E-02  0.57753670847E-03  0.10295028915E+01  0.10294017982E+01 0.  0.
     999903    2    3    3    0    0  0.52418100206E-01  0.99347594925E-01 -0.68901996007E-01  0.13931033768E+00  0.45191628489E-01 0.  0.
         14    1    1    2    0    0  0.13466963429E-01 -0.51428403868E-02 -0.57753670847E-03  0.14427108508E-01  0.00000000000E+00 0. -1.
     999901    1    3    3    0    0 -0.65885063635E-01 -0.94204754539E-01  0.69479532715E-01  0.89019255381E+00  0.88000000000E+00 0. -1.
        -11    1    4    4    0    0  0.31271938274E-02  0.50537922464E-01 -0.20036936105E-01  0.54457330799E-01  0.51100000000E-03 0.  1.
         11    1    4    4    0    0  0.49290906379E-01  0.48809672461E-01 -0.48865059902E-01  0.84853006886E-01  0.51100000000E-03 0. -1.
</event>
<event>
 8    1  0.2190295E+004  0.1043930E+01  0.7957747E-01            NaN
         13   -1    0    0    0    0  0.00000000000E+00  0.00000000000E+00  0.74505805969E-08  0.10566000000E+00  0.10566000000E+00 0.  1.
     999900   -1    0    0    0    0 -0.00000000000E+00 -0.00000000000E+00 -0.74505805969E-08  0.93827000000E+00  0.93827000000E+00 0.  1.
     999902    2    1    2    0    0 -0.50592377132E-02 -0.11510204237E-01  0.12674326048E-01  0.10260772907E+01  0.10259219694E+01 0.  0.
     999903    2    3    3    0    0 -0.34592118048E-02 -0.92669528395E-01 -0.89342222725E-01  0.13647245024E+00  0.45200545068E-01 0.  0.
         14    1    1    2    0    0  0.50592377132E-02  0.11510204237E-01 -0.12674326048E-01  0.17852709278E-01  0.00000000000E+00 0. -1.
     999901    1    3    3    0    0 -0.16000259084E-02  0.81159324158E-01  0.10201654877E+00  0.88960484048E+00  0.88000000000E+00 0. -1.
        -11    1    4    4    0    0 -0.22333743480E-01 -0.69136760828E-01 -0.68021524096E-01  0.99528270642E-01  0.51100000000E-03 0. -1.
         11    1    4    4    0    0  0.18874531675E-01 -0.23532767567E-01 -0.21320698629E-01  0.36944179600E-01  0.51100000000E-03 0.  1.
</event>
<event>
 8    1  0.2190295E+004  0.1043930E+01  0.7957747E-01            NaN
         13   -1    0    0    0    0  0.00000000000E+00  0.00000000000E+00  0.74505805969E-08  0.10566000000E+00  0.10566000000E+00 0. -1.
     999900   -1    0    0    0    0 -0.00000000000E+00 -0.00000000000E+00 -0.74505805969E-08  0.93827000000E+00  0.93827000000E+00 0.  1.
     999902    2    1    2    0    0  0.93549337924E-02 -0.11959976614E-01  0.35941078459E-03  0.10287416820E+01  0.10286295559E+01 0.  0.
     999903    2    3    3    0    0 -0.30551026231E-01  0.87998793926E-01  0.90536898818E-01  0.13760969359E+00  0.45413046446E-01 0.  0.
         14    1    1    2    0    0 -0.93549337924E-02  0.11959976614E-01 -0.35941078459E-03  0.15188317977E-01  0.00000000000E+00 0.  1.
     999901    1    3    3    0    0  0.39905960023E-01 -0.99958770539E-01 -0.90177488033E-01  0.89113198843E+00  0.88000000000E+00 0.  1.
        -11    1    4    4    0    0 -0.24548730350E-01  0.57432996196E-01  0.29490519391E-01  0.69073446915E-01  0.51100000000E-03 0.  1.
         11    1    4    4    0    0 -0.60022958806E-02  0.30565797730E-01  0.61046379427E-01  0.68536246679E-01  0.51100000000E-03 0. -1.
</event>
<event>
 8    1  0.2190295E+004  0.1043930E+01  0.7957747E-01            NaN
         13   -1    0    0    0    0  0.00000000000E+00  0.00000000000E+00  0.74505805969E-08  0.10566000000E+00  0.10566000000E+00 0.  1.
     999900   -1    0    0    0    0 -0.00000000000E+00 -0.00000000000E+00 -0.74505805969E-08  0.93827000000E+00  0.93827000000E+00 0. -1.
     999902    2    1    2    0    0 -0.62799594904E-02 -0.57878862346E-02  0.10303106821E-01  0.10305474917E+01  0.10304605966E+01 0.  0.
     999903    2    3    3    0    0 -0.59875185543E-02  0.11648981578E+00 -0.61068182611E-01  0.13923061040E+00  0.45278166772E-01 0.  0.
         14    1    1    2    0    0  0.62799594904E-02  0.57878862346E-02 -0.10303106821E-01  0.13382508301E-01  0.00000000000E+00 0. -1.
     999901    1    3    3    0    0 -0.29244093605E-03 -0.12227770201E+00  0.71371289432E-01  0.89131688130E+00  0.88000000000E+00 0.  1.
        -11    1    4    4    0    0 -0.75123709133E-02  0.52707640731E-01 -0.52643954310E-01  0.74874415888E-01  0.51100000000E-03 0.  1.
         11    1    4    4    0    0  0.15248523590E-02  0.63782175049E-01 -0.84242283009E-02  0.64356194513E-01  0.51100000000E-03 0. -1.
</event>
<event>
 8    1  0.2190295E+004  0.1043930E+01  0.7957747E-01            NaN
         13   -1    0    0    0    0  0.00000000000E+00  0.00000000000E+00  0.74505805969E-08  0.10566000000E+00  0.10566000000E+00 0.  1.
     999900   -1    0    0    0    0 -0.00000000000E+00 -0.00000000000E+00 -0.74505805969E-08  0.93827000000E+00  0.93827000000E+00 0. -1.
     999902    2    1    2    0    0  0.86970084635E-02 -0.56040251423E-02 -0.40898666941E-02  0.10328048005E+01  0.10327448794E+01 0.  0.
     999903    2    3    3    0    0 -0.40407639022E-01  0.12689707710E+00 -0.18031819784E-01  0.14142262291E+00  0.44040507220E-01 0.  0.
         14    1    1    2    0    0 -0.86970084635E-02  0.56040251423E-02  0.40898666941E-02  0.11125199485E-01  0.00000000000E+00 0.  1.
     999901    1    3    3    0    0  0.49104647485E-01 -0.13250110225E+00  0.13941953090E-01  0.89138217761E+00  0.88000000000E+00 0. -1.
        -11    1    4    4    0    0 -0.81576909038E-02  0.88829354970E-01 -0.20267111302E-01  0.91477970828E-01  0.51100000000E-03 0. -1.
         11    1    4    4    0    0 -0.32249948118E-01  0.38067722134E-01  0.22352915179E-02  0.49944652079E-01  0.51100000000E-03 0.  1.
</event>
<event>
 7    1  0.2190295E+004  0.1043930E+01  0.7957747E-01            NaN
         13   -1    0    0    0    0  0.00000000000E+00  0.00000000000E+00  0.74505805969E-08  0.10566000000E+00  0.10566000000E+00 0.  1.
     999900   -1    0    0    0    0 -0.00000000000E+00 -0.00000000000E+00 -0.74505805969E-08  0.93827000000E+00  0.93827000000E+00 0. -1.
     999902    2    1    2    0    0  0.34825573898E-02  0.76580611628E-02  0.10238957361E-01  0.10306781943E+01  0.10305929991E+01 0.  0.
         14    1    1    2    0    0 -0.34825573898E-02 -0.76580611628E-02 -0.10238957361E-01  0.13251805711E-01  0.00000000000E+00 0. -1.
     999901    1    3    3    0    0 -0.16511151177E-01 -0.44015636314E-01 -0.11974964245E+00  0.88935368174E+00  0.88000000000E+00 0. -1.
        -11    1    3    3    0    0  0.94431741531E-02  0.23020993260E-01  0.60780796587E-01  0.65678809547E-01  0.51100000000E-03 0.  1.
         11    1    3    3    0    0  0.10550534414E-01  0.28652704217E-01  0.69207803221E-01  0.75645703005E-01  0.51100000000E-03 0. -1.
</event>
<event>
 8    1  0.2190295E+004  0.1043930E+01  0.7957747E-01            NaN
         13   -1    0    0    0    0  0.00000000000E+00  0.00000000000E+00  0.74505805969E-08  0.10566000000E+00  0.10566000000E+00 0.  1.
     999900   -1    0    0    0    0 -0.00000000000E+00 -0.00000000000E+00 -0.74505805969E-08  0.93827000000E+00  0.93827000000E+00 0. -1.
     999902    2    1    2    0    0  0.12459166794E-01 -0.44777392975E-02  0.37365256286E-02  0.10301734521E+01  0.10300815981E+01 0.  0.
     999903    2    3    3    0    0 -0.69176404573E-01 -0.45566783307E-03  0.11168054442E+00  0.13981821133E+00  0.47864450632E-01 0.  0.
         14    1    1    2    0    0 -0.12459166794E-01  0.44777392975E-02 -0.37365256286E-02  0.13756547902E-01  0.00000000000E+00 0. -1.
     999901    1    3    3    0    0  0.81635571367E-01 -0.40220714645E-02 -0.10794401879E+00  0.89035524077E+00  0.88000000000E+00 0. -1.
        -11    1    4    4    0    0 -0.11333115526E-03 -0.13598365197E-01  0.21943773956E-01  0.25820896894E-01  0.51100000000E-03 0.  1.
         11    1    4    4    0    0 -0.69063073418E-01  0.13142697364E-01  0.89736770464E-01  0.11399731443E+00  0.51100000000E-03 0. -1.
</event>
<event>
 8    1  0.2190295E+004  0.1043930E+01  0.7957747E-01            NaN
         13   -1    0    0    0    0  0.00000000000E+00  0.00000000000E+00  0.74505805969E-08  0.10566000000E+00  0.10566000000E+00 0.  1.
     999900   -1    0    0    0    0 -0.00000000000E+00 -0.00000000000E+00 -0.74505805969E-08  0.93827000000E+00  0.93827000000E+00 0. -1.
     999902    2    1    2    0    0 -0.75831583405E-03 -0.12843553381E-01  0.12998854487E-02  0.10309985806E+01  0.10309174805E+01 0.  0.
     999903    2    3    3    0    0  0.99900919715E-02  0.46642002932E-01 -0.12394668971E+00  0.14007727974E+00  0.44537445309E-01 0.  0.
         14    1    1    2    0    0  0.75831583405E-03  0.12843553381E-01 -0.12998854487E-02  0.12931419432E-01  0.00000000000E+00 0. -1.
     999901    1    3    3    0    0 -0.10748407806E-01 -0.59485556313E-01  0.12524657516E+00  0.89092130083E+00  0.88000000000E+00 0.  1.
        -11    1    4    4    0    0  0.78303350170E-02 -0.56013644887E-02 -0.40251305703E-01  0.41389831630E-01  0.51100000000E-03 0.  1.
         11    1    4    4    0    0  0.21597569545E-02  0.52243367421E-01 -0.83695384006E-01  0.98687448110E-01  0.51100000000E-03 0. -1.
</event>
<event>
 8    1  0.2190295E+004  0.1043930E+01  0.7957747E-01            NaN
         13   -1    0    0    0    0  0.00000000000E+00  0.00000000000E+00  0.74505805969E-08  0.10566000000E+00  0.10566000000E+00 0.  1.
     999900   -1    0    0    0    0 -0.00000000000E+00 -0.00000000000E+00 -0.74505805969E-08  0.93827000000E+00  0.93827000000E+00 0. -1.
     999902    2    1    2    0    0 -0.13587767480E-01 -0.23866930110E-02  0.15327115005E-02  0.10300493324E+01  0.10299558021E+01 0.  0.
     999903    2    3    3    0    0 -0.23529239560E-01  0.14334172555E-01  0.13026741133E+00  0.14047019418E+00  0.44756936660E-01 0.  0.
         14    1    1    2    0    0  0.13587767480E-01  0.23866930110E-02 -0.15327115005E-02  0.13880667605E-01  0.00000000000E+00 0.  1.
     999901    1    3    3    0    0  0.99414720805E-02 -0.16720865566E-01 -0.12873469983E+00  0.88957913822E+00  0.88000000000E+00 0. -1.
        -11    1    4    4    0    0 -0.14189274267E-01  0.63383501913E-02  0.78176387148E-02  0.17403642821E-01  0.51100000000E-03 0.  1.
         11    1    4    4    0    0 -0.93399652931E-02  0.79958223639E-02  0.12244977262E+00  0.12306655136E+00  0.51100000000E-03 0. -1.
</event>
<event>
 8    1  0.2190295E+004  0.1043930E+01  0.7957747E-01            NaN
         13   -1    0    0    0    0  0.00000000000E+00  0.00000000000E+00  0.74505805969E-08  0.10566000000E+00  0.10566000000E+00 0. -1.
     999900   -1    0    0    0    0 -0.00000000000E+00 -0.00000000000E+00 -0.74505805969E-08  0.93827000000E+00  0.93827000000E+00 0.  1.
     999902    2    1    2    0    0 -0.47495691266E-02 -0.76895709083E-02  0.92487464459E-02  0.10309983637E+01  0.10309172608E+01 0.  0.
     999903    2    3    3    0    0  0.10077724197E-01  0.13056182186E+00 -0.18615622936E-01  0.13964561681E+00  0.44792935001E-01 0.  0.
         14    1    1    2    0    0  0.47495691266E-02  0.76895709083E-02 -0.92487464459E-02  0.12931636341E-01  0.00000000000E+00 0. -1.
     999901    1    3    3    0    0 -0.14827293323E-01 -0.13825139277E+00  0.27864369382E-01  0.89135274685E+00  0.88000000000E+00 0. -1.
        -11    1    4    4    0    0 -0.17839649901E-01  0.54065933588E-01 -0.91223290312E-02  0.57661566847E-01  0.51100000000E-03 0.  1.
         11    1    4    4    0    0  0.27917374097E-01  0.76495888270E-01 -0.94932939047E-02  0.81984049966E-01  0.51100000000E-03 0. -1.
</event>
<event>
 8    1  0.2190295E+004  0.1043930E+01  0.7957747E-01            NaN
         13   -1    0    0    0    0  0.00000000000E+00  0.00000000000E+00  0.74505805969E-08  0.10566000000E+00  0.10566000000E+00 0. -1.
     999900   -1    0    0    0    0 -0.00000000000E+00 -0.00000000000E+00 -0.74505805969E-08  0.93827000000E+00  0.93827000000E+00 0. -1.
     999902    2    1    2    0    0 -0.78081108884E-02  0.14833125459E-01  0.28537135707E-02  0.10269261214E+01  0.10267853363E+01 0.  0.
     999903    2    3    3    0    0 -0.20262201914E-01  0.61684485230E-01 -0.11315634811E+00  0.13798940334E+00  0.44957577477E-01 0.  0.
         14    1    1    2    0    0  0.78081108884E-02 -0.14833125459E-01 -0.28537135707E-02  0.17003878606E-01  0.00000000000E+00 0.  1.
     999901    1    3    3    0    0  0.12454091026E-01 -0.46851359771E-01  0.11601006168E+00  0.88893671805E+00  0.88000000000E+00 0.  1.
        -11    1    4    4    0    0 -0.94563246250E-02  0.45025165176E-01 -0.10811201550E+00  0.11749534710E+00  0.51100000000E-03 0.  1.
         11    1    4    4    0    0 -0.10805877289E-01  0.16659320053E-01 -0.50443326101E-02  0.20494056239E-01  0.51100000000E-03 0. -1.
</event>
<event>
 8    1  0.2190295E+004  0.1043930E+01  0.7957747E-01            NaN
         13   -1    0    0    0    0  0.00000000000E+00  0.00000000000E+00  0.74505805969E-08  0.10566000000E+00  0.10566000000E+00 0. -1.
     999900   -1    0    0    0    0 -0.00000000000E+00 -0.00000000000E+00 -0.74505805969E-08  0.93827000000E+00  0.93827000000E+00 0. -1.
     999902    2    1    2    0    0 -0.96434092862E-02 -0.56514575117E-03 -0.10142546980E-01  0.10299233590E+01  0.10298281116E+01 0.  0.
     999903    2    3    3    0    0 -0.80754243475E-01  0.62515111752E-01 -0.86709964258E-01  0.14149866383E+00  0.45539729118E-01 0.  0.
         14    1    1    2    0    0  0.96434092862E-02  0.56514575117E-03  0.10142546980E-01  0.14006640983E-01  0.00000000000E+00 0. -1.
     999901    1    3    3    0    0  0.71110834188E-01 -0.63080257503E-01  0.76567417278E-01  0.88842469518E+00  0.88000000000E+00 0.  1.
        -11    1    4    4    0    0 -0.21488906937E-03  0.20416504440E-01 -0.10900780815E-01  0.23150982144E-01  0.51100000000E-03 0.  1.
         11    1    4    4    0    0 -0.80539354405E-01  0.42098607312E-01 -0.75809183444E-01  0.11834768169E+00  0.51100000000E-03 0. -1.
</event>
<event>
 8    1  0.2190295E+004  0.1043930E+01  0.7957747E-01            NaN
         13   -1    0    0    0    0  0.00000000000E+00  0.00000000000E+00  0.74505805969E-08  0.10566000000E+00  0.10566000000E+00 0.  1.
     999900   -1    0    0    0    0 -0.00000000000E+00 -0.00000000000E+00 -0.74505805969E-08  0.93827000000E+00  0.93827000000E+00 0. -1.
     999902    2    1    2    0    0 -0.61024623073E-02  0.95151275383E-02 -0.41493897268E-02  0.10318886075E+01  0.10318183479E+01 0.  0.
     999903    2    3    3    0    0 -0.16757673997E-01 -0.98125395035E-01  0.88285761188E-01  0.14046038674E+00  0.45003686810E-01 0.  0.
         14    1    1    2    0    0  0.61024623073E-02 -0.95151275383E-02  0.41493897268E-02  0.12041392502E-01  0.00000000000E+00 0.  1.
     999901    1    3    3    0    0  0.10655211689E-01  0.10764052257E+00 -0.92435150915E-01  0.89142822076E+00  0.88000000000E+00 0.  1.
        -11    1    4    4    0    0 -0.25438630989E-01 -0.74526542315E-01  0.45831987111E-01  0.91116198448E-01  0.51100000000E-03 0.  1.
         11    1    4    4    0    0  0.86809569923E-02 -0.23598852720E-01  0.42453774077E-01  0.49344188294E-01  0.51100000000E-03 0. -1.
</event>
<event>
 8    1  0.2190295E+004  0.1043930E+01  0.7957747E-01            NaN
         13   -1    0    0    0    0  0.00000000000E+00  0.00000000000E+00  0.74505805969E-08  0.10566000000E+00  0.10566000000E+00 0.  1.
     999900   -1    0    0    0    0 -0.00000000000E+00 -0.00000000000E+00 -0.74505805969E-08  0.93827000000E+00  0.93827000000E+00 0. -1.
     999902    2    1    2    0    0  0.12446009916E-01  0.46964320848E-02 -0.61460939820E-02  0.10292761913E+01  0.10291718729E+01 0.  0.
     999903    2    3    3    0    0  0.89303290734E-01 -0.68010905843E-02 -0.98829685365E-01  0.14100287599E+00  0.45751194073E-01 0.  0.
         14    1    1    2    0    0 -0.12446009916E-01 -0.46964320848E-02  0.61460939820E-02  0.14653808665E-01  0.00000000000E+00 0. -1.
     999901    1    3    3    0    0 -0.76857280819E-01  0.11497522669E-01  0.92683591383E-01  0.88827331535E+00  0.88000000000E+00 0.  1.
        -11    1    4    4    0    0  0.53554739109E-01 -0.20958072803E-01 -0.37641091912E-01  0.68734735163E-01  0.51100000000E-03 0.  1.
         11    1    4    4    0    0  0.35748551626E-01  0.14156982219E-01 -0.61188593453E-01  0.72268140827E-01  0.51100000000E-03 0. -1.
</event>
<event>
 7    1  0.2190295E+004  0.1043930E+01  0.7957747E-01            NaN
         13   -1    0    0    0    0  0.00000000000E+00  0.00000000000E+00  0.74505805969E-08  0.10566000000E+00  0.10566000000E+00 0. -1.
     999900   -1    0    0    0    0 -0.00000000000E+00 -0.00000000000E+00 -0.74505805969E-08  0.93827000000E+00  0.93827000000E+00 0. -1.
     999903    2    1    2    0    0  0.11527273038E+00 -0.33848990334E-02  0.34135601011E-01  0.12852020603E+00  0.45309427179E-01 0.  0.
         14    1    1    2    0    0 -0.29578298793E-01 -0.54021441355E-03  0.65622065453E-02  0.30302312549E-01  0.00000000000E+00 0. -1.
     999901    1    1    2    0    0 -0.85694431589E-01  0.39251134470E-02 -0.40697807557E-01  0.88510748142E+00  0.88000000000E+00 0.  1.
        -11    1    3    3    0    0  0.21884204947E-01 -0.15322578587E-01 -0.38507110699E-02  0.26996091151E-01  0.51100000000E-03 0. -1.
         11    1    3    3    0    0  0.93388525435E-01  0.11937679553E-01  0.37986312081E-01  0.10152411488E+00  0.51100000000E-03 0.  1.
</event>
<event>
 8    1  0.2190295E+004  0.1043930E+01  0.7957747E-01            NaN
         13   -1    0    0    0    0  0.00000000000E+00  0.00000000000E+00  0.74505805969E-08  0.10566000000E+00  0.10566000000E+00 0. -1.
     999900   -1    0    0    0    0 -0.00000000000E+00 -0.00000000000E+00 -0.74505805969E-08  0.93827000000E+00  0.93827000000E+00 0. -1.
     999902    2    1    2    0    0 -0.45345519482E-02 -0.11713085789E-01 -0.48499007661E-02  0.10304659710E+01  0.10303780070E+01 0.  0.
     999903    2    3    3    0    0 -0.72312058293E-01  0.13735505803E-01  0.11050627218E+00  0.13998943124E+00  0.44358840993E-01 0.  0.
         14    1    1    2    0    0  0.45345519482E-02  0.11713085789E-01  0.48499007661E-02  0.13464029022E-01  0.00000000000E+00 0. -1.
     999901    1    3    3    0    0  0.67777506345E-01 -0.25448591592E-01 -0.11535617295E+00  0.89047653973E+00  0.88000000000E+00 0. -1.
        -11    1    4    4    0    0 -0.72988506707E-01  0.17369169309E-02  0.86936442431E-01  0.11352772849E+00  0.51100000000E-03 0. -1.
         11    1    4    4    0    0  0.67644841314E-03  0.11998588872E-01  0.23569829750E-01  0.26461702757E-01  0.51100000000E-03 0.  1.
</event>
<event>
 8    1  0.2190295E+004  0.1043930E+01  0.7957747E-01            NaN
         13   -1    0    0    0    0  0.00000000000E+00  0.00000000000E+00  0.74505805969E-08  0.10566000000E+00  0.10566000000E+00 0.  1.
     999900   -1    0    0    0    0 -0.00000000000E+00 -0.00000000000E+00 -0.74505805969E-08  0.93827000000E+00  0.93827000000E+00 0.  1.
     999902    2    1    2    0    0  0.86446050926E-03 -0.52718020210E-02  0.11665500544E-01  0.10310994470E+01  0.10310196150E+01 0.  0.
     999903    2    3    3    0    0  0.50348213146E-01 -0.62440873639E-01 -0.10584229726E+00  0.14007474075E+00  0.44548129476E-01 0.  0.
         14    1    1    2    0    0 -0.86446050926E-03  0.52718020210E-02 -0.11665500544E-01  0.12830553046E-01  0.00000000000E+00 0. -1.
     999901    1    3    3    0    0 -0.49483752637E-01  0.57169071618E-01  0.11750779780E+00  0.89102470621E+00  0.88000000000E+00 0. -1.
        -11    1    4    4    0    0  0.56148276477E-01 -0.42031905839E-01 -0.86463574157E-01  0.11133517340E+00  0.51100000000E-03 0.  1.
         11    1    4    4    0    0 -0.58000633307E-02 -0.20408967800E-01 -0.19378723099E-01  0.28739567346E-01  0.51100000000E-03 0. -1.
</event>
<event>
 8    1  0.2190295E+004  0.1043930E+01  0.7957747E-01            NaN
         13   -1    0    0    0    0  0.00000000000E+00  0.00000000000E+00  0.74505805969E-08  0.10566000000E+00  0.10566000000E+00 0.  1.
     999900   -1    0    0    0    0 -0.00000000000E+00 -0.00000000000E+00 -0.74505805969E-08  0.93827000000E+00  0.93827000000E+00 0. -1.
     999902    2    1    2    0    0  0.12815049501E-01 -0.47029480075E-02  0.30252737690E-02  0.10299480296E+01  0.10298531198E+01 0.  0.
     999903    2    3    3    0    0 -0.40570451629E-02 -0.10108182795E+00  0.86427967518E-01  0.14060582025E+00  0.45455555913E-01 0.  0.
         14    1    1    2    0    0 -0.12815049501E-01  0.47029480075E-02 -0.30252737690E-02  0.13981970356E-01  0.00000000000E+00 0.  1.
     999901    1    3    3    0    0  0.16872094664E-01  0.96378879941E-01 -0.83402693748E-01  0.88934220939E+00  0.88000000000E+00 0. -1.
        -11    1    4    4    0    0  0.20048472846E-01 -0.41156414734E-01  0.29156734437E-01  0.54278614769E-01  0.51100000000E-03 0.  1.
         11    1    4    4    0    0 -0.24105518009E-01 -0.59925413215E-01  0.57271233080E-01  0.86327205485E-01  0.51100000000E-03 0. -1.
</event>
<event>
 8    1  0.2190295E+004  0.1043930E+01  0.7957747E-01            NaN
         13   -1    0    0    0    0  0.00000000000E+00  0.00000000000E+00  0.74505805969E-08  0.10566000000E+00  0.10566000000E+00 0.  1.
     999900   -1    0    0    0    0 -0.00000000000E+00 -0.00000000000E+00 -0.74505805969E-08  0.93827000000E+00  0.93827000000E+00 0.  1.
     999902    2    1    2    0    0  0.14811535433E-01  0.11737776732E-02 -0.47505515912E-03  0.10290644353E+01  0.10289570579E+01 0.  0.
     999903    2    3    3    0    0 -0.10025992205E+00 -0.82797825037E-01 -0.12448651701E-01  0.13752866071E+00  0.43030591287E-01 0.  0.
         14    1    1    2    0    0 -0.14811535433E-01 -0.11737776732E-02  0.47505515912E-03  0.14865564682E-01  0.00000000000E+00 0.  1.
     999901    1    3    3    0    0  0.11507145749E+00  0.83971602711E-01  0.11973596542E-01  0.89153577461E+00  0.88000000000E+00 0.  1.
        -11    1    4    4    0    0 -0.54199498232E-01 -0.59736211758E-01 -0.25114388212E-01  0.84480732834E-01  0.51100000000E-03 0. -1.
         11    1    4    4    0    0 -0.46060423822E-01 -0.23061613279E-01  0.12665736511E-01  0.53047927878E-01  0.51100000000E-03 0.  1.
</event>
<event>
 8    1  0.2190295E+004  0.1043930E+01  0.7957747E-01            NaN
         13   -1    0    0    0    0  0.00000000000E+00  0.00000000000E+00  0.74505805969E-08  0.10566000000E+00  0.10566000000E+00 0. -1.
     999900   -1    0    0    0    0 -0.00000000000E+00 -0.00000000000E+00 -0.74505805969E-08  0.93827000000E+00  0.93827000000E+00 0.  1.
     999902    2    1    2    0    0 -0.55374087321E-03 -0.11359284397E-02  0.13369720510E-01  0.10305006892E+01  0.10304131812E+01 0.  0.
     999903    2    3    3    0    0 -0.76806620765E-01  0.36079125294E-01  0.10401696902E+00  0.14178454464E+00  0.45632959368E-01 0.  0.
         14    1    1    2    0    0  0.55374087321E-03  0.11359284397E-02 -0.13369720510E-01  0.13429310812E-01  0.00000000000E+00 0.  1.
     999901    1    3    3    0    0  0.76252879892E-01 -0.37215053734E-01 -0.90647248505E-01  0.88871614455E+00  0.88000000000E+00 0.  1.
        -11    1    4    4    0    0 -0.27271346056E-01 -0.66620912648E-02  0.16681915655E-01  0.32659718411E-01  0.51100000000E-03 0.  1.
         11    1    4    4    0    0 -0.49535274708E-01  0.42741216559E-01  0.87335053360E-01  0.10912482623E+00  0.51100000000E-03 0. -1.
</event>
<event>
 8    1  0.2190295E+004  0.1043930E+01  0.7957747E-01            NaN
         13   -1    0    0    0    0  0.00000000000E+00  0.00000000000E+00  0.74505805969E-08  0.10566000000E+00  0.10566000000E+00 0. -1.
     999900   -1    0    0    0    0 -0.00000000000E+00 -0.00000000000E+00 -0.74505805969E-08  0.93827000000E+00  0.93827000000E+00 0. -1.
     999902    2    1    2    0    0 -0.13789054309E-01 -0.36485994459E-02 -0.19484685782E-02  0.10295339302E+01  0.10294332745E+01 0.  0.
     999903    2    3    3    0    0 -0.10785261207E+00  0.31841921112E-01 -0.74192110242E-01  0.14086825980E+00  0.41149769454E-01 0.  0.
         14    1    1    2    0    0  0.13789054309E-01  0.36485994459E-02  0.19484685782E-02  0.14396069827E-01  0.00000000000E+00 0. -1.
     999901    1    3    3    0    0  0.94063557756E-01 -0.35490520558E-01  0.72243641664E-01  0.88866567038E+00  0.88000000000E+00 0.  1.
        -11    1    4    4    0    0 -0.72442977702E-01  0.21669868775E-01 -0.25486182004E-01  0.79795832129E-01  0.51100000000E-03 0.  1.
         11    1    4    4    0    0 -0.35409634363E-01  0.10172052337E-01 -0.48705928238E-01  0.61072427666E-01  0.51100000000E-03 0. -1.
</event>
<event>
 8    1  0.2190295E+004  0.1043930E+01  0.7957747E-01            NaN
         13   -1    0    0    0    0  0.00000000000E+00  0.00000000000E+00  0.74505805969E-08  0.10566000000E+00  0.10566000000E+00 0.  1.
     999900   -1    0    0    0    0 -0.00000000000E+00 -0.00000000000E+00 -0.74505805969E-08  0.93827000000E+00  0.93827000000E+00 0.  1.
     999902    2    1    2    0    0 -0.10653197017E-01  0.35024021969E-02 -0.39450854344E-02  0.10320421437E+01  0.10319736747E+01 0.  0.
     999903    2    3    3    0    0 -0.13105928063E+00 -0.35451098532E-01  0.48541789297E-02  0.14294573318E+00  0.44459016554E-01 0.  0.
         14    1    1    2    0    0  0.10653197017E-01 -0.35024021969E-02  0.39450854344E-02  0.11887856279E-01  0.00000000000E+00 0.  1.
     999901    1    3    3    0    0  0.12040608362E+00  0.38953500729E-01 -0.87992643641E-02  0.88909641055E+00  0.88000000000E+00 0.  1.
        -11    1    4    4    0    0 -0.81840142818E-01 -0.43255298258E-02 -0.10740106642E-01  0.82656700856E-01  0.51100000000E-03 0.  1.
         11    1    4    4    0    0 -0.49219137815E-01 -0.31125568707E-01  0.15594285572E-01  0.60289032320E-01  0.51100000000E-03 0. -1.
</event>
<event>
 8    1  0.2190295E+004  0.1043930E+01  0.7957747E-01            NaN
         13   -1    0    0    0    0  0.00000000000E+00  0.00000000000E+00  0.74505805969E-08  0.10566000000E+00  0.10566000000E+00 0.  1.
     999900   -1    0    0    0    0 -0.00000000000E+00 -0.00000000000E+00 -0.74505805969E-08  0.93827000000E+00  0.93827000000E+00 0.  1.
     999902    2    1    2    0    0  0.31108856158E-02 -0.26638462447E-02 -0.12368521226E-01  0.10309010321E+01  0.10308186960E+01 0.  0.
     999903    2    3    3    0    0 -0.34165210983E-02 -0.79414603033E-01  0.10569649550E+00  0.13968128714E+00  0.44952875610E-01 0.  0.
         14    1    1    2    0    0 -0.31108856158E-02  0.26638462447E-02  0.12368521226E-01  0.13028967858E-01  0.00000000000E+00 0.  1.
     999901    1    3    3    0    0  0.65274067141E-02  0.76750756789E-01 -0.11806501672E+00  0.89121974500E+00  0.88000000000E+00 0. -1.
        -11    1    4    4    0    0  0.16645494345E-01 -0.49585441374E-01  0.44358811373E-01  0.68583917544E-01  0.51100000000E-03 0.  1.
         11    1    4    4    0    0 -0.20062015443E-01 -0.29829161660E-01  0.61337684124E-01  0.71097369597E-01  0.51100000000E-03 0. -1.
</event>
<event>
 8    1  0.2190295E+004  0.1043930E+01  0.7957747E-01            NaN
         13   -1    0    0    0    0  0.00000000000E+00  0.00000000000E+00  0.74505805969E-08  0.10566000000E+00  0.10566000000E+00 0. -1.
     999900   -1    0    0    0    0 -0.00000000000E+00 -0.00000000000E+00 -0.74505805969E-08  0.93827000000E+00  0.93827000000E+00 0. -1.
     999902    2    1    2    0    0 -0.38965581430E-02  0.11293610663E-01 -0.69793902124E-02  0.10300937904E+01  0.10300008623E+01 0.  0.
     999903    2    3    3    0    0 -0.33686787229E-01  0.77718025779E-01  0.10232310529E+00  0.14034849195E+00  0.45307727274E-01 0.  0.
         14    1    1    2    0    0  0.38965581430E-02 -0.11293610663E-01  0.69793902124E-02  0.13836209557E-01  0.00000000000E+00 0. -1.
     999901    1    3    3    0    0  0.29790229086E-01 -0.66424415116E-01 -0.10930249550E+00  0.88974529850E+00  0.88000000000E+00 0. -1.
        -11    1    4    4    0    0  0.11332991917E-01  0.16254543741E-01  0.19329068073E-01  0.27686113697E-01  0.51100000000E-03 0. -1.
         11    1    4    4    0    0 -0.45019779146E-01  0.61463482037E-01  0.82994037217E-01  0.11266237825E+00  0.51100000000E-03 0.  1.
</event>
<event>
 8    1  0.2190295E+004  0.1043930E+01  0.7957747E-01            NaN
         13   -1    0    0    0    0  0.00000000000E+00  0.00000000000E+00  0.74505805969E-08  0.10566000000E+00  0.10566000000E+00 0. -1.
     999900   -1    0    0    0    0 -0.00000000000E+00 -0.00000000000E+00 -0.74505805969E-08  0.93827000000E+00  0.93827000000E+00 0.  1.
     999902    2    1    2    0    0 -0.10416434985E-01 -0.37042255913E-03  0.87635380675E-02  0.10303124037E+01  0.10302224081E+01 0.  0.
     999903    2    3    3    0    0  0.11058241163E+00  0.69344038593E-01  0.64322520750E-02  0.13929822764E+00  0.48224028302E-01 0.  0.
         14    1    1    2    0    0  0.10416434985E-01  0.37042255913E-03 -0.87635380675E-02  0.13617596342E-01  0.00000000000E+00 0.  1.
     999901    1    3    3    0    0 -0.12099884662E+00 -0.69714461152E-01  0.23312859924E-02  0.89101417602E+00  0.88000000000E+00 0.  1.
        -11    1    4    4    0    0  0.81440659460E-01  0.38319088744E-01 -0.15628150189E-01  0.91353345723E-01  0.51100000000E-03 0. -1.
         11    1    4    4    0    0  0.29141752171E-01  0.31024949849E-01  0.22060402264E-01  0.47944881914E-01  0.51100000000E-03 0.  1.
</event>
<event>
 8    1  0.2190295E+004  0.1043930E+01  0.7957747E-01            NaN
         13   -1    0    0    0    0  0.00000000000E+00  0.00000000000E+00  0.74505805969E-08  0.10566000000E+00  0.10566000000E+00 0. -1.
     999900   -1    0    0    0    0 -0.00000000000E+00 -0.00000000000E+00 -0.74505805969E-08  0.93827000000E+00  0.93827000000E+00 0. -1.
     999902    2    1    2    0    0  0.47584174035E-02 -0.92863872895E-02 -0.96055929990E-02  0.10297473718E+01  0.10296496991E+01 0.  0.
     999903    2    3    3    0    0  0.12125947086E+00  0.41956444596E-01  0.27888936125E-01  0.13980121447E+00  0.47983166770E-01 0.  0.
         14    1    1    2    0    0 -0.47584174035E-02  0.92863872895E-02  0.96055929990E-02  0.14182628175E-01  0.00000000000E+00 0. -1.
     999901    1    3    3    0    0 -0.11650105346E+00 -0.51242831885E-01 -0.37494529124E-01  0.88994615735E+00  0.88000000000E+00 0. -1.
        -11    1    4    4    0    0  0.54875272183E-02  0.84254826603E-02 -0.92562558265E-02  0.13676297231E-01  0.51100000000E-03 0. -1.
         11    1    4    4    0    0  0.11577194364E+00  0.33530961936E-01  0.37145191951E-01  0.12612491724E+00  0.51100000000E-03 0.  1.
</event>
<event>
 8    1  0.2190295E+004  0.1043930E+01  0.7957747E-01            NaN
         13   -1    0    0    0    0  0.00000000000E+00  0.00000000000E+00  0.74505805969E-08  0.10566000000E+00  0.10566000000E+00 0. -1.
     999900   -1    0    0    0    0 -0.00000000000E+00 -0.00000000000E+00 -0.74505805969E-08  0.93827000000E+00  0.93827000000E+00 0.  1.
     999902    2    1    2    0    0  0.18543297450E-02 -0.70350016018E-02  0.11773334488E-01  0.10300901593E+01  0.10299971821E+01 0.  0.
     999903    2    3    3    0    0 -0.52646879013E-01  0.38545086035E-01  0.11662338239E+00  0.14102241231E+00  0.45043200661E-01 0.  0.
         14    1    1    2    0    0 -0.18543297450E-02  0.70350016018E-02 -0.11773334488E-01  0.13839840725E-01  0.00000000000E+00 0.  1.
     999901    1    3    3    0    0  0.54501208758E-01 -0.45580087637E-01 -0.10485004791E+00  0.88906774696E+00  0.88000000000E+00 0.  1.
        -11    1    4    4    0    0 -0.17842618899E-01 -0.59112964272E-02  0.51529007290E-01  0.54852549512E-01  0.51100000000E-03 0.  1.
         11    1    4    4    0    0 -0.34804260114E-01  0.44456382462E-01  0.65094375104E-01  0.86169862799E-01  0.51100000000E-03 0. -1.
</event>
<event>
 8    1  0.2190295E+004  0.1043930E+01  0.7957747E-01            NaN
         13   -1    0    0    0    0  0.00000000000E+00  0.00000000000E+00  0.74505805969E-08  0.10566000000E+00  0.10566000000E+00 0.  1.
     999900   -1    0    0    0    0 -0.00000000000E+00 -0.00000000000E+00 -0.74505805969E-08  0.93827000000E+00  0.93827000000E+00 0. -1.
     999902    2    1    2    0    0 -0.98202132348E-02  0.35310829119E-02  0.94487837089E-02  0.10298521931E+01  0.10297559686E+01 0.  0.
     999903    2    3    3    0    0  0.45089213873E-01 -0.45660985545E-01 -0.11365921623E+00  0.13822980414E+00  0.45509323339E-01 0.  0.
         14    1    1    2    0    0  0.98202132348E-02 -0.35310829119E-02 -0.94487837089E-02  0.14077806934E-01  0.00000000000E+00 0. -1.
     999901    1    3    3    0    0 -0.54909427108E-01  0.49192068457E-01  0.12310799994E+00  0.89162238893E+00  0.88000000000E+00 0.  1.
        -11    1    4    4    0    0  0.31748849168E-01 -0.10663440830E-01 -0.24432625216E-01  0.41459771946E-01  0.51100000000E-03 0. -1.
         11    1    4    4    0    0  0.13340364705E-01 -0.34997544715E-01 -0.89226591011E-01  0.96770032194E-01  0.51100000000E-03 0.  1.
</event>
<event>
 8    1  0.2190295E+004  0.1043930E+01  0.7957747E-01            NaN
         13   -1    0    0    0    0  0.00000000000E+00  0.00000000000E+00  0.74505805969E-08  0.10566000000E+00  0.10566000000E+00 0.  1.
     999900   -1    0    0    0    0 -0.00000000000E+00 -0.00000000000E+00 -0.74505805969E-08  0.93827000000E+00  0.93827000000E+00 0. -1.
     999902    2    1    2    0    0  0.96273784719E-02 -0.37286315162E-02 -0.79788493501E-02  0.10308819677E+01  0.10307993889E+01 0.  0.
     999903    2    3    3    0    0 -0.36437791075E-02 -0.11448543220E+00  0.68235893116E-01  0.14057197706E+00  0.44543824607E-01 0.  0.
         14    1    1    2    0    0 -0.96273784719E-02  0.37286315162E-02  0.79788493501E-02  0.13048032272E-01  0.00000000000E+00 0.  1.
     999901    1    3    3    0    0  0.13271157579E-01  0.11075680069E+00 -0.76214742466E-01  0.89030999067E+00  0.88000000000E+00 0. -1.
        -11    1    4    4    0    0 -0.14516455911E-01 -0.10176264733E+00  0.45695185840E-01  0.11249299984E+00  0.51100000000E-03 0. -1.
         11    1    4    4    0    0  0.10872676803E-01 -0.12722784877E-01  0.22540707276E-01  0.28078977214E-01  0.51100000000E-03 0.  1.
</event>
<event>
 8    1  0.2190295E+004  0.1043930E+01  0.7957747E-01            NaN
         13   -1    0    0    0    0  0.00000000000E+00  0.00000000000E+00  0.74505805969E-08  0.10566000000E+00  0.10566000000E+00 0.  1.
     999900   -1    0    0    0    0 -0.00000000000E+00 -0.00000000000E+00 -0.74505805969E-08  0.93827000000E+00  0.93827000000E+00 0. -1.
     999902    2    1    2    0    0 -0.74356260737E-02 -0.26229261460E-02  0.11867518610E-01  0.10296819730E+01  0.10295833911E+01 0.  0.
     999903    2    3    3    0    0 -0.70803365897E-01 -0.10842852752E+00 -0.30832595906E-01  0.14005643628E+00  0.43534976389E-01 0.  0.
         14    1    1    2    0    0  0.74356260737E-02  0.26229261460E-02 -0.11867518610E-01  0.14248027043E-01  0.00000000000E+00 0. -1.
     999901    1    3    3    0    0  0.63367739823E-01  0.10580560138E+00  0.42700114516E-01  0.88962553668E+00  0.88000000000E+00 0.  1.
        -11    1    4    4    0    0 -0.42645410359E-01 -0.34892155684E-01  0.10221456517E-02  0.55112607049E-01  0.51100000000E-03 0.  1.
         11    1    4    4    0    0 -0.28157955538E-01 -0.73536371838E-01 -0.31854741558E-01  0.84943829228E-01  0.51100000000E-03 0. -1.
</event>
<event>
 8    1  0.2190295E+004  0.1043930E+01  0.7957747E-01            NaN
         13   -1    0    0    0    0  0.00000000000E+00  0.00000000000E+00  0.74505805969E-08  0.10566000000E+00  0.10566000000E+00 0. -1.
     999900   -1    0    0    0    0 -0.00000000000E+00 -0.00000000000E+00 -0.74505805969E-08  0.93827000000E+00  0.93827000000E+00 0. -1.
     999902    2    1    2    0    0 -0.10268189914E-01 -0.75453767723E-02 -0.62586477875E-02  0.10297335530E+01  0.10296356885E+01 0.  0.
     999903    2    3    3    0    0  0.10972691867E+00  0.45168002022E-02  0.70412774800E-01  0.13820518598E+00  0.45632405275E-01 0.  0.
         14    1    1    2    0    0  0.10268189914E-01  0.75453767723E-02  0.62586477875E-02  0.14196446980E-01  0.00000000000E+00 0.  1.
     999901    1    3    3    0    0 -0.11999510858E+00 -0.12062176974E-01 -0.76671422588E-01  0.89152836704E+00  0.88000000000E+00 0. -1.
        -11    1    4    4    0    0  0.17208469800E-01 -0.98528999011E-02 -0.18652437555E-02  0.19923637333E-01  0.51100000000E-03 0. -1.
         11    1    4    4    0    0  0.92518448871E-01  0.14369700103E-01  0.72278018556E-01  0.11828154865E+00  0.51100000000E-03 0.  1.
</event>
<event>
 8    1  0.2190295E+004  0.1043930E+01  0.7957747E-01            NaN
         13   -1    0    0    0    0  0.00000000000E+00  0.00000000000E+00  0.74505805969E-08  0.10566000000E+00  0.10566000000E+00 0.  1.
     999900   -1    0    0    0    0 -0.00000000000E+00 -0.00000000000E+00 -0.74505805969E-08  0.93827000000E+00  0.93827000000E+00 0.  1.
     999902    2    1    2    0    0 -0.74939910145E-02  0.13478585715E-01 -0.38351960225E-02  0.10280384644E+01  0.10279156305E+01 0.  0.
     999903    2    3    3    0    0 -0.11884561189E+00  0.55648812161E-01 -0.16577207182E-01  0.13992818394E+00  0.45651101860E-01 0.  0.
         14    1    1    2    0    0  0.74939910145E-02 -0.13478585715E-01  0.38351960225E-02  0.15891535569E-01  0.00000000000E+00 0.  1.
     999901    1    3    3    0    0  0.11135162088E+00 -0.42170226446E-01  0.12742011159E-01  0.88811028049E+00  0.88000000000E+00 0. -1.
        -11    1    4    4    0    0 -0.92751030002E-01  0.20438487534E-01 -0.84546025682E-02  0.95353168613E-01  0.51100000000E-03 0. -1.
         11    1    4    4    0    0 -0.26094581891E-01  0.35210324627E-01 -0.81226046133E-02  0.44575015324E-01  0.51100000000E-03 0.  1.
</event>
<event>
 8    1  0.2190295E+004  0.1043930E+01  0.7957747E-01            NaN
         13   -1    0    0    0    0  0.00000000000E+00  0.00000000000E+00  0.74505805969E-08  0.10566000000E+00  0.10566000000E+00 0. -1.
     999900   -1    0    0    0    0 -0.00000000000E+00 -0.00000000000E+00 -0.74505805969E-08  0.93827000000E+00  0.93827000000E+00 0. -1.
     999902    2    1    2    0    0  0.46974130951E-02  0.12685650079E-01 -0.34679366355E-03  0.10303981238E+01  0.10303092651E+01 0.  0.
     999903    2    3    3    0    0 -0.51748519588E-01 -0.10992264408E-02 -0.12208918533E+00  0.14011874289E+00  0.45258980945E-01 0.  0.
         14    1    1    2    0    0 -0.46974130951E-02 -0.12685650079E-01  0.34679366355E-03  0.13531876203E-01  0.00000000000E+00 0.  1.
     999901    1    3    3    0    0  0.56445932684E-01  0.13784876520E-01  0.12174239167E+00  0.89027938091E+00  0.88000000000E+00 0.  1.
        -11    1    4    4    0    0 -0.53001373900E-01 -0.97200538360E-02 -0.75732247586E-01  0.92947617114E-01  0.51100000000E-03 0. -1.
         11    1    4    4    0    0  0.12528543115E-02  0.86208273951E-02 -0.46356937746E-01  0.47171125777E-01  0.51100000000E-03 0.  1.
</event>
<event>
 8    1  0.2190295E+004  0.1043930E+01  0.7957747E-01            NaN
         13   -1    0    0    0    0  0.00000000000E+00  0.00000000000E+00  0.74505805969E-08  0.10566000000E+00  0.10566000000E+00 0. -1.
     999900   -1    0    0    0    0 -0.00000000000E+00 -0.00000000000E+00 -0.74505805969E-08  0.93827000000E+00  0.93827000000E+00 0. -1.
     999902    2    1    2    0    0  0.68948750170E-02  0.17192358277E-01 -0.48303046292E-02  0.10247871599E+01  0.10246083519E+01 0.  0.
     999903    2    3    3    0    0 -0.19660454553E-01  0.86613132828E-01  0.92952181380E-01  0.13625700056E+00  0.45138607947E-01 0.  0.
         14    1    1    2    0    0 -0.68948750170E-02 -0.17192358277E-01  0.48303046292E-02  0.19142840109E-01  0.00000000000E+00 0.  1.
     999901    1    3    3    0    0  0.26555329570E-01 -0.69420774551E-01 -0.97782486009E-01  0.88853015933E+00  0.88000000000E+00 0. -1.
        -11    1    4    4    0    0 -0.30705505065E-01  0.55624952611E-01  0.44043443395E-01  0.77311379637E-01  0.51100000000E-03 0.  1.
         11    1    4    4    0    0  0.11045050512E-01  0.30988180217E-01  0.48908737984E-01  0.58945620924E-01  0.51100000000E-03 0. -1.
</event>
<event>
 8    1  0.2190295E+004  0.1043930E+01  0.7957747E-01            NaN
         13   -1    0    0    0    0  0.00000000000E+00  0.00000000000E+00  0.74505805969E-08  0.10566000000E+00  0.10566000000E+00 0.  1.
     999900   -1    0    0    0    0 -0.00000000000E+00 -0.00000000000E+00 -0.74505805969E-08  0.93827000000E+00  0.93827000000E+00 0. -1.
     999902    2    1    2    0    0  0.86747581295E-02 -0.44648081340E-02  0.97743304513E-02  0.10301197329E+01  0.10300271553E+01 0.  0.
     999903    2    3    3    0    0 -0.60034712446E-04 -0.24472504799E-01 -0.12951094181E+00  0.13889754314E+00  0.43823924387E-01 0.  0.
         14    1    1    2    0    0 -0.86747581295E-02  0.44648081340E-02 -0.97743304513E-02  0.13810267052E-01  0.00000000000E+00 0. -1.
     999901    1    3    3    0    0  0.87347928420E-02  0.20007696665E-01  0.13928527226E+00  0.89122218980E+00  0.88000000000E+00 0.  1.
        -11    1    4    4    0    0  0.42322321139E-02 -0.12117801794E-01 -0.12405268534E+00  0.12471600848E+00  0.51100000000E-03 0. -1.
         11    1    4    4    0    0 -0.42922668263E-02 -0.12354703005E-01 -0.54582564627E-02  0.14181534665E-01  0.51100000000E-03 0.  1.
</event>
<event>
 8    1  0.2190295E+004  0.1043930E+01  0.7957747E-01            NaN
         13   -1    0    0    0    0  0.00000000000E+00  0.00000000000E+00  0.74505805969E-08  0.10566000000E+00  0.10566000000E+00 0. -1.
     999900   -1    0    0    0    0 -0.00000000000E+00 -0.00000000000E+00 -0.74505805969E-08  0.93827000000E+00  0.93827000000E+00 0.  1.
     999902    2    1    2    0    0 -0.80814826538E-02 -0.78650009135E-02  0.73957206578E-02  0.10304442562E+01  0.10303560064E+01 0.  0.
     999903    2    3    3    0    0  0.74646292549E-01  0.18402669566E-01 -0.10646509820E+00  0.13887364131E+00  0.45170165797E-01 0.  0.
         14    1    1    2    0    0  0.80814826538E-02  0.78650009135E-02 -0.73957206578E-02  0.13485743780E-01  0.00000000000E+00 0.  1.
     999901    1    3    3    0    0 -0.82727775203E-01 -0.26267670480E-01  0.11386081885E+00  0.89157061491E+00  0.88000000000E+00 0. -1.
        -11    1    4    4    0    0  0.64079997538E-01  0.22895336841E-01 -0.10761288197E+00  0.12732335222E+00  0.51100000000E-03 0.  1.
         11    1    4    4    0    0  0.10566295011E-01 -0.44926672745E-02  0.11477837726E-02  0.11550289091E-01  0.51100000000E-03 0. -1.
</event>
<event>
 8    1  0.2616989E+004  0.1043930E+01  0.7957747E-01            NaN
         13   -1    0    0    0    0  0.00000000000E+00  0.00000000000E+00  0.74505805969E-08  0.10566000000E+00  0.10566000000E+00 0.  1.
     999900   -1    0    0    0    0 -0.00000000000E+00 -0.00000000000E+00 -0.74505805969E-08  0.93827000000E+00  0.93827000000E+00 0.  1.
     999902    2    1    2    0    0  0.21695766163E-02 -0.15172202324E-01 -0.31859105286E-03  0.10286001505E+01  0.10284859091E+01 0.  0.
     999903    2    3    3    0    0 -0.86951408734E-01  0.69191327109E-01 -0.67365375293E-01  0.13755861026E+00  0.45125272732E-01 0.  0.
         14    1    1    2    0    0 -0.21695766163E-02  0.15172202324E-01  0.31859105286E-03  0.15329849520E-01  0.00000000000E+00 0.  1.
     999901    1    3    3    0    0  0.89120985350E-01 -0.84363529433E-01  0.67046784240E-01  0.89104154022E+00  0.88000000000E+00 0. -1.
        -11    1    4    4    0    0 -0.26742105461E-01  0.49293323318E-01 -0.37492659645E-01  0.67460600179E-01  0.51100000000E-03 0. -1.
         11    1    4    4    0    0 -0.60209303273E-01  0.19898003791E-01 -0.29872715648E-01  0.70098010076E-01  0.51100000000E-03 0.  1.
</event>
<event>
 8    1  0.2190295E+004  0.1043930E+01  0.7957747E-01            NaN
         13   -1    0    0    0    0  0.00000000000E+00  0.00000000000E+00  0.74505805969E-08  0.10566000000E+00  0.10566000000E+00 0. -1.
     999900   -1    0    0    0    0 -0.00000000000E+00 -0.00000000000E+00 -0.74505805969E-08  0.93827000000E+00  0.93827000000E+00 0. -1.
     999902    2    1    2    0    0  0.13746226881E-01  0.32990260954E-02 -0.46814988261E-02  0.10290384333E+01  0.10289306772E+01 0.  0.
     999903    2    3    3    0    0  0.26791966605E-01  0.12995155427E+00 -0.87627904382E-02  0.13986594660E+00  0.43364508421E-01 0.  0.
         14    1    1    2    0    0 -0.13746226881E-01 -0.32990260954E-02  0.46814988261E-02  0.14891566671E-01  0.00000000000E+00 0.  1.
     999901    1    3    3    0    0 -0.13045739723E-01 -0.12665252817E+00  0.40812916121E-02  0.88917248673E+00  0.88000000000E+00 0. -1.
        -11    1    4    4    0    0  0.30664344338E-01  0.75335710688E-01  0.10075411264E-01  0.81960639039E-01  0.51100000000E-03 0. -1.
         11    1    4    4    0    0 -0.38723777329E-02  0.54615843580E-01 -0.18838201703E-01  0.57905307560E-01  0.51100000000E-03 0.  1.
</event>
<event>
 8    1  0.2190295E+004  0.1043930E+01  0.7957747E-01            NaN
         13   -1    0    0    0    0  0.00000000000E+00  0.00000000000E+00  0.74505805969E-08  0.10566000000E+00  0.10566000000E+00 0.  1.
     999900   -1    0    0    0    0 -0.00000000000E+00 -0.00000000000E+00 -0.74505805969E-08  0.93827000000E+00  0.93827000000E+00 0. -1.
     999902    2    1    2    0    0 -0.47441512399E-02 -0.37038495198E-02  0.14904597279E-01  0.10278560306E+01  0.10277303378E+01 0.  0.
     999903    2    3    3    0    0 -0.20579988923E-01 -0.54095311997E-01 -0.11765897440E+00  0.13636112103E+00  0.37428362898E-01 0.  0.
         14    1    1    2    0    0  0.47441512399E-02  0.37038495198E-02 -0.14904597279E-01  0.16073969401E-01  0.00000000000E+00 0. -1.
     999901    1    3    3    0    0  0.15835837683E-01  0.50391462477E-01  0.13256357168E+00  0.89149490957E+00  0.88000000000E+00 0.  1.
        -11    1    4    4    0    0 -0.16194362447E-01 -0.21448860279E-01 -0.88067750489E-01  0.92078774859E-01  0.51100000000E-03 0. -1.
         11    1    4    4    0    0 -0.43856264768E-02 -0.32646451718E-01 -0.29591223908E-01  0.44282346175E-01  0.51100000000E-03 0.  1.
</event>
<event>
 8    1  0.2190295E+004  0.1043930E+01  0.7957747E-01            NaN
         13   -1    0    0    0    0  0.00000000000E+00  0.00000000000E+00  0.74505805969E-08  0.10566000000E+00  0.10566000000E+00 0. -1.
     999900   -1    0    0    0    0 -0.00000000000E+00 -0.00000000000E+00 -0.74505805969E-08  0.93827000000E+00  0.93827000000E+00 0. -1.
     999902    2    1    2    0    0  0.32923363258E-02 -0.10913761102E-01 -0.62124775581E-02  0.10309475296E+01  0.10308657838E+01 0.  0.
     999903    2    3    3    0    0  0.15576439690E-01  0.56379425270E-01  0.11827066473E+00  0.13955798242E+00  0.45466638939E-01 0.  0.
         14    1    1    2    0    0 -0.32923363258E-02  0.10913761102E-01  0.62124775581E-02  0.12982470385E-01  0.00000000000E+00 0. -1.
     999901    1    3    3    0    0 -0.12284103365E-01 -0.67293186373E-01 -0.12448314228E+00  0.89138954719E+00  0.88000000000E+00 0. -1.
        -11    1    4    4    0    0  0.17513076206E-01  0.62583947713E-02  0.59243627020E-01  0.62096246318E-01  0.51100000000E-03 0.  1.
         11    1    4    4    0    0 -0.19366365155E-02  0.50121030499E-01  0.59027037706E-01  0.77461736107E-01  0.51100000000E-03 0. -1.
</event>
<event>
 8    1  0.2190295E+004  0.1043930E+01  0.7957747E-01            NaN
         13   -1    0    0    0    0  0.00000000000E+00  0.00000000000E+00  0.74505805969E-08  0.10566000000E+00  0.10566000000E+00 0.  1.
     999900   -1    0    0    0    0 -0.00000000000E+00 -0.00000000000E+00 -0.74505805969E-08  0.93827000000E+00  0.93827000000E+00 0.  1.
     999902    2    1    2    0    0  0.23208870981E-02  0.12331522646E-01  0.61766760563E-02  0.10299441395E+01  0.10298491764E+01 0.  0.
     999903    2    3    3    0    0  0.92081808370E-01  0.61534060559E-01 -0.73252409398E-01  0.14045726922E+00  0.45791144922E-01 0.  0.
         14    1    1    2    0    0 -0.23208870981E-02 -0.12331522646E-01 -0.61766760563E-02  0.13985860531E-01  0.00000000000E+00 0. -1.
     999901    1    3    3    0    0 -0.89760921272E-01 -0.49202537913E-01  0.79429085454E-01  0.88948687025E+00  0.88000000000E+00 0. -1.
        -11    1    4    4    0    0  0.57187061019E-01  0.60271508208E-01 -0.62333057560E-01  0.10386859889E+00  0.51100000000E-03 0. -1.
         11    1    4    4    0    0  0.34894747351E-01  0.12625523512E-02 -0.10919351838E-01  0.36588670332E-01  0.51100000000E-03 0.  1.
</event>
<event>
 8    1  0.2190295E+004  0.1043930E+01  0.7957747E-01            NaN
         13   -1    0    0    0    0  0.00000000000E+00  0.00000000000E+00  0.74505805969E-08  0.10566000000E+00  0.10566000000E+00 0.  1.
     999900   -1    0    0    0    0 -0.00000000000E+00 -0.00000000000E+00 -0.74505805969E-08  0.93827000000E+00  0.93827000000E+00 0. -1.
     999902    2    1    2    0    0 -0.11766176436E-01 -0.68146121181E-02  0.64545277080E-03  0.10303175625E+01  0.10302276356E+01 0.  0.
     999903    2    3    3    0    0 -0.28007723937E-01 -0.11634254236E+00  0.56617263427E-01  0.14161457555E+00  0.50290692264E-01 0.  0.
         14    1    1    2    0    0  0.11766176436E-01  0.68146121181E-02 -0.64545277080E-03  0.13612437531E-01  0.00000000000E+00 0. -1.
     999901    1    3    3    0    0  0.16241547501E-01  0.10952793024E+00 -0.55971810656E-01  0.88870298692E+00  0.88000000000E+00 0. -1.
        -11    1    4    4    0    0 -0.24758347267E-01 -0.27942064467E-01  0.14577464981E-02  0.37364700882E-01  0.51100000000E-03 0.  1.
         11    1    4    4    0    0 -0.32493766693E-02 -0.88400477890E-01  0.55159516929E-01  0.10424987467E+00  0.51100000000E-03 0. -1.
</event>
<event>
 8    1  0.2190295E+004  0.1043930E+01  0.7957747E-01            NaN
         13   -1    0    0    0    0  0.00000000000E+00  0.00000000000E+00  0.74505805969E-08  0.10566000000E+00  0.10566000000E+00 0. -1.
     999900   -1    0    0    0    0 -0.00000000000E+00 -0.00000000000E+00 -0.74505805969E-08  0.93827000000E+00  0.93827000000E+00 0. -1.
     999902    2    1    2    0    0 -0.90910740588E-02 -0.68002740195E-02  0.78254692077E-02  0.10301412610E+01  0.10300489738E+01 0.  0.
     999903    2    3    3    0    0  0.74176642837E-01  0.10445519591E+00  0.27439586823E-01  0.13902061494E+00  0.46483740799E-01 0.  0.
         14    1    1    2    0    0  0.90910740588E-02  0.68002740195E-02 -0.78254692077E-02  0.13788738978E-01  0.00000000000E+00 0.  1.
     999901    1    3    3    0    0 -0.83267716896E-01 -0.11125546993E+00 -0.19614117615E-01  0.89112064608E+00  0.88000000000E+00 0.  1.
        -11    1    4    4    0    0  0.32010992670E-01  0.77866961716E-01  0.29273716427E-01  0.89135733424E-01  0.51100000000E-03 0.  1.
         11    1    4    4    0    0  0.42165650167E-01  0.26588234190E-01 -0.18341296042E-02  0.49884881515E-01  0.51100000000E-03 0. -1.
</event>
<event>
 8    1  0.2190295E+004  0.1043930E+01  0.7957747E-01            NaN
         13   -1    0    0    0    0  0.00000000000E+00  0.00000000000E+00  0.74505805969E-08  0.10566000000E+00  0.10566000000E+00 0. -1.
     999900   -1    0    0    0    0 -0.00000000000E+00 -0.00000000000E+00 -0.74505805969E-08  0.93827000000E+00  0.93827000000E+00 0.  1.
     999902    2    1    2    0    0  0.20500954252E-02  0.27841709931E-02 -0.13728692548E-01  0.10297726168E+01  0.10296752939E+01 0.  0.
     999903    2    3    3    0    0  0.75223591214E-02 -0.50165811534E-01 -0.12398171117E+00  0.14129674521E+00  0.44945644593E-01 0.  0.
         14    1    1    2    0    0 -0.20500954252E-02 -0.27841709931E-02  0.13728692548E-01  0.14157383178E-01  0.00000000000E+00 0. -1.
     999901    1    3    3    0    0 -0.54722636962E-02  0.52949982527E-01  0.11025301863E+00  0.88847587161E+00  0.88000000000E+00 0. -1.
        -11    1    4    4    0    0  0.20536074195E-01 -0.17974440109E-01 -0.84082003722E-01  0.88401670298E-01  0.51100000000E-03 0.  1.
         11    1    4    4    0    0 -0.13013715074E-01 -0.32191371426E-01 -0.39899707452E-01  0.52895074913E-01  0.51100000000E-03 0. -1.
</event>
<event>
 8    1  0.2190295E+004  0.1043930E+01  0.7957747E-01            NaN
         13   -1    0    0    0    0  0.00000000000E+00  0.00000000000E+00  0.74505805969E-08  0.10566000000E+00  0.10566000000E+00 0.  1.
     999900   -1    0    0    0    0 -0.00000000000E+00 -0.00000000000E+00 -0.74505805969E-08  0.93827000000E+00  0.93827000000E+00 0. -1.
     999902    2    1    2    0    0 -0.11025256675E-01 -0.20816907390E-02  0.76990063321E-02  0.10303224866E+01  0.10302326252E+01 0.  0.
     999903    2    3    3    0    0 -0.10138648405E+00  0.54641004652E-01  0.69780733397E-01  0.14170740889E+00  0.44122334971E-01 0.  0.
         14    1    1    2    0    0  0.11025256675E-01  0.20816907390E-02 -0.76990063321E-02  0.13607513350E-01  0.00000000000E+00 0.  1.
     999901    1    3    3    0    0  0.90361227377E-01 -0.56722695391E-01 -0.62081727065E-01  0.88861507776E+00  0.88000000000E+00 0. -1.
        -11    1    4    4    0    0 -0.90481262147E-01  0.62374770561E-01  0.63532268847E-01  0.12694125062E+00  0.51100000000E-03 0.  1.
         11    1    4    4    0    0 -0.10905221905E-01 -0.77337659096E-02  0.62484645502E-02  0.14766158274E-01  0.51100000000E-03 0. -1.
</event>
<event>
 8    1  0.2190295E+004  0.1043930E+01  0.7957747E-01            NaN
         13   -1    0    0    0    0  0.00000000000E+00  0.00000000000E+00  0.74505805969E-08  0.10566000000E+00  0.10566000000E+00 0. -1.
     999900   -1    0    0    0    0 -0.00000000000E+00 -0.00000000000E+00 -0.74505805969E-08  0.93827000000E+00  0.93827000000E+00 0.  1.
     999902    2    1    2    0    0 -0.55937938305E-02 -0.12348199085E-01 -0.29784911954E-02  0.10300505202E+01  0.10299570060E+01 0.  0.
     999903    2    3    3    0    0  0.29778290649E-01 -0.12631475012E+00  0.33444795513E-01  0.14125008425E+00  0.44619158002E-01 0.  0.
         14    1    1    2    0    0  0.55937938305E-02  0.12348199085E-01  0.29784911954E-02  0.13879479812E-01  0.00000000000E+00 0. -1.
     999901    1    3    3    0    0 -0.35372084480E-01  0.11396655104E+00 -0.36423286708E-01  0.88880043594E+00  0.88000000000E+00 0.  1.
        -11    1    4    4    0    0  0.28672511870E-01 -0.47067873945E-01  0.27965271359E-01  0.61804653691E-01  0.51100000000E-03 0. -1.
         11    1    4    4    0    0  0.11057787790E-02 -0.79246876175E-01  0.54795241535E-02  0.79445430556E-01  0.51100000000E-03 0.  1.
</event>
<event>
 8    1  0.2190295E+004  0.1043930E+01  0.7957747E-01            NaN
         13   -1    0    0    0    0  0.00000000000E+00  0.00000000000E+00  0.74505805969E-08  0.10566000000E+00  0.10566000000E+00 0. -1.
     999900   -1    0    0    0    0 -0.00000000000E+00 -0.00000000000E+00 -0.74505805969E-08  0.93827000000E+00  0.93827000000E+00 0. -1.
     999902    2    1    2    0    0 -0.97052861407E-02  0.98397583986E-02 -0.28434023808E-02  0.10298197781E+01  0.10297231070E+01 0.  0.
     999903    2    3    3    0    0 -0.10136499026E+00 -0.85075857079E-01  0.75131772140E-02  0.13992218055E+00  0.44821937376E-01 0.  0.
         14    1    1    2    0    0  0.97052861407E-02 -0.98397583986E-02  0.28434023808E-02  0.14110221880E-01  0.00000000000E+00 0. -1.
     999901    1    3    3    0    0  0.91659704118E-01  0.94915615477E-01 -0.10356579595E-01  0.88989759757E+00  0.88000000000E+00 0.  1.
        -11    1    4    4    0    0 -0.59374776903E-01 -0.48890722425E-01  0.26462428976E-01  0.81339954142E-01  0.51100000000E-03 0.  1.
         11    1    4    4    0    0 -0.41990213355E-01 -0.36185134653E-01 -0.18949251762E-01  0.58582226407E-01  0.51100000000E-03 0. -1.
</event>
<event>
 8    1  0.2190295E+004  0.1043930E+01  0.7957747E-01            NaN
         13   -1    0    0    0    0  0.00000000000E+00  0.00000000000E+00  0.74505805969E-08  0.10566000000E+00  0.10566000000E+00 0.  1.
     999900   -1    0    0    0    0 -0.00000000000E+00 -0.00000000000E+00 -0.74505805969E-08  0.93827000000E+00  0.93827000000E+00 0.  1.
     999902    2    1    2    0    0  0.68711674684E-02  0.10820238360E-01 -0.46397023017E-02  0.10302985167E+01  0.10302083363E+01 0.  0.
     999903    2    3    3    0    0  0.29344881766E-01  0.45316188460E-01 -0.12269768421E+00  0.14146066559E+00  0.45185386749E-01 0.  0.
         14    1    1    2    0    0 -0.68711674684E-02 -0.10820238360E-01  0.46397023017E-02  0.13631483338E-01  0.00000000000E+00 0. -1.
     999901    1    3    3    0    0 -0.22473714297E-01 -0.34495950100E-01  0.11805798191E+00  0.88883785107E+00  0.88000000000E+00 0. -1.
        -11    1    4    4    0    0  0.40679948015E-01  0.30432343018E-01 -0.98886649817E-01  0.11117471073E+00  0.51100000000E-03 0. -1.
         11    1    4    4    0    0 -0.11335066249E-01  0.14883845442E-01 -0.23811034394E-01  0.30285954862E-01  0.51100000000E-03 0.  1.
</event>
<event>
 8    1  0.2190295E+004  0.1043930E+01  0.7957747E-01            NaN
         13   -1    0    0    0    0  0.00000000000E+00  0.00000000000E+00  0.74505805969E-08  0.10566000000E+00  0.10566000000E+00 0.  1.
     999900   -1    0    0    0    0 -0.00000000000E+00 -0.00000000000E+00 -0.74505805969E-08  0.93827000000E+00  0.93827000000E+00 0. -1.
     999902    2    1    2    0    0  0.77456200551E-02 -0.11197321814E-01  0.16890437023E-02  0.10302103967E+01  0.10301190387E+01 0.  0.
     999903    2    3    3    0    0 -0.11441311097E+00  0.50968163974E-01 -0.38192365717E-01  0.13870726715E+00  0.45748611590E-01 0.  0.
         14    1    1    2    0    0 -0.77456200551E-02  0.11197321814E-01 -0.16890437023E-02  0.13719603292E-01  0.00000000000E+00 0. -1.
     999901    1    3    3    0    0  0.12215873102E+00 -0.62165485788E-01  0.39881409420E-01  0.89150312955E+00  0.88000000000E+00 0. -1.
        -11    1    4    4    0    0 -0.60049877731E-01  0.94910820271E-02 -0.86943867990E-03  0.60803663526E-01  0.51100000000E-03 0. -1.
         11    1    4    4    0    0 -0.54363233235E-01  0.41477081947E-01 -0.37322927037E-01  0.77903603628E-01  0.51100000000E-03 0.  1.
</event>
<event>
 8    1  0.2190295E+004  0.1043930E+01  0.7957747E-01            NaN
         13   -1    0    0    0    0  0.00000000000E+00  0.00000000000E+00  0.74505805969E-08  0.10566000000E+00  0.10566000000E+00 0.  1.
     999900   -1    0    0    0    0 -0.00000000000E+00 -0.00000000000E+00 -0.74505805969E-08  0.93827000000E+00  0.93827000000E+00 0. -1.
     999902    2    1    2    0    0 -0.89916018131E-02  0.86872465877E-02 -0.59301220321E-02  0.10300922435E+01  0.10299992945E+01 0.  0.
     999903    2    3    3    0    0 -0.74069848661E-01  0.28411058519E-01  0.10600547067E+00  0.14039915945E+00  0.46703676884E-01 0.  0.
         14    1    1    2    0    0  0.89916018131E-02 -0.86872465877E-02  0.59301220321E-02  0.13837756457E-01  0.00000000000E+00 0.  1.
     999901    1    3    3    0    0  0.65078246848E-01 -0.19723811932E-01 -0.11193559271E+00  0.88969308409E+00  0.88000000000E+00 0. -1.
        -11    1    4    4    0    0  0.57641634323E-03  0.82948708541E-02  0.33107766974E-01  0.34139749461E-01  0.51100000000E-03 0. -1.
         11    1    4    4    0    0 -0.74646265005E-01  0.20116187665E-01  0.72897703700E-01  0.10625940999E+00  0.51100000000E-03 0.  1.
</event>
<event>
 8    1  0.2190295E+004  0.1043930E+01  0.7957747E-01            NaN
         13   -1    0    0    0    0  0.00000000000E+00  0.00000000000E+00  0.74505805969E-08  0.10566000000E+00  0.10566000000E+00 0.  1.
     999900   -1    0    0    0    0 -0.00000000000E+00 -0.00000000000E+00 -0.74505805969E-08  0.93827000000E+00  0.93827000000E+00 0.  1.
     999902    2    1    2    0    0 -0.25441479942E-02 -0.70663530769E-02  0.13432644138E-01  0.10285403293E+01  0.10284251879E+01 0.  0.
     999903    2    3    3    0    0 -0.12845322464E+00  0.26465632643E-01  0.94266686431E-02  0.13893730692E+00  0.44878196695E-01 0.  0.
         14    1    1    2    0    0  0.25441479942E-02  0.70663530769E-02 -0.13432644138E-01  0.15389670671E-01  0.00000000000E+00 0. -1.
     999901    1    3    3    0    0  0.12590907665E+00 -0.33531985720E-01  0.40059754945E-02  0.88960302241E+00  0.88000000000E+00 0. -1.
        -11    1    4    4    0    0 -0.11340320613E+00  0.21626944289E-01  0.23442187835E-01  0.11780411356E+00  0.51100000000E-03 0.  1.
         11    1    4    4    0    0 -0.15050018515E-01  0.48386883547E-02 -0.14015519192E-01  0.21133193358E-01  0.51100000000E-03 0. -1.
</event>
<event>
 8    1  0.2263569E+004  0.1043930E+01  0.7957747E-01            NaN
         13   -1    0    0    0    0  0.00000000000E+00  0.00000000000E+00  0.74505805969E-08  0.10566000000E+00  0.10566000000E+00 0.  1.
     999900   -1    0    0    0    0 -0.00000000000E+00 -0.00000000000E+00 -0.74505805969E-08  0.93827000000E+00  0.93827000000E+00 0. -1.
     999902    2    1    2    0    0 -0.16034050353E-03 -0.82780646299E-02 -0.13378050749E-01  0.10281970948E+01  0.10280767197E+01 0.  0.
     999903    2    3    3    0    0 -0.44512351533E-01 -0.28523708265E-01 -0.12159566399E+00  0.14022860509E+00  0.45646520266E-01 0.  0.
         14    1    1    2    0    0  0.16034050353E-03  0.82780646299E-02  0.13378050749E-01  0.15732905165E-01  0.00000000000E+00 0.  1.
     999901    1    3    3    0    0  0.44352011029E-01  0.20245643635E-01  0.10821761324E+00  0.88796848975E+00  0.88000000000E+00 0.  1.
        -11    1    4    4    0    0 -0.23371246733E-01  0.10353446568E-01 -0.46274417909E-01  0.52867682979E-01  0.51100000000E-03 0. -1.
         11    1    4    4    0    0 -0.21141104800E-01 -0.38877154834E-01 -0.75321246078E-01  0.87360922109E-01  0.51100000000E-03 0.  1.
</event>
<event>
 8    1  0.2190295E+004  0.1043930E+01  0.7957747E-01            NaN
         13   -1    0    0    0    0  0.00000000000E+00  0.00000000000E+00  0.74505805969E-08  0.10566000000E+00  0.10566000000E+00 0. -1.
     999900   -1    0    0    0    0 -0.00000000000E+00 -0.00000000000E+00 -0.74505805969E-08  0.93827000000E+00  0.93827000000E+00 0. -1.
     999902    2    1    2    0    0 -0.13830857349E-01  0.37259136369E-04  0.38614974254E-02  0.10295701544E+01  0.10294700081E+01 0.  0.
     999903    2    3    3    0    0  0.72674184580E-01  0.90632115528E-01  0.61766607724E-01  0.13881566966E+00  0.44260127029E-01 0.  0.
         14    1    1    2    0    0  0.13830857349E-01 -0.37259136369E-04 -0.38614974254E-02  0.14359845599E-01  0.00000000000E+00 0. -1.
     999901    1    3    3    0    0 -0.86505041930E-01 -0.90594856391E-01 -0.57905110298E-01  0.89075448474E+00  0.88000000000E+00 0. -1.
        -11    1    4    4    0    0  0.42744808607E-01  0.23248494296E-01  0.36661586934E-01  0.60925727139E-01  0.51100000000E-03 0.  1.
         11    1    4    4    0    0  0.29929375974E-01  0.67383621232E-01  0.25105020790E-01  0.77889942524E-01  0.51100000000E-03 0. -1.
</event>
<event>
 7    1  0.2190295E+004  0.1043930E+01  0.7957747E-01            NaN
         13   -1    0    0    0    0  0.00000000000E+00  0.00000000000E+00  0.74505805969E-08  0.10566000000E+00  0.10566000000E+00 0. -1.
     999900   -1    0    0    0    0 -0.00000000000E+00 -0.00000000000E+00 -0.74505805969E-08  0.93827000000E+00  0.93827000000E+00 0. -1.
     999903    2    1    2    0    0 -0.40267673333E-01 -0.22315359867E-01  0.90446282524E-01  0.11099371908E+00  0.44940125188E-01 0.  0.
         14    1    1    2    0    0 -0.10249889981E-01 -0.29185818798E-02 -0.49007833760E-01  0.50153226563E-01  0.00000000000E+00 0.  1.
     999901    1    1    2    0    0  0.50517563314E-01  0.25233941747E-01 -0.41438448764E-01  0.88278305435E+00  0.88000000000E+00 0. -1.
        -11    1    3    3    0    0 -0.62218147227E-03 -0.97376553052E-02 -0.16780786786E-02  0.99139351259E-02  0.51100000000E-03 0. -1.
         11    1    3    3    0    0 -0.39645491860E-01 -0.12577704562E-01  0.92124361202E-01  0.10107978396E+00  0.51100000000E-03 0.  1.
</event>
<event>
 8    1  0.2190295E+004  0.1043930E+01  0.7957747E-01            NaN
         13   -1    0    0    0    0  0.00000000000E+00  0.00000000000E+00  0.74505805969E-08  0.10566000000E+00  0.10566000000E+00 0.  1.
     999900   -1    0    0    0    0 -0.00000000000E+00 -0.00000000000E+00 -0.74505805969E-08  0.93827000000E+00  0.93827000000E+00 0.  1.
     999902    2    1    2    0    0 -0.80526974999E-02  0.68354170443E-03 -0.11478411358E-01  0.10298919412E+01  0.10297962631E+01 0.  0.
     999903    2    3    3    0    0  0.71455569123E-01  0.50366963289E-01  0.94931192604E-01  0.13853734814E+00  0.50377933164E-01 0.  0.
         14    1    1    2    0    0  0.80526974999E-02 -0.68354170443E-03  0.11478411358E-01  0.14038058754E-01  0.00000000000E+00 0.  1.
     999901    1    3    3    0    0 -0.79508266623E-01 -0.49683421585E-01 -0.10640960396E+00  0.89135459311E+00  0.88000000000E+00 0.  1.
        -11    1    4    4    0    0  0.74849215465E-01  0.36461935173E-01  0.65965568380E-01  0.10622426797E+00  0.51100000000E-03 0. -1.
         11    1    4    4    0    0 -0.33936463422E-02  0.13905028116E-01  0.28965624223E-01  0.32313080170E-01  0.51100000000E-03 0.  1.
</event>
<event>
 8    1  0.2190295E+004  0.1043930E+01  0.7957747E-01            NaN
         13   -1    0    0    0    0  0.00000000000E+00  0.00000000000E+00  0.74505805969E-08  0.10566000000E+00  0.10566000000E+00 0.  1.
     999900   -1    0    0    0    0 -0.00000000000E+00 -0.00000000000E+00 -0.74505805969E-08  0.93827000000E+00  0.93827000000E+00 0. -1.
     999902    2    1    2    0    0  0.52664772533E-02 -0.26478527409E-03 -0.12953569289E-01  0.10299442626E+01  0.10298493012E+01 0.  0.
     999903    2    3    3    0    0 -0.52446104040E-01  0.89755693307E-01  0.79747835902E-01  0.13863736867E+00  0.45320242175E-01 0.  0.
         14    1    1    2    0    0 -0.52664772533E-02  0.26478527409E-03  0.12953569289E-01  0.13985737422E-01  0.00000000000E+00 0.  1.
     999901    1    3    3    0    0  0.57712581293E-01 -0.90020478581E-01 -0.92701405191E-01  0.89130689391E+00  0.88000000000E+00 0. -1.
        -11    1    4    4    0    0 -0.36760382495E-01  0.31150752089E-01  0.16344911664E-01  0.50883320795E-01  0.51100000000E-03 0. -1.
         11    1    4    4    0    0 -0.15685721545E-01  0.58604941219E-01  0.63402924237E-01  0.87754047875E-01  0.51100000000E-03 0.  1.
</event>
<event>
 8    1  0.2190295E+004  0.1043930E+01  0.7957747E-01            NaN
         13   -1    0    0    0    0  0.00000000000E+00  0.00000000000E+00  0.74505805969E-08  0.10566000000E+00  0.10566000000E+00 0. -1.
     999900   -1    0    0    0    0 -0.00000000000E+00 -0.00000000000E+00 -0.74505805969E-08  0.93827000000E+00  0.93827000000E+00 0.  1.
     999902    2    1    2    0    0  0.46025582170E-02 -0.11394589090E-01  0.58020379488E-02  0.10303401565E+01  0.10302505298E+01 0.  0.
     999903    2    3    3    0    0  0.73528848647E-01 -0.16836551750E-01  0.10450718796E+00  0.14212669390E+00  0.59902284806E-01 0.  0.
         14    1    1    2    0    0 -0.46025582170E-02  0.11394589090E-01 -0.58020379488E-02  0.13589843525E-01  0.00000000000E+00 0.  1.
     999901    1    3    3    0    0 -0.68926290430E-01  0.54419626595E-02 -0.98705150007E-01  0.88821346258E+00  0.88000000000E+00 0.  1.
        -11    1    4    4    0    0  0.29494856243E-01 -0.37472127911E-01  0.51385549172E-01  0.70105939119E-01  0.51100000000E-03 0.  1.
         11    1    4    4    0    0  0.44033992404E-01  0.20635576161E-01  0.53121638783E-01  0.72020754776E-01  0.51100000000E-03 0. -1.
</event>
<event>
 8    1  0.2190295E+004  0.1043930E+01  0.7957747E-01            NaN
         13   -1    0    0    0    0  0.00000000000E+00  0.00000000000E+00  0.74505805969E-08  0.10566000000E+00  0.10566000000E+00 0. -1.
     999900   -1    0    0    0    0 -0.00000000000E+00 -0.00000000000E+00 -0.74505805969E-08  0.93827000000E+00  0.93827000000E+00 0.  1.
     999902    2    1    2    0    0 -0.52503539117E-02 -0.75190853845E-02 -0.10665232428E-01  0.10298640822E+01  0.10297680213E+01 0.  0.
     999903    2    3    3    0    0  0.86468804465E-01 -0.99993582550E-01 -0.15642581069E-01  0.14026377270E+00  0.44200281586E-01 0.  0.
         14    1    1    2    0    0  0.52503539117E-02  0.75190853845E-02  0.10665232428E-01  0.14065917815E-01  0.00000000000E+00 0. -1.
     999901    1    3    3    0    0 -0.91719158377E-01  0.92474497166E-01  0.49773486410E-02  0.88960030949E+00  0.88000000000E+00 0. -1.
        -11    1    4    4    0    0  0.56677849164E-01 -0.32125870358E-01 -0.10188454568E-01  0.65943277593E-01  0.51100000000E-03 0.  1.
         11    1    4    4    0    0  0.29790955301E-01 -0.67867712192E-01 -0.54541265016E-02  0.74320495106E-01  0.51100000000E-03 0. -1.
</event>
<event>
 8    1  0.2190295E+004  0.1043930E+01  0.7957747E-01            NaN
         13   -1    0    0    0    0  0.00000000000E+00  0.00000000000E+00  0.74505805969E-08  0.10566000000E+00  0.10566000000E+00 0.  1.
     999900   -1    0    0    0    0 -0.00000000000E+00 -0.00000000000E+00 -0.74505805969E-08  0.93827000000E+00  0.93827000000E+00 0. -1.
     999902    2    1    2    0    0  0.12876705667E-01 -0.36838330855E-02 -0.26836791441E-02  0.10302704865E+01  0.10301799324E+01 0.  0.
     999903    2    3    3    0    0 -0.40958313376E-01  0.59030436537E-02 -0.12459881886E+00  0.14018430036E+00  0.49135964908E-01 0.  0.
         14    1    1    2    0    0 -0.12876705667E-01  0.36838330855E-02  0.26836791441E-02  0.13659513490E-01  0.00000000000E+00 0. -1.
     999901    1    3    3    0    0  0.53835019043E-01 -0.95868767391E-02  0.12191513972E+00  0.89008618615E+00  0.88000000000E+00 0.  1.
        -11    1    4    4    0    0  0.23563134716E-02 -0.49990297379E-02 -0.67314641164E-01  0.67543056990E-01  0.51100000000E-03 0. -1.
         11    1    4    4    0    0 -0.43314626848E-01  0.10902073392E-01 -0.57284177696E-01  0.72641243371E-01  0.51100000000E-03 0.  1.
</event>
<event>
 8    1  0.2190295E+004  0.1043930E+01  0.7957747E-01            NaN
         13   -1    0    0    0    0  0.00000000000E+00  0.00000000000E+00  0.74505805969E-08  0.10566000000E+00  0.10566000000E+00 0.  1.
     999900   -1    0    0    0    0 -0.00000000000E+00 -0.00000000000E+00 -0.74505805969E-08  0.93827000000E+00  0.93827000000E+00 0. -1.
     999902    2    1    2    0    0 -0.89534060281E-02  0.10683365061E-01 -0.36295011031E-02  0.10295261447E+01  0.10294253793E+01 0.  0.
     999903    2    3    3    0    0  0.64039135004E-01  0.82281782856E-01 -0.81225720159E-01  0.14021437842E+00  0.46809739353E-01 0.  0.
         14    1    1    2    0    0  0.89534060281E-02 -0.10683365061E-01  0.36295011031E-02  0.14403855275E-01  0.00000000000E+00 0.  1.
     999901    1    3    3    0    0 -0.72992541033E-01 -0.71598417796E-01  0.77596219056E-01  0.88931176631E+00  0.88000000000E+00 0.  1.
        -11    1    4    4    0    0  0.27945215117E-01  0.68879888203E-01 -0.42607218195E-01  0.85679695437E-01  0.51100000000E-03 0.  1.
         11    1    4    4    0    0  0.36093919888E-01  0.13401894653E-01 -0.38618501964E-01  0.54534682983E-01  0.51100000000E-03 0. -1.
</event>
<event>
 8    1  0.2190295E+004  0.1043930E+01  0.7957747E-01            NaN
         13   -1    0    0    0    0  0.00000000000E+00  0.00000000000E+00  0.74505805969E-08  0.10566000000E+00  0.10566000000E+00 0.  1.
     999900   -1    0    0    0    0 -0.00000000000E+00 -0.00000000000E+00 -0.74505805969E-08  0.93827000000E+00  0.93827000000E+00 0.  1.
     999902    2    1    2    0    0 -0.82591070957E-05 -0.13252353743E-01 -0.40743528620E-02  0.10300654661E+01  0.10299721546E+01 0.  0.
     999903    2    3    3    0    0 -0.10025247739E+00 -0.17548557618E-01  0.84661617653E-01  0.13992983988E+00  0.45323939470E-01 0.  0.
         14    1    1    2    0    0  0.82591070957E-05  0.13252353743E-01  0.40743528620E-02  0.13864533861E-01  0.00000000000E+00 0.  1.
     999901    1    3    3    0    0  0.10024421828E+00  0.42962038756E-02 -0.88735970515E-01  0.89013562626E+00  0.88000000000E+00 0.  1.
        -11    1    4    4    0    0 -0.10014925886E+00 -0.24367499050E-01  0.72633152953E-01  0.12609316036E+00  0.51100000000E-03 0.  1.
         11    1    4    4    0    0 -0.10321853197E-03  0.68189414317E-02  0.12028464700E-01  0.13836679528E-01  0.51100000000E-03 0. -1.
</event>
<event>
 8    1  0.2190295E+004  0.1043930E+01  0.7957747E-01            NaN
         13   -1    0    0    0    0  0.00000000000E+00  0.00000000000E+00  0.74505805969E-08  0.10566000000E+00  0.10566000000E+00 0. -1.
     999900   -1    0    0    0    0 -0.00000000000E+00 -0.00000000000E+00 -0.74505805969E-08  0.93827000000E+00  0.93827000000E+00 0. -1.
     999902    2    1    2    0    0 -0.27984571739E-02 -0.75593021231E-02 -0.75573212265E-02  0.10328806781E+01  0.10328215759E+01 0.  0.
     999903    2    3    3    0    0  0.70406950685E-01 -0.11689755465E+00 -0.33587863965E-02  0.14308771737E+00  0.42902638924E-01 0.  0.
         14    1    1    2    0    0  0.27984571739E-02  0.75593021231E-02  0.75573212265E-02  0.11049321937E-01  0.00000000000E+00 0.  1.
     999901    1    3    3    0    0 -0.73205407859E-01  0.10933825253E+00 -0.41985348300E-02  0.88979296069E+00  0.88000000000E+00 0.  1.
        -11    1    4    4    0    0 -0.18251297339E-02 -0.24176865492E-01  0.65908582299E-02  0.25130707447E-01  0.51100000000E-03 0.  1.
         11    1    4    4    0    0  0.72232080419E-01 -0.92720689163E-01 -0.99496446264E-02  0.11795700992E+00  0.51100000000E-03 0. -1.
</event>
<event>
 8    1  0.2190295E+004  0.1043930E+01  0.7957747E-01            NaN
         13   -1    0    0    0    0  0.00000000000E+00  0.00000000000E+00  0.74505805969E-08  0.10566000000E+00  0.10566000000E+00 0. -1.
     999900   -1    0    0    0    0 -0.00000000000E+00 -0.00000000000E+00 -0.74505805969E-08  0.93827000000E+00  0.93827000000E+00 0. -1.
     999902    2    1    2    0    0 -0.12695772177E-02  0.19582975668E-02  0.12890561735E-01  0.10308298726E+01  0.10307466289E+01 0.  0.
     999903    2    3    3    0    0  0.82930144195E-01 -0.29776226469E-01  0.10145169534E+00  0.14181932853E+00  0.45345815460E-01 0.  0.
         14    1    1    2    0    0  0.12695772177E-02 -0.19582975668E-02 -0.12890561735E-01  0.13100127386E-01  0.00000000000E+00 0.  1.
     999901    1    3    3    0    0 -0.84199721413E-01  0.31734524036E-01 -0.88561133603E-01  0.88901054408E+00  0.88000000000E+00 0. -1.
        -11    1    4    4    0    0  0.64935548345E-01 -0.39310072868E-01  0.92251209065E-01  0.11946737614E+00  0.51100000000E-03 0. -1.
         11    1    4    4    0    0  0.17994595850E-01  0.95338463986E-02  0.92004862732E-02  0.22351952390E-01  0.51100000000E-03 0.  1.
</event>
<event>
 8    1  0.2190295E+004  0.1043930E+01  0.7957747E-01            NaN
         13   -1    0    0    0    0  0.00000000000E+00  0.00000000000E+00  0.74505805969E-08  0.10566000000E+00  0.10566000000E+00 0.  1.
     999900   -1    0    0    0    0 -0.00000000000E+00 -0.00000000000E+00 -0.74505805969E-08  0.93827000000E+00  0.93827000000E+00 0. -1.
     999902    2    1    2    0    0  0.10338223181E-01 -0.43022827538E-02 -0.74951557693E-02  0.10304553625E+01  0.10303672589E+01 0.  0.
     999903    2    3    3    0    0  0.87272780466E-02 -0.64633087734E-01 -0.11702026781E+00  0.14161445923E+00  0.45905452547E-01 0.  0.
         14    1    1    2    0    0 -0.10338223181E-01  0.43022827538E-02  0.74951557693E-02  0.13474637488E-01  0.00000000000E+00 0.  1.
     999901    1    3    3    0    0  0.16109451344E-02  0.60330804981E-01  0.10952511204E+00  0.88884090328E+00  0.88000000000E+00 0.  1.
        -11    1    4    4    0    0 -0.11429180402E-01 -0.98561592146E-03 -0.88444869904E-02  0.14494263504E-01  0.51100000000E-03 0. -1.
         11    1    4    4    0    0  0.20156458449E-01 -0.63647471813E-01 -0.10817578082E+00  0.12712019573E+00  0.51100000000E-03 0.  1.
</event>
<event>
 8    1  0.2190295E+004  0.1043930E+01  0.7957747E-01            NaN
         13   -1    0    0    0    0  0.00000000000E+00  0.00000000000E+00  0.74505805969E-08  0.10566000000E+00  0.10566000000E+00 0.  1.
     999900   -1    0    0    0    0 -0.00000000000E+00 -0.00000000000E+00 -0.74505805969E-08  0.93827000000E+00  0.93827000000E+00 0.  1.
     999902    2    1    2    0    0 -0.16901270595E-01  0.55483013483E-02 -0.83197669541E-03  0.10261218900E+01  0.10259673506E+01 0.  0.
     999903    2    3    3    0    0  0.30557740896E-01  0.98418927451E-01 -0.78333365315E-01  0.13658056091E+00  0.43566876048E-01 0.  0.
         14    1    1    2    0    0  0.16901270595E-01 -0.55483013483E-02  0.83197669541E-03  0.17808109973E-01  0.00000000000E+00 0.  1.
     999901    1    3    3    0    0 -0.47459011491E-01 -0.92870626102E-01  0.77501388620E-01  0.88954132911E+00  0.88000000000E+00 0.  1.
        -11    1    4    4    0    0 -0.34272516607E-02  0.43200707597E-01 -0.48991564911E-01  0.65410104298E-01  0.51100000000E-03 0. -1.
         11    1    4    4    0    0  0.33984992557E-01  0.55218219854E-01 -0.29341800404E-01  0.71170456615E-01  0.51100000000E-03 0.  1.
</event>
<event>
 8    1  0.2190295E+004  0.1043930E+01  0.7957747E-01            NaN
         13   -1    0    0    0    0  0.00000000000E+00  0.00000000000E+00  0.74505805969E-08  0.10566000000E+00  0.10566000000E+00 0. -1.
     999900   -1    0    0    0    0 -0.00000000000E+00 -0.00000000000E+00 -0.74505805969E-08  0.93827000000E+00  0.93827000000E+00 0. -1.
     999902    2    1    2    0    0  0.12361492665E-01  0.24063370352E-02 -0.59174200478E-02  0.10300155177E+01  0.10299215280E+01 0.  0.
     999903    2    3    3    0    0  0.31846851013E-01  0.94221002860E-01 -0.89124513445E-01  0.14112124248E+00  0.45609285054E-01 0.  0.
         14    1    1    2    0    0 -0.12361492665E-01 -0.24063370352E-02  0.59174200478E-02  0.13914482342E-01  0.00000000000E+00 0. -1.
     999901    1    3    3    0    0 -0.19485358348E-01 -0.91814665825E-01  0.83207093398E-01  0.88889427518E+00  0.88000000000E+00 0.  1.
        -11    1    4    4    0    0  0.15826325177E-01  0.41081205735E-01 -0.11163923963E-01  0.45420615942E-01  0.51100000000E-03 0.  1.
         11    1    4    4    0    0  0.16020525836E-01  0.53139797124E-01 -0.77960589483E-01  0.95700626539E-01  0.51100000000E-03 0. -1.
</event>
<event>
 8    1  0.2190295E+004  0.1043930E+01  0.7957747E-01            NaN
         13   -1    0    0    0    0  0.00000000000E+00  0.00000000000E+00  0.74505805969E-08  0.10566000000E+00  0.10566000000E+00 0. -1.
     999900   -1    0    0    0    0 -0.00000000000E+00 -0.00000000000E+00 -0.74505805969E-08  0.93827000000E+00  0.93827000000E+00 0.  1.
     999902    2    1    2    0    0  0.15455510388E-02 -0.36706327453E-02  0.13051139797E-01  0.10302846886E+01  0.10301943239E+01 0.  0.
     999903    2    3    3    0    0  0.87343589675E-01  0.31645337724E-03 -0.98329512965E-01  0.13911531633E+00  0.45336247285E-01 0.  0.
         14    1    1    2    0    0 -0.15455510388E-02  0.36706327453E-02 -0.13051139797E-01  0.13645311384E-01  0.00000000000E+00 0.  1.
     999901    1    3    3    0    0 -0.85798038637E-01 -0.39870861226E-02  0.11138065276E+00  0.89116937229E+00  0.88000000000E+00 0. -1.
        -11    1    4    4    0    0  0.70667955332E-01  0.34144091633E-03 -0.46325801789E-01  0.84500991267E-01  0.51100000000E-03 0.  1.
         11    1    4    4    0    0  0.16675634343E-01 -0.24987539090E-04 -0.52003711176E-01  0.54614325064E-01  0.51100000000E-03 0. -1.
</event>
<event>
 8    1  0.2190295E+004  0.1043930E+01  0.7957747E-01            NaN
         13   -1    0    0    0    0  0.00000000000E+00  0.00000000000E+00  0.74505805969E-08  0.10566000000E+00  0.10566000000E+00 0. -1.
     999900   -1    0    0    0    0 -0.00000000000E+00 -0.00000000000E+00 -0.74505805969E-08  0.93827000000E+00  0.93827000000E+00 0. -1.
     999902    2    1    2    0    0 -0.64117663664E-02 -0.12012232894E-01  0.26557579018E-02  0.10300570934E+01  0.10299636684E+01 0.  0.
     999903    2    3    3    0    0 -0.89246758022E-01  0.43890137371E-02  0.99040595518E-01  0.14077610652E+00  0.44995837002E-01 0.  0.
         14    1    1    2    0    0  0.64117663664E-02  0.12012232894E-01 -0.26557579018E-02  0.13872906583E-01  0.00000000000E+00 0.  1.
     999901    1    3    3    0    0  0.82834991655E-01 -0.16401246631E-01 -0.96384837616E-01  0.88928098690E+00  0.88000000000E+00 0. -1.
        -11    1    4    4    0    0 -0.22578455685E-01 -0.18696825863E-01  0.25396601307E-01  0.38789256726E-01  0.51100000000E-03 0. -1.
         11    1    4    4    0    0 -0.66668302337E-01  0.23085839600E-01  0.73643994211E-01  0.10198684979E+00  0.51100000000E-03 0.  1.
</event>
<event>
 8    1  0.2190295E+004  0.1043930E+01  0.7957747E-01            NaN
         13   -1    0    0    0    0  0.00000000000E+00  0.00000000000E+00  0.74505805969E-08  0.10566000000E+00  0.10566000000E+00 0. -1.
     999900   -1    0    0    0    0 -0.00000000000E+00 -0.00000000000E+00 -0.74505805969E-08  0.93827000000E+00  0.93827000000E+00 0.  1.
     999902    2    1    2    0    0  0.15566594597E-01  0.47059528366E-02 -0.70392408472E-03  0.10276523967E+01  0.10275234733E+01 0.  0.
     999903    2    3    3    0    0  0.13094600208E+00 -0.37186975711E-02 -0.17992865522E-01  0.13991240669E+00  0.45728045698E-01 0.  0.
         14    1    1    2    0    0 -0.15566594597E-01 -0.47059528366E-02  0.70392408472E-03  0.16277603281E-01  0.00000000000E+00 0. -1.
     999901    1    3    3    0    0 -0.11537940748E+00  0.84246504076E-02  0.17288941437E-01  0.88773999003E+00  0.88000000000E+00 0. -1.
        -11    1    4    4    0    0  0.48821450700E-01 -0.23526165260E-01 -0.48196281045E-02  0.54410517700E-01  0.51100000000E-03 0.  1.
         11    1    4    4    0    0  0.82124551378E-01  0.19807467689E-01 -0.13173237417E-01  0.85501888987E-01  0.51100000000E-03 0. -1.
</event>
<event>
 8    1  0.2190295E+004  0.1043930E+01  0.7957747E-01            NaN
         13   -1    0    0    0    0  0.00000000000E+00  0.00000000000E+00  0.74505805969E-08  0.10566000000E+00  0.10566000000E+00 0.  1.
     999900   -1    0    0    0    0 -0.00000000000E+00 -0.00000000000E+00 -0.74505805969E-08  0.93827000000E+00  0.93827000000E+00 0.  1.
     999902    2    1    2    0    0 -0.66668997174E-02 -0.82722338438E-02  0.10143754393E-01  0.10292407809E+01  0.10291359540E+01 0.  0.
     999903    2    3    3    0    0  0.20442522460E-01  0.11007969183E+00 -0.66508028769E-01  0.13760318919E+00  0.44450922468E-01 0.  0.
         14    1    1    2    0    0  0.66668997174E-02  0.82722338438E-02 -0.10143754393E-01  0.14689219101E-01  0.00000000000E+00 0. -1.
     999901    1    3    3    0    0 -0.27109422178E-01 -0.11835192567E+00  0.76651783163E-01  0.89163759171E+00  0.88000000000E+00 0. -1.
        -11    1    4    4    0    0 -0.11232718553E-01  0.12094300911E-01 -0.15643919982E-01  0.22747295092E-01  0.51100000000E-03 0.  1.
         11    1    4    4    0    0  0.31675241013E-01  0.97985390915E-01 -0.50864108788E-01  0.11485589410E+00  0.51100000000E-03 0. -1.
</event>
<event>
 8    1  0.2190295E+004  0.1043930E+01  0.7957747E-01            NaN
         13   -1    0    0    0    0  0.00000000000E+00  0.00000000000E+00  0.74505805969E-08  0.10566000000E+00  0.10566000000E+00 0. -1.
     999900   -1    0    0    0    0 -0.00000000000E+00 -0.00000000000E+00 -0.74505805969E-08  0.93827000000E+00  0.93827000000E+00 0.  1.
     999902    2    1    2    0    0 -0.44699426095E-02  0.13953729962E-01 -0.39170548930E-02  0.10287632507E+01  0.10286514451E+01 0.  0.
     999903    2    3    3    0    0 -0.76682279256E-01  0.61866855569E-02  0.10621903255E+00  0.13892904907E+00  0.45829584012E-01 0.  0.
         14    1    1    2    0    0  0.44699426095E-02 -0.13953729962E-01  0.39170548930E-02  0.15166749349E-01  0.00000000000E+00 0.  1.
     999901    1    3    3    0    0  0.72212336646E-01  0.77670444053E-02 -0.11013608744E+00  0.88983420158E+00  0.88000000000E+00 0.  1.
        -11    1    4    4    0    0 -0.25078903282E-01 -0.18060083017E-02  0.58998874871E-02  0.25831818541E-01  0.51100000000E-03 0. -1.
         11    1    4    4    0    0 -0.51603375974E-01  0.79926938585E-02  0.10031914506E+00  0.11309723053E+00  0.51100000000E-03 0.  1.
</event>
<event>
 8    1  0.2190295E+004  0.1043930E+01  0.7957747E-01            NaN
         13   -1    0    0    0    0  0.00000000000E+00  0.00000000000E+00  0.74505805969E-08  0.10566000000E+00  0.10566000000E+00 0. -1.
     999900   -1    0    0    0    0 -0.00000000000E+00 -0.00000000000E+00 -0.74505805969E-08  0.93827000000E+00  0.93827000000E+00 0.  1.
     999902    2    1    2    0    0  0.59618684570E-02  0.85233311442E-02  0.92375317692E-02  0.10300187440E+01  0.10299247982E+01 0.  0.
     999903    2    3    3    0    0 -0.62037163046E-01 -0.52345587874E-01 -0.10397088729E+00  0.13808542829E+00  0.40853028472E-01 0.  0.
         14    1    1    2    0    0 -0.59618684570E-02 -0.85233311442E-02 -0.92375317692E-02  0.13911255963E-01  0.00000000000E+00 0.  1.
     999901    1    3    3    0    0  0.67999031503E-01  0.60868919018E-01  0.11320841905E+00  0.89193331574E+00  0.88000000000E+00 0. -1.
        -11    1    4    4    0    0 -0.46452175324E-01 -0.15523071032E-01 -0.71010275231E-01  0.86264075002E-01  0.51100000000E-03 0. -1.
         11    1    4    4    0    0 -0.15584987722E-01 -0.36822516843E-01 -0.32960612054E-01  0.51821353291E-01  0.51100000000E-03 0.  1.
</event>
<event>
 8    1  0.2190295E+004  0.1043930E+01  0.7957747E-01            NaN
         13   -1    0    0    0    0  0.00000000000E+00  0.00000000000E+00  0.74505805969E-08  0.10566000000E+00  0.10566000000E+00 0.  1.
     999900   -1    0    0    0    0 -0.00000000000E+00 -0.00000000000E+00 -0.74505805969E-08  0.93827000000E+00  0.93827000000E+00 0.  1.
     999902    2    1    2    0    0 -0.99530400254E-02  0.54393281772E-02  0.87948321468E-02  0.10295773567E+01  0.10294773116E+01 0.  0.
     999903    2    3    3    0    0  0.89336204895E-01  0.88494495588E-01 -0.38030983590E-01  0.13887585115E+00  0.45032355773E-01 0.  0.
         14    1    1    2    0    0  0.99530400254E-02 -0.54393281772E-02 -0.87948321468E-02  0.14352643285E-01  0.00000000000E+00 0. -1.
     999901    1    3    3    0    0 -0.99289244920E-01 -0.83055167411E-01  0.46825815737E-01  0.89070150556E+00  0.88000000000E+00 0.  1.
        -11    1    4    4    0    0  0.16384572914E-01 -0.24394232251E-02 -0.12060315251E-02  0.16616878415E-01  0.51100000000E-03 0.  1.
         11    1    4    4    0    0  0.72951631981E-01  0.90933918813E-01 -0.36824952065E-01  0.12225897274E+00  0.51100000000E-03 0. -1.
</event>
<event>
 7    1  0.3298084E+004  0.1043930E+01  0.7957747E-01            NaN
         13   -1    0    0    0    0  0.00000000000E+00  0.00000000000E+00  0.74505805969E-08  0.10566000000E+00  0.10566000000E+00 0. -1.
     999900   -1    0    0    0    0 -0.00000000000E+00 -0.00000000000E+00 -0.74505805969E-08  0.93827000000E+00  0.93827000000E+00 0. -1.
     999903    2    1    2    0    0 -0.52727106588E-01 -0.54177731020E-01 -0.58117474344E-01  0.10536677898E+00  0.44823464618E-01 0.  0.
         14    1    1    2    0    0  0.41170356686E-01  0.23523834692E-01  0.32677320348E-01  0.57586251253E-01  0.00000000000E+00 0. -1.
     999901    1    1    2    0    0  0.11556749903E-01  0.30653896328E-01  0.25440153996E-01  0.88097696977E+00  0.88000000000E+00 0.  1.
        -11    1    3    3    0    0 -0.12760927115E-01 -0.42018754406E-01 -0.18052197989E-01  0.47482206730E-01  0.51100000000E-03 0.  1.
         11    1    3    3    0    0 -0.39966179473E-01 -0.12158976614E-01 -0.40065276354E-01  0.57884572248E-01  0.51100000000E-03 0. -1.
</event>
<event>
 8    1  0.2190295E+004  0.1043930E+01  0.7957747E-01            NaN
         13   -1    0    0    0    0  0.00000000000E+00  0.00000000000E+00  0.74505805969E-08  0.10566000000E+00  0.10566000000E+00 0. -1.
     999900   -1    0    0    0    0 -0.00000000000E+00 -0.00000000000E+00 -0.74505805969E-08  0.93827000000E+00  0.93827000000E+00 0. -1.
     999902    2    1    2    0    0  0.23125242627E-01  0.56760188773E-02  0.73366234821E-02  0.10190137386E+01  0.10187090750E+01 0.  0.
     999903    2    3    3    0    0 -0.62308194816E-01 -0.10248909669E+00  0.78490462255E-02  0.12828435939E+00  0.44821236662E-01 0.  0.
         14    1    1    2    0    0 -0.23125242627E-01 -0.56760188773E-02 -0.73366234821E-02  0.24916261376E-01  0.00000000000E+00 0.  1.
     999901    1    3    3    0    0  0.85433437442E-01  0.10816511556E+00 -0.51242274331E-03  0.89072937924E+00  0.88000000000E+00 0.  1.
        -11    1    4    4    0    0 -0.24515800169E-01 -0.26643285510E-01 -0.16961552412E-01  0.39985553665E-01  0.51100000000E-03 0. -1.
         11    1    4    4    0    0 -0.37792394647E-01 -0.75845811176E-01  0.24810598638E-01  0.88298805722E-01  0.51100000000E-03 0.  1.
</event>
<event>
 8    1  0.2190295E+004  0.1043930E+01  0.7957747E-01            NaN
         13   -1    0    0    0    0  0.00000000000E+00  0.00000000000E+00  0.74505805969E-08  0.10566000000E+00  0.10566000000E+00 0. -1.
     999900   -1    0    0    0    0 -0.00000000000E+00 -0.00000000000E+00 -0.74505805969E-08  0.93827000000E+00  0.93827000000E+00 0. -1.
     999902    2    1    2    0    0 -0.41835624806E-02  0.11455098065E-01  0.17379598956E-01  0.10226986099E+01  0.10224782026E+01 0.  0.
     999903    2    3    3    0    0 -0.70821213048E-01  0.82681351219E-01  0.67812554276E-01  0.13587436653E+00  0.44849201825E-01 0.  0.
         14    1    1    2    0    0  0.41835624806E-02 -0.11455098065E-01 -0.17379598956E-01  0.21231390123E-01  0.00000000000E+00 0.  1.
     999901    1    3    3    0    0  0.66637650568E-01 -0.71226253154E-01 -0.50432955320E-01  0.88682424335E+00  0.88000000000E+00 0. -1.
        -11    1    4    4    0    0 -0.41152423453E-01  0.75573439903E-01  0.41292001098E-01  0.95447143752E-01  0.51100000000E-03 0. -1.
         11    1    4    4    0    0 -0.29668789595E-01  0.71079113163E-02  0.26520553178E-01  0.40427222774E-01  0.51100000000E-03 0.  1.
</event>
<event>
 8    1  0.2190295E+004  0.1043930E+01  0.7957747E-01            NaN
         13   -1    0    0    0    0  0.00000000000E+00  0.00000000000E+00  0.74505805969E-08  0.10566000000E+00  0.10566000000E+00 0. -1.
     999900   -1    0    0    0    0 -0.00000000000E+00 -0.00000000000E+00 -0.74505805969E-08  0.93827000000E+00  0.93827000000E+00 0.  1.
     999902    2    1    2    0    0 -0.12414711107E-01  0.60036048334E-02  0.41163477601E-02  0.10295385914E+01  0.10294380013E+01 0.  0.
     999903    2    3    3    0    0 -0.10863804192E+00 -0.69145872039E-01 -0.35209845203E-01  0.14023947258E+00  0.42941829239E-01 0.  0.
         14    1    1    2    0    0  0.12414711107E-01 -0.60036048334E-02 -0.41163477601E-02  0.14391408608E-01  0.00000000000E+00 0.  1.
     999901    1    3    3    0    0  0.96223330811E-01  0.75149476873E-01  0.39326192964E-01  0.88929911881E+00  0.88000000000E+00 0. -1.
        -11    1    4    4    0    0 -0.33233561829E-01 -0.27360356568E-01 -0.32581610429E-01  0.53989639770E-01  0.51100000000E-03 0.  1.
         11    1    4    4    0    0 -0.75404480089E-01 -0.41785515471E-01 -0.26282347746E-02  0.86249832810E-01  0.51100000000E-03 0. -1.
</event>
<event>
 8    1  0.2190295E+004  0.1043930E+01  0.7957747E-01            NaN
         13   -1    0    0    0    0  0.00000000000E+00  0.00000000000E+00  0.74505805969E-08  0.10566000000E+00  0.10566000000E+00 0.  1.
     999900   -1    0    0    0    0 -0.00000000000E+00 -0.00000000000E+00 -0.74505805969E-08  0.93827000000E+00  0.93827000000E+00 0.  1.
     999902    2    1    2    0    0  0.14995110411E-02  0.79505607188E-02  0.11508356718E-01  0.10298622275E+01  0.10297661411E+01 0.  0.
     999903    2    3    3    0    0 -0.10265827900E+00  0.62171406298E-02 -0.80864920284E-01  0.13891628509E+00  0.46703574239E-01 0.  0.
         14    1    1    2    0    0 -0.14995110411E-02 -0.79505607188E-02 -0.11508356718E-01  0.14067772512E-01  0.00000000000E+00 0. -1.
     999901    1    3    3    0    0  0.10415779004E+00  0.17334200891E-02  0.92373277002E-01  0.89094594240E+00  0.88000000000E+00 0. -1.
        -11    1    4    4    0    0 -0.34998543475E-01  0.23795647897E-01 -0.23022286776E-01  0.48181092906E-01  0.51100000000E-03 0.  1.
         11    1    4    4    0    0 -0.67659735522E-01 -0.17578507268E-01 -0.57842633507E-01  0.90735192184E-01  0.51100000000E-03 0. -1.
</event>
<event>
 8    1  0.2190295E+004  0.1043930E+01  0.7957747E-01            NaN
         13   -1    0    0    0    0  0.00000000000E+00  0.00000000000E+00  0.74505805969E-08  0.10566000000E+00  0.10566000000E+00 0. -1.
     999900   -1    0    0    0    0 -0.00000000000E+00 -0.00000000000E+00 -0.74505805969E-08  0.93827000000E+00  0.93827000000E+00 0. -1.
     999902    2    1    2    0    0  0.48178272208E-02 -0.11200399065E-01  0.51918860820E-02  0.10306779783E+01  0.10305927803E+01 0.  0.
     999903    2    3    3    0    0  0.25596338348E-01  0.76697207332E-01 -0.10376560100E+00  0.13937024819E+00  0.46034030680E-01 0.  0.
         14    1    1    2    0    0 -0.48178272208E-02  0.11200399065E-01 -0.51918860820E-02  0.13252021711E-01  0.00000000000E+00 0.  1.
     999901    1    3    3    0    0 -0.20778511127E-01 -0.87897606396E-01  0.10895748709E+00  0.89130773009E+00  0.88000000000E+00 0.  1.
        -11    1    4    4    0    0  0.17644031934E-01  0.24572383158E-02 -0.26382658284E-01  0.31837959453E-01  0.51100000000E-03 0. -1.
         11    1    4    4    0    0  0.79523064137E-02  0.74239969016E-01 -0.77382942720E-01  0.10753228874E+00  0.51100000000E-03 0.  1.
</event>
<event>
 8    1  0.2329969E+004  0.1043930E+01  0.7957747E-01            NaN
         13   -1    0    0    0    0  0.00000000000E+00  0.00000000000E+00  0.74505805969E-08  0.10566000000E+00  0.10566000000E+00 0. -1.
     999900   -1    0    0    0    0 -0.00000000000E+00 -0.00000000000E+00 -0.74505805969E-08  0.93827000000E+00  0.93827000000E+00 0. -1.
     999902    2    1    2    0    0  0.18019212343E-01 -0.12768338503E-01 -0.11633859922E-01  0.10189686463E+01  0.10186628652E+01 0.  0.
     999903    2    3    3    0    0  0.97003829454E-01  0.72430565286E-01 -0.29050931688E-01  0.13116192334E+00  0.41274250891E-01 0.  0.
         14    1    1    2    0    0 -0.18019212343E-01  0.12768338503E-01  0.11633859922E-01  0.24961353695E-01  0.00000000000E+00 0. -1.
     999901    1    3    3    0    0 -0.78984617111E-01 -0.85198903789E-01  0.17417071766E-01  0.88780672296E+00  0.88000000000E+00 0. -1.
        -11    1    4    4    0    0  0.62787561952E-01  0.39502949688E-01  0.23676271196E-02  0.74220130350E-01  0.51100000000E-03 0.  1.
         11    1    4    4    0    0  0.34216267502E-01  0.32927615598E-01 -0.31418558807E-01  0.56941792993E-01  0.51100000000E-03 0. -1.
</event>
<event>
 8    1  0.2190295E+004  0.1043930E+01  0.7957747E-01            NaN
         13   -1    0    0    0    0  0.00000000000E+00  0.00000000000E+00  0.74505805969E-08  0.10566000000E+00  0.10566000000E+00 0.  1.
     999900   -1    0    0    0    0 -0.00000000000E+00 -0.00000000000E+00 -0.74505805969E-08  0.93827000000E+00  0.93827000000E+00 0. -1.
     999902    2    1    2    0    0 -0.23088055789E-01 -0.15971851515E-02 -0.15173238865E-02  0.10207370788E+01  0.10204735531E+01 0.  0.
     999903    2    3    3    0    0 -0.52338686325E-01  0.35885183583E-01  0.10867142513E+00  0.13259177103E+00  0.41761401073E-01 0.  0.
         14    1    1    2    0    0  0.23088055789E-01  0.15971851515E-02  0.15173238865E-02  0.23192921168E-01  0.00000000000E+00 0.  1.
     999901    1    3    3    0    0  0.29250630536E-01 -0.37482368735E-01 -0.11018874901E+00  0.88814530780E+00  0.88000000000E+00 0. -1.
        -11    1    4    4    0    0 -0.50022852385E-01  0.12796071402E-01  0.84889995978E-01  0.99360946766E-01  0.51100000000E-03 0.  1.
         11    1    4    4    0    0 -0.23158339403E-02  0.23089112181E-01  0.23781429150E-01  0.33230824269E-01  0.51100000000E-03 0. -1.
</event>
<event>
 8    1  0.2190295E+004  0.1043930E+01  0.7957747E-01            NaN
         13   -1    0    0    0    0  0.00000000000E+00  0.00000000000E+00  0.74505805969E-08  0.10566000000E+00  0.10566000000E+00 0.  1.
     999900   -1    0    0    0    0 -0.00000000000E+00 -0.00000000000E+00 -0.74505805969E-08  0.93827000000E+00  0.93827000000E+00 0. -1.
     999902    2    1    2    0    0  0.10649289476E-01 -0.14780345184E-01  0.71829798509E-02  0.10243478354E+01  0.10241606450E+01 0.  0.
     999903    2    3    3    0    0  0.60505104167E-02 -0.67536075056E-02  0.12832377342E+00  0.13600067966E+00  0.44124530030E-01 0.  0.
         14    1    1    2    0    0 -0.10649289476E-01  0.14780345184E-01 -0.71829798509E-02  0.19582164580E-01  0.00000000000E+00 0.  1.
     999901    1    3    3    0    0  0.45987790588E-02 -0.80267376787E-02 -0.12114079357E+00  0.88834715576E+00  0.88000000000E+00 0. -1.
        -11    1    4    4    0    0  0.24603942665E-01 -0.54041375151E-02  0.88968459799E-01  0.92467327511E-01  0.51100000000E-03 0.  1.
         11    1    4    4    0    0 -0.18553432248E-01 -0.13494699905E-02  0.39355313625E-01  0.43533352145E-01  0.51100000000E-03 0. -1.
</event>
<event>
 8    1  0.2190295E+004  0.1043930E+01  0.7957747E-01            NaN
         13   -1    0    0    0    0  0.00000000000E+00  0.00000000000E+00  0.74505805969E-08  0.10566000000E+00  0.10566000000E+00 0. -1.
     999900   -1    0    0    0    0 -0.00000000000E+00 -0.00000000000E+00 -0.74505805969E-08  0.93827000000E+00  0.93827000000E+00 0.  1.
     999902    2    1    2    0    0  0.43412669533E-02  0.10302389770E-01  0.78330923283E-02  0.10302792429E+01  0.10301888056E+01 0.  0.
     999903    2    3    3    0    0 -0.61751847236E-01  0.11551880759E+00 -0.27082092308E-01  0.14086490502E+00  0.44176874020E-01 0.  0.
         14    1    1    2    0    0 -0.43412669533E-02 -0.10302389770E-01 -0.78330923283E-02  0.13650757091E-01  0.00000000000E+00 0.  1.
     999901    1    3    3    0    0  0.66093114189E-01 -0.10521641782E+00  0.34915184636E-01  0.88941433789E+00  0.88000000000E+00 0. -1.
        -11    1    4    4    0    0 -0.53092042456E-01  0.52810838190E-01 -0.16470600359E-01  0.76676537478E-01  0.51100000000E-03 0.  1.
         11    1    4    4    0    0 -0.86598047800E-02  0.62707969403E-01 -0.10611491949E-01  0.64188367543E-01  0.51100000000E-03 0. -1.
</event>
<event>
 8    1  0.2190295E+004  0.1043930E+01  0.7957747E-01            NaN
         13   -1    0    0    0    0  0.00000000000E+00  0.00000000000E+00  0.74505805969E-08  0.10566000000E+00  0.10566000000E+00 0. -1.
     999900   -1    0    0    0    0 -0.00000000000E+00 -0.00000000000E+00 -0.74505805969E-08  0.93827000000E+00  0.93827000000E+00 0. -1.
     999902    2    1    2    0    0 -0.41531080688E-03  0.13219848364E-01 -0.35693510290E-02  0.10302304693E+01  0.10301393803E+01 0.  0.
     999903    2    3    3    0    0 -0.87730953013E-01 -0.51103330194E-01 -0.85055557149E-01  0.13983645853E+00  0.44849937120E-01 0.  0.
         14    1    1    2    0    0  0.41531080688E-03 -0.13219848364E-01  0.35693510290E-02  0.13699530671E-01  0.00000000000E+00 0.  1.
     999901    1    3    3    0    0  0.87315642206E-01  0.64323178558E-01  0.81486206120E-01  0.89039401080E+00  0.88000000000E+00 0.  1.
        -11    1    4    4    0    0 -0.21553854601E-01 -0.31626327119E-01 -0.13878842603E-01  0.40714574887E-01  0.51100000000E-03 0. -1.
         11    1    4    4    0    0 -0.66177098412E-01 -0.19477003074E-01 -0.71176714546E-01  0.99121883646E-01  0.51100000000E-03 0.  1.
</event>
<event>
 8    1  0.2190295E+004  0.1043930E+01  0.7957747E-01            NaN
         13   -1    0    0    0    0  0.00000000000E+00  0.00000000000E+00  0.74505805969E-08  0.10566000000E+00  0.10566000000E+00 0.  1.
     999900   -1    0    0    0    0 -0.00000000000E+00 -0.00000000000E+00 -0.74505805969E-08  0.93827000000E+00  0.93827000000E+00 0. -1.
     999902    2    1    2    0    0  0.11267243941E-01  0.93718736783E-03 -0.83451245431E-02  0.10298775906E+01  0.10297817154E+01 0.  0.
     999903    2    3    3    0    0 -0.80640325528E-01 -0.12601259759E-01  0.10238358554E+00  0.13808661840E+00  0.43861848383E-01 0.  0.
         14    1    1    2    0    0 -0.11267243941E-01 -0.93718736783E-03  0.83451245431E-02  0.14052409396E-01  0.00000000000E+00 0.  1.
     999901    1    3    3    0    0  0.91907569469E-01  0.13538447127E-01 -0.11072871008E+00  0.89179097221E+00  0.88000000000E+00 0.  1.
        -11    1    4    4    0    0 -0.11317702168E-01 -0.19120191659E-01  0.33021688596E-01  0.39804084591E-01  0.51100000000E-03 0.  1.
         11    1    4    4    0    0 -0.69322623360E-01  0.65189318999E-02  0.69361896943E-01  0.98282533805E-01  0.51100000000E-03 0. -1.
</event>
<event>
 8    1  0.2190295E+004  0.1043930E+01  0.7957747E-01            NaN
         13   -1    0    0    0    0  0.00000000000E+00  0.00000000000E+00  0.74505805969E-08  0.10566000000E+00  0.10566000000E+00 0. -1.
     999900   -1    0    0    0    0 -0.00000000000E+00 -0.00000000000E+00 -0.74505805969E-08  0.93827000000E+00  0.93827000000E+00 0. -1.
     999902    2    1    2    0    0 -0.33929313663E-02  0.77888165179E-02  0.10951381863E-01  0.10300696100E+01  0.10299763546E+01 0.  0.
     999903    2    3    3    0    0 -0.24034675338E-01  0.38630794427E-01 -0.12401278823E+00  0.13900696552E+00  0.43286960188E-01 0.  0.
         14    1    1    2    0    0  0.33929313663E-02 -0.77888165179E-02 -0.10951381863E-01  0.13860389992E-01  0.00000000000E+00 0.  1.
     999901    1    3    3    0    0  0.20641743972E-01 -0.30841977909E-01  0.13496417009E+00  0.89106264449E+00  0.88000000000E+00 0.  1.
        -11    1    4    4    0    0  0.76961142511E-02  0.15319529717E-01 -0.13937119911E-01  0.22100285015E-01  0.51100000000E-03 0.  1.
         11    1    4    4    0    0 -0.31730789589E-01  0.23311264710E-01 -0.11007566832E+00  0.11690668050E+00  0.51100000000E-03 0. -1.
</event>
<event>
 8    1  0.2190295E+004  0.1043930E+01  0.7957747E-01            NaN
         13   -1    0    0    0    0  0.00000000000E+00  0.00000000000E+00  0.74505805969E-08  0.10566000000E+00  0.10566000000E+00 0. -1.
     999900   -1    0    0    0    0 -0.00000000000E+00 -0.00000000000E+00 -0.74505805969E-08  0.93827000000E+00  0.93827000000E+00 0. -1.
     999902    2    1    2    0    0 -0.73776256154E-03 -0.82194498978E-02  0.10224731464E-01  0.10307904116E+01  0.10307066624E+01 0.  0.
     999903    2    3    3    0    0 -0.68760544035E-01  0.72192542189E-01 -0.86397440531E-01  0.13925856617E+00  0.44594337725E-01 0.  0.
         14    1    1    2    0    0  0.73776256154E-03  0.82194498978E-02 -0.10224731464E-01  0.13139588415E-01  0.00000000000E+00 0.  1.
     999901    1    3    3    0    0  0.68022781474E-01 -0.80411992087E-01  0.96622171995E-01  0.89153184542E+00  0.88000000000E+00 0.  1.
        -11    1    4    4    0    0 -0.53257621272E-01  0.57486668279E-01 -0.39584638611E-01  0.87796901929E-01  0.51100000000E-03 0.  1.
         11    1    4    4    0    0 -0.15502922763E-01  0.14705873910E-01 -0.46812801920E-01  0.51461664239E-01  0.51100000000E-03 0. -1.
</event>
<event>
 7    1  0.2190295E+004  0.1043930E+01  0.7957747E-01            NaN
         13   -1    0    0    0    0  0.00000000000E+00  0.00000000000E+00  0.74505805969E-08  0.10566000000E+00  0.10566000000E+00 0. -1.
     999900   -1    0    0    0    0 -0.00000000000E+00 -0.00000000000E+00 -0.74505805969E-08  0.93827000000E+00  0.93827000000E+00 0.  1.
     999902    2    1    2    0    0 -0.39514849268E-02  0.12937804748E-01  0.12948253263E-02  0.10303403864E+01  0.10302507628E+01 0.  0.
         14    1    1    2    0    0  0.39514849268E-02 -0.12937804748E-01 -0.12948253263E-02  0.13589613587E-01  0.00000000000E+00 0.  1.
     999901    1    3    3    0    0 -0.51433047549E-01 -0.98401526425E-01  0.66910903506E-01  0.88949721067E+00  0.88000000000E+00 0. -1.
        -11    1    3    3    0    0  0.25274181779E-01  0.39519667513E-01 -0.39282618198E-01  0.61188018422E-01  0.51100000000E-03 0.  1.
         11    1    3    3    0    0  0.22207380843E-01  0.71819663660E-01 -0.26333459982E-01  0.79655157320E-01  0.51100000000E-03 0. -1.
</event>
<event>
 8    1  0.2190295E+004  0.1043930E+01  0.7957747E-01            NaN
         13   -1    0    0    0    0  0.00000000000E+00  0.00000000000E+00  0.74505805969E-08  0.10566000000E+00  0.10566000000E+00 0.  1.
     999900   -1    0    0    0    0 -0.00000000000E+00 -0.00000000000E+00 -0.74505805969E-08  0.93827000000E+00  0.93827000000E+00 0. -1.
     999902    2    1    2    0    0  0.36638795794E-02 -0.13378168817E-01  0.20164148038E-02  0.10299133905E+01  0.10298180065E+01 0.  0.
     999903    2    3    3    0    0  0.21869016538E-01  0.39734500420E-01 -0.12350499102E+00  0.13923499397E+00  0.45561127402E-01 0.  0.
         14    1    1    2    0    0 -0.36638795794E-02  0.13378168817E-01 -0.20164148038E-02  0.14016609544E-01  0.00000000000E+00 0. -1.
     999901    1    3    3    0    0 -0.18205136958E-01 -0.53112669237E-01  0.12552140583E+00  0.89067839649E+00  0.88000000000E+00 0.  1.
        -11    1    4    4    0    0 -0.85059722938E-02  0.14546634357E-01 -0.74152642209E-01  0.76044931478E-01  0.51100000000E-03 0. -1.
         11    1    4    4    0    0  0.30374988832E-01  0.25187866063E-01 -0.49352348814E-01  0.63190062492E-01  0.51100000000E-03 0.  1.
</event>
<event>
 8    1  0.2190295E+004  0.1043930E+01  0.7957747E-01            NaN
         13   -1    0    0    0    0  0.00000000000E+00  0.00000000000E+00  0.74505805969E-08  0.10566000000E+00  0.10566000000E+00 0.  1.
     999900   -1    0    0    0    0 -0.00000000000E+00 -0.00000000000E+00 -0.74505805969E-08  0.93827000000E+00  0.93827000000E+00 0.  1.
     999902    2    1    2    0    0  0.63425581659E-02 -0.11000011849E-01  0.62072850928E-02  0.10297963984E+01  0.10296994045E+01 0.  0.
     999903    2    3    3    0    0  0.74499789974E-01  0.10795528650E+00  0.71335320877E-02  0.13918052772E+00  0.45997493688E-01 0.  0.
         14    1    1    2    0    0 -0.63425581659E-02  0.11000011849E-01 -0.62072850928E-02  0.14133601558E-01  0.00000000000E+00 0. -1.
     999901    1    3    3    0    0 -0.68157231809E-01 -0.11895529835E+00 -0.92624699484E-03  0.89061587072E+00  0.88000000000E+00 0.  1.
        -11    1    4    4    0    0  0.73034294380E-01  0.70979438151E-01  0.24231211190E-02  0.10187355610E+00  0.51100000000E-03 0. -1.
         11    1    4    4    0    0  0.14654955946E-02  0.36975848352E-01  0.47104109686E-02  0.37306971616E-01  0.51100000000E-03 0.  1.
</event>
<event>
 8    1  0.3337866E+004  0.1043930E+01  0.7957747E-01            NaN
         13   -1    0    0    0    0  0.00000000000E+00  0.00000000000E+00  0.74505805969E-08  0.10566000000E+00  0.10566000000E+00 0. -1.
     999900   -1    0    0    0    0 -0.00000000000E+00 -0.00000000000E+00 -0.74505805969E-08  0.93827000000E+00  0.93827000000E+00 0.  1.
     999902    2    1    2    0    0  0.82439038366E-02 -0.36836288338E-02 -0.11848282646E-01  0.10290332596E+01  0.10289254281E+01 0.  0.
     999903    2    3    3    0    0 -0.10178853041E-01  0.70417701805E-02 -0.13263424848E+00  0.14052682651E+00  0.44752089596E-01 0.  0.
         14    1    1    2    0    0 -0.82439038366E-02  0.36836288338E-02  0.11848282646E-01  0.14896740366E-01  0.00000000000E+00 0. -1.
     999901    1    3    3    0    0  0.18422756877E-01 -0.10725399014E-01  0.12078596583E+00  0.88850643312E+00  0.88000000000E+00 0. -1.
        -11    1    4    4    0    0  0.15415684856E-01 -0.43198018575E-02 -0.71651286394E-01  0.73419833769E-01  0.51100000000E-03 0.  1.
         11    1    4    4    0    0 -0.25594537897E-01  0.11361572038E-01 -0.60982962087E-01  0.67106992745E-01  0.51100000000E-03 0. -1.
</event>
<event>
 8    1  0.2190295E+004  0.1043930E+01  0.7957747E-01            NaN
         13   -1    0    0    0    0  0.00000000000E+00  0.00000000000E+00  0.74505805969E-08  0.10566000000E+00  0.10566000000E+00 0. -1.
     999900   -1    0    0    0    0 -0.00000000000E+00 -0.00000000000E+00 -0.74505805969E-08  0.93827000000E+00  0.93827000000E+00 0. -1.
     999902    2    1    2    0    0  0.55744777870E-04  0.10496681342E-01 -0.13309990341E-01  0.10269789154E+01  0.10268390104E+01 0.  0.
     999903    2    3    3    0    0  0.36897876528E-01 -0.97765032146E-01  0.73288571613E-01  0.13536394680E+00  0.45085791120E-01 0.  0.
         14    1    1    2    0    0 -0.55744777870E-04 -0.10496681342E-01  0.13309990341E-01  0.16951084613E-01  0.00000000000E+00 0.  1.
     999901    1    3    3    0    0 -0.36842131750E-01  0.10826171349E+00 -0.86598561954E-01  0.89161496859E+00  0.88000000000E+00 0. -1.
        -11    1    4    4    0    0  0.37506615364E-01 -0.61180896714E-01  0.27744782957E-01  0.76940772164E-01  0.51100000000E-03 0. -1.
         11    1    4    4    0    0 -0.60873883548E-03 -0.36584135432E-01  0.45543788656E-01  0.58423174634E-01  0.51100000000E-03 0.  1.
</event>
<event>
 8    1  0.2190295E+004  0.1043930E+01  0.7957747E-01            NaN
         13   -1    0    0    0    0  0.00000000000E+00  0.00000000000E+00  0.74505805969E-08  0.10566000000E+00  0.10566000000E+00 0. -1.
     999900   -1    0    0    0    0 -0.00000000000E+00 -0.00000000000E+00 -0.74505805969E-08  0.93827000000E+00  0.93827000000E+00 0. -1.
     999902    2    1    2    0    0 -0.83483051564E-02  0.92391275407E-02 -0.52860994798E-02  0.10304023053E+01  0.10303135019E+01 0.  0.
     999903    2    3    3    0    0  0.76579290856E-01 -0.10552082757E+00 -0.14096403263E-01  0.13885299912E+00  0.45633473918E-01 0.  0.
         14    1    1    2    0    0  0.83483051564E-02 -0.92391275407E-02  0.52860994798E-02  0.13527694719E-01  0.00000000000E+00 0. -1.
     999901    1    3    3    0    0 -0.84927596012E-01  0.11475995511E+00  0.88103037833E-02  0.89154930616E+00  0.88000000000E+00 0. -1.
        -11    1    4    4    0    0  0.59358078517E-01 -0.81501218808E-01  0.91587603587E-02  0.10124215607E+00  0.51100000000E-03 0.  1.
         11    1    4    4    0    0  0.17221212339E-01 -0.24019608758E-01 -0.23255163622E-01  0.37610843056E-01  0.51100000000E-03 0. -1.
</event>
<event>
 8    1  0.2190295E+004  0.1043930E+01  0.7957747E-01            NaN
         13   -1    0    0    0    0  0.00000000000E+00  0.00000000000E+00  0.74505805969E-08  0.10566000000E+00  0.10566000000E+00 0. -1.
     999900   -1    0    0    0    0 -0.00000000000E+00 -0.00000000000E+00 -0.74505805969E-08  0.93827000000E+00  0.93827000000E+00 0.  1.
     999902    2    1    2    0    0 -0.48630039961E-02 -0.82575858306E-02  0.10420777372E-01  0.10297727004E+01  0.10296753786E+01 0.  0.
     999903    2    3    3    0    0  0.89343770075E-01 -0.94729464048E-01 -0.29106916763E-01  0.13965206776E+00  0.41225075092E-01 0.  0.
         14    1    1    2    0    0  0.48630039961E-02  0.82575858306E-02 -0.10420777372E-01  0.14157299625E-01  0.00000000000E+00 0.  1.
     999901    1    3    3    0    0 -0.94206774071E-01  0.86471878217E-01  0.39527694135E-01  0.89012063261E+00  0.88000000000E+00 0. -1.
        -11    1    4    4    0    0  0.24928648896E-01 -0.22836227866E-01  0.10363037242E-01  0.35363604183E-01  0.51100000000E-03 0.  1.
         11    1    4    4    0    0  0.64415121179E-01 -0.71893236182E-01 -0.39469954005E-01  0.10428846358E+00  0.51100000000E-03 0. -1.
</event>
<event>
 8    1  0.2190295E+004  0.1043930E+01  0.7957747E-01            NaN
         13   -1    0    0    0    0  0.00000000000E+00  0.00000000000E+00  0.74505805969E-08  0.10566000000E+00  0.10566000000E+00 0. -1.
     999900   -1    0    0    0    0 -0.00000000000E+00 -0.00000000000E+00 -0.74505805969E-08  0.93827000000E+00  0.93827000000E+00 0. -1.
     999902    2    1    2    0    0  0.43801324123E-02 -0.11937920020E-01  0.57198296591E-02  0.10299866881E+01  0.10298923059E+01 0.  0.
     999903    2    3    3    0    0 -0.83878982207E-01  0.67721017902E-01 -0.74003082200E-01  0.13842011161E+00  0.45407611713E-01 0.  0.
         14    1    1    2    0    0 -0.43801324123E-02  0.11937920020E-01 -0.57198296591E-02  0.13943311862E-01  0.00000000000E+00 0.  1.
     999901    1    3    3    0    0  0.88259114620E-01 -0.79658937922E-01  0.79722911859E-01  0.89156657653E+00  0.88000000000E+00 0. -1.
        -11    1    4    4    0    0 -0.13100203499E-01  0.36632898570E-01 -0.17484377620E-01  0.42656173892E-01  0.51100000000E-03 0.  1.
         11    1    4    4    0    0 -0.70778778708E-01  0.31088119332E-01 -0.56518704580E-01  0.95763937719E-01  0.51100000000E-03 0. -1.
</event>
<event>
 8    1  0.2190295E+004  0.1043930E+01  0.7957747E-01            NaN
         13   -1    0    0    0    0  0.00000000000E+00  0.00000000000E+00  0.74505805969E-08  0.10566000000E+00  0.10566000000E+00 0. -1.
     999900   -1    0    0    0    0 -0.00000000000E+00 -0.00000000000E+00 -0.74505805969E-08  0.93827000000E+00  0.93827000000E+00 0. -1.
     999902    2    1    2    0    0  0.98642113979E-02  0.43201515116E-02  0.17648071010E-02  0.10330175796E+01  0.10329599405E+01 0.  0.
     999903    2    3    3    0    0  0.73961186885E-01 -0.81692177349E-01 -0.78894124634E-01  0.14284208774E+00  0.45118844430E-01 0.  0.
         14    1    1    2    0    0 -0.98642113979E-02 -0.43201515116E-02 -0.17648071010E-02  0.10912420432E-01  0.00000000000E+00 0. -1.
     999901    1    3    3    0    0 -0.64096975487E-01  0.86012328860E-01  0.80658931735E-01  0.89017549183E+00  0.88000000000E+00 0.  1.
        -11    1    4    4    0    0  0.31106413493E-01 -0.47722337468E-01 -0.64972623803E-01  0.86410262229E-01  0.51100000000E-03 0.  1.
         11    1    4    4    0    0  0.42854773392E-01 -0.33969839881E-01 -0.13921500832E-01  0.56431825510E-01  0.51100000000E-03 0. -1.
</event>
<event>
 8    1  0.2190295E+004  0.1043930E+01  0.7957747E-01            NaN
         13   -1    0    0    0    0  0.00000000000E+00  0.00000000000E+00  0.74505805969E-08  0.10566000000E+00  0.10566000000E+00 0. -1.
     999900   -1    0    0    0    0 -0.00000000000E+00 -0.00000000000E+00 -0.74505805969E-08  0.93827000000E+00  0.93827000000E+00 0.  1.
     999902    2    1    2    0    0  0.64139684767E-02  0.26737078340E-02  0.11566256234E-01  0.10304368170E+01  0.10303484691E+01 0.  0.
     999903    2    3    3    0    0 -0.11347629280E+00 -0.53349557164E-01 -0.31576405409E-01  0.13949710507E+00  0.52338596342E-01 0.  0.
         14    1    1    2    0    0 -0.64139684767E-02 -0.26737078340E-02 -0.11566256234E-01  0.13493183037E-01  0.00000000000E+00 0. -1.
     999901    1    3    3    0    0  0.11989026128E+00  0.56023264998E-01  0.43142661643E-01  0.89093971189E+00  0.88000000000E+00 0.  1.
        -11    1    4    4    0    0 -0.50856181687E-01  0.19448232753E-02 -0.21865997486E-01  0.55394192118E-01  0.51100000000E-03 0. -1.
         11    1    4    4    0    0 -0.62620111116E-01 -0.55294380439E-01 -0.97104079234E-02  0.84102912954E-01  0.51100000000E-03 0.  1.
</event>
<event>
 8    1  0.2190295E+004  0.1043930E+01  0.7957747E-01            NaN
         13   -1    0    0    0    0  0.00000000000E+00  0.00000000000E+00  0.74505805969E-08  0.10566000000E+00  0.10566000000E+00 0.  1.
     999900   -1    0    0    0    0 -0.00000000000E+00 -0.00000000000E+00 -0.74505805969E-08  0.93827000000E+00  0.93827000000E+00 0.  1.
     999902    2    1    2    0    0  0.83709936690E-02 -0.43234317199E-02 -0.10718173753E-01  0.10296595815E+01  0.10295606873E+01 0.  0.
     999903    2    3    3    0    0 -0.81404331341E-01  0.47630650857E-01 -0.92506199326E-01  0.13980110012E+00  0.45734085965E-01 0.  0.
         14    1    1    2    0    0 -0.83709936690E-02  0.43234317199E-02  0.10718173753E-01  0.14270418545E-01  0.00000000000E+00 0.  1.
     999901    1    3    3    0    0  0.89775325010E-01 -0.51954082577E-01  0.81788025573E-01  0.88985848134E+00  0.88000000000E+00 0. -1.
        -11    1    4    4    0    0 -0.49268658451E-01  0.32210144679E-01 -0.84965139598E-01  0.10336454999E+00  0.51100000000E-03 0. -1.
         11    1    4    4    0    0 -0.32135672890E-01  0.15420506178E-01 -0.75410597274E-02  0.36436550135E-01  0.51100000000E-03 0.  1.
</event>
<event>
 8    1  0.2190295E+004  0.1043930E+01  0.7957747E-01            NaN
         13   -1    0    0    0    0  0.00000000000E+00  0.00000000000E+00  0.74505805969E-08  0.10566000000E+00  0.10566000000E+00 0. -1.
     999900   -1    0    0    0    0 -0.00000000000E+00 -0.00000000000E+00 -0.74505805969E-08  0.93827000000E+00  0.93827000000E+00 0.  1.
     999902    2    1    2    0    0  0.60977037566E-02 -0.10851404245E-01  0.49218824779E-02  0.10305449377E+01  0.10304580092E+01 0.  0.
     999903    2    3    3    0    0 -0.78855695034E-01 -0.39223955608E-02  0.10782500829E+00  0.14045834394E+00  0.43228557024E-01 0.  0.
         14    1    1    2    0    0 -0.60977037566E-02  0.10851404245E-01 -0.49218824779E-02  0.13385062283E-01  0.00000000000E+00 0.  1.
     999901    1    3    3    0    0  0.84953398790E-01 -0.69290086844E-02 -0.10290312581E+00  0.89008659378E+00  0.88000000000E+00 0.  1.
        -11    1    4    4    0    0 -0.36513207074E-01 -0.18890024257E-01  0.72387820016E-01  0.83248452928E-01  0.51100000000E-03 0.  1.
         11    1    4    4    0    0 -0.42342487960E-01  0.14967628696E-01  0.35437188274E-01  0.57209891008E-01  0.51100000000E-03 0. -1.
</event>
<event>
 8    1  0.2190295E+004  0.1043930E+01  0.7957747E-01            NaN
         13   -1    0    0    0    0  0.00000000000E+00  0.00000000000E+00  0.74505805969E-08  0.10566000000E+00  0.10566000000E+00 0. -1.
     999900   -1    0    0    0    0 -0.00000000000E+00 -0.00000000000E+00 -0.74505805969E-08  0.93827000000E+00  0.93827000000E+00 0.  1.
     999902    2    1    2    0    0  0.11862504992E-01  0.74450941171E-02 -0.13549593000E-01  0.10244430833E+01  0.10242577269E+01 0.  0.
     999903    2    3    3    0    0 -0.11308340774E+00  0.15796605208E-01  0.51623018372E-01  0.13319188522E+00  0.45141471179E-01 0.  0.
         14    1    1    2    0    0 -0.11862504992E-01 -0.74450941171E-02  0.13549593000E-01  0.19486916676E-01  0.00000000000E+00 0. -1.
     999901    1    3    3    0    0  0.12494591273E+00 -0.83515110913E-02 -0.65172611371E-01  0.89125119810E+00  0.88000000000E+00 0. -1.
        -11    1    4    4    0    0 -0.51769651170E-01 -0.64154910528E-02  0.37712948178E-02  0.52304293259E-01  0.51100000000E-03 0. -1.
         11    1    4    4    0    0 -0.61313756572E-01  0.22212096261E-01  0.47851723554E-01  0.80887591962E-01  0.51100000000E-03 0.  1.
</event>
<event>
 8    1  0.2190295E+004  0.1043930E+01  0.7957747E-01            NaN
         13   -1    0    0    0    0  0.00000000000E+00  0.00000000000E+00  0.74505805969E-08  0.10566000000E+00  0.10566000000E+00 0.  1.
     999900   -1    0    0    0    0 -0.00000000000E+00 -0.00000000000E+00 -0.74505805969E-08  0.93827000000E+00  0.93827000000E+00 0. -1.
     999902    2    1    2    0    0 -0.52755331479E-02  0.12587271895E-01  0.17468991875E-02  0.10301705552E+01  0.10300786623E+01 0.  0.
     999903    2    3    3    0    0 -0.10400849354E+00  0.76690040897E-01 -0.35802332296E-01  0.14153828750E+00  0.45300670295E-01 0.  0.
         14    1    1    2    0    0  0.52755331479E-02 -0.12587271895E-01 -0.17468991875E-02  0.13759444775E-01  0.00000000000E+00 0. -1.
     999901    1    3    3    0    0  0.98732960390E-01 -0.64102769002E-01  0.37549231484E-01  0.88863226773E+00  0.88000000000E+00 0.  1.
        -11    1    4    4    0    0 -0.78155921215E-01  0.71971835414E-01 -0.13567061408E-01  0.10711031412E+00  0.51100000000E-03 0.  1.
         11    1    4    4    0    0 -0.25852572323E-01  0.47182054827E-02 -0.22235270888E-01  0.34427973382E-01  0.51100000000E-03 0. -1.
</event>
<event>
 8    1  0.2190295E+004  0.1043930E+01  0.7957747E-01            NaN
         13   -1    0    0    0    0  0.00000000000E+00  0.00000000000E+00  0.74505805969E-08  0.10566000000E+00  0.10566000000E+00 0.  1.
     999900   -1    0    0    0    0 -0.00000000000E+00 -0.00000000000E+00 -0.74505805969E-08  0.93827000000E+00  0.93827000000E+00 0.  1.
     999902    2    1    2    0    0  0.11743965202E-01 -0.30957398575E-02 -0.63403176335E-02  0.10302294908E+01  0.10301383887E+01 0.  0.
     999903    2    3    3    0    0 -0.36205468103E-01  0.58314163406E-01 -0.11309392698E+00  0.14036059178E+00  0.46898633575E-01 0.  0.
         14    1    1    2    0    0 -0.11743965202E-01  0.30957398575E-02  0.63403176335E-02  0.13700509174E-01  0.00000000000E+00 0.  1.
     999901    1    3    3    0    0  0.47949433305E-01 -0.61409903264E-01  0.10675360935E+00  0.88986889904E+00  0.88000000000E+00 0. -1.
        -11    1    4    4    0    0 -0.40068106931E-01  0.59701957143E-01 -0.82280656389E-01  0.10927096786E+00  0.51100000000E-03 0. -1.
         11    1    4    4    0    0  0.38626388279E-02 -0.13877937370E-02 -0.30813270594E-01  0.31089623926E-01  0.51100000000E-03 0.  1.
</event>
<event>
 8    1  0.2190295E+004  0.1043930E+01  0.7957747E-01            NaN
         13   -1    0    0    0    0  0.00000000000E+00  0.00000000000E+00  0.74505805969E-08  0.10566000000E+00  0.10566000000E+00 0.  1.
     999900   -1    0    0    0    0 -0.00000000000E+00 -0.00000000000E+00 -0.74505805969E-08  0.93827000000E+00  0.93827000000E+00 0.  1.
     999902    2    1    2    0    0  0.12233545685E-01 -0.70485711457E-02 -0.34137263400E-03  0.10298070212E+01  0.10297101740E+01 0.  0.
     999903    2    3    3    0    0 -0.10144857998E+00  0.74877364572E-01 -0.33690336474E-01  0.13809650873E+00  0.45135051187E-01 0.  0.
         14    1    1    2    0    0 -0.12233545685E-01  0.70485711457E-02  0.34137263400E-03  0.14122978811E-01  0.00000000000E+00 0. -1.
     999901    1    3    3    0    0  0.11368212567E+00 -0.81925935717E-01  0.33348963840E-01  0.89171051246E+00  0.88000000000E+00 0.  1.
        -11    1    4    4    0    0 -0.66342493853E-01  0.21187738693E-01 -0.20550046046E-01  0.72614132750E-01  0.51100000000E-03 0. -1.
         11    1    4    4    0    0 -0.35106086131E-01  0.53689625878E-01 -0.13140290429E-01  0.65482375980E-01  0.51100000000E-03 0.  1.
</event>
<event>
 8    1  0.2190295E+004  0.1043930E+01  0.7957747E-01            NaN
         13   -1    0    0    0    0  0.00000000000E+00  0.00000000000E+00  0.74505805969E-08  0.10566000000E+00  0.10566000000E+00 0.  1.
     999900   -1    0    0    0    0 -0.00000000000E+00 -0.00000000000E+00 -0.74505805969E-08  0.93827000000E+00  0.93827000000E+00 0.  1.
     999902    2    1    2    0    0 -0.11706267252E-01 -0.20311141196E-02  0.69088278082E-02  0.10301861279E+01  0.10300944443E+01 0.  0.
     999903    2    3    3    0    0 -0.41110230050E-01  0.29529400389E-01  0.12432498517E+00  0.14134012715E+00  0.44252605607E-01 0.  0.
         14    1    1    2    0    0  0.11706267252E-01  0.20311141196E-02 -0.69088278082E-02  0.13743872061E-01  0.00000000000E+00 0. -1.
     999901    1    3    3    0    0  0.29403962797E-01 -0.31560514508E-01 -0.11741615736E+00  0.88884600079E+00  0.88000000000E+00 0.  1.
        -11    1    4    4    0    0 -0.44728814025E-01  0.17347681898E-01  0.11747505566E+00  0.12689467559E+00  0.51100000000E-03 0.  1.
         11    1    4    4    0    0  0.36185839754E-02  0.12181718490E-01  0.68499295165E-02  0.14445451559E-01  0.51100000000E-03 0. -1.
</event>
<event>
 8    1  0.2190295E+004  0.1043930E+01  0.7957747E-01            NaN
         13   -1    0    0    0    0  0.00000000000E+00  0.00000000000E+00  0.74505805969E-08  0.10566000000E+00  0.10566000000E+00 0.  1.
     999900   -1    0    0    0    0 -0.00000000000E+00 -0.00000000000E+00 -0.74505805969E-08  0.93827000000E+00  0.93827000000E+00 0. -1.
     999902    2    1    2    0    0 -0.71414682426E-02 -0.97013675531E-02 -0.74258171442E-02  0.10297786799E+01  0.10296814409E+01 0.  0.
     999903    2    3    3    0    0  0.34841779528E-01  0.11442076275E+00 -0.55817522738E-01  0.13876203946E+00  0.42816436104E-01 0.  0.
         14    1    1    2    0    0  0.71414682426E-02  0.97013675531E-02  0.74258171442E-02  0.14151320126E-01  0.00000000000E+00 0.  1.
     999901    1    3    3    0    0 -0.41983247770E-01 -0.12412213031E+00  0.48391705594E-01  0.89101664041E+00  0.88000000000E+00 0.  1.
        -11    1    4    4    0    0  0.30154717677E-01  0.31841983773E-01 -0.13728670291E-01  0.45956027219E-01  0.51100000000E-03 0.  1.
         11    1    4    4    0    0  0.46870618505E-02  0.82578778980E-01 -0.42088852447E-01  0.92806012240E-01  0.51100000000E-03 0. -1.
</event>
<event>
 8    1  0.2190295E+004  0.1043930E+01  0.7957747E-01            NaN
         13   -1    0    0    0    0  0.00000000000E+00  0.00000000000E+00  0.74505805969E-08  0.10566000000E+00  0.10566000000E+00 0. -1.
     999900   -1    0    0    0    0 -0.00000000000E+00 -0.00000000000E+00 -0.74505805969E-08  0.93827000000E+00  0.93827000000E+00 0.  1.
     999902    2    1    2    0    0  0.60249237933E-02  0.54811160869E-03  0.13653375236E-01  0.10289963203E+01  0.10288879494E+01 0.  0.
     999903    2    3    3    0    0 -0.11464298412E+00 -0.47666631209E-01  0.43689500072E-01  0.13894712269E+00  0.44524251251E-01 0.  0.
         14    1    1    2    0    0 -0.60249237933E-02 -0.54811160869E-03 -0.13653375236E-01  0.14933679667E-01  0.00000000000E+00 0.  1.
     999901    1    3    3    0    0  0.12066790791E+00  0.48214742818E-01 -0.30036124836E-01  0.89004919764E+00  0.88000000000E+00 0. -1.
        -11    1    4    4    0    0 -0.10629519353E+00 -0.33267703440E-01  0.25452913585E-01  0.11425200301E+00  0.51100000000E-03 0. -1.
         11    1    4    4    0    0 -0.83477905868E-02 -0.14398927769E-01  0.18236586487E-01  0.24695119685E-01  0.51100000000E-03 0.  1.
</event>
<event>
 8    1  0.2190295E+004  0.1043930E+01  0.7957747E-01            NaN
         13   -1    0    0    0    0  0.00000000000E+00  0.00000000000E+00  0.74505805969E-08  0.10566000000E+00  0.10566000000E+00 0. -1.
     999900   -1    0    0    0    0 -0.00000000000E+00 -0.00000000000E+00 -0.74505805969E-08  0.93827000000E+00  0.93827000000E+00 0.  1.
     999902    2    1    2    0    0  0.11069939285E-01 -0.40468893896E-02 -0.40511299849E-02  0.10314667531E+01  0.10313914534E+01 0.  0.
     999903    2    3    3    0    0 -0.34592888288E-01  0.12842448910E+00 -0.66530416190E-02  0.14037723464E+00  0.44407068374E-01 0.  0.
         14    1    1    2    0    0 -0.11069939285E-01  0.40468893896E-02  0.40511299849E-02  0.12463246914E-01  0.00000000000E+00 0.  1.
     999901    1    3    3    0    0  0.45662827572E-01 -0.13247137849E+00  0.26019116341E-02  0.89108951845E+00  0.88000000000E+00 0.  1.
        -11    1    4    4    0    0 -0.25892199770E-01  0.51372717881E-01  0.15777108772E-01  0.59655179437E-01  0.51100000000E-03 0. -1.
         11    1    4    4    0    0 -0.87006885179E-02  0.77051771218E-01 -0.22430150391E-01  0.80722055202E-01  0.51100000000E-03 0.  1.
</event>
<event>
 8    1  0.2190295E+004  0.1043930E+01  0.7957747E-01            NaN
         13   -1    0    0    0    0  0.00000000000E+00  0.00000000000E+00  0.74505805969E-08  0.10566000000E+00  0.10566000000E+00 0.  1.
     999900   -1    0    0    0    0 -0.00000000000E+00 -0.00000000000E+00 -0.74505805969E-08  0.93827000000E+00  0.93827000000E+00 0. -1.
     999902    2    1    2    0    0  0.81831868631E-02  0.19030078147E-02  0.11015213811E-01  0.10300764473E+01  0.10299832845E+01 0.  0.
     999903    2    3    3    0    0  0.40055974659E-01  0.12215304697E+00 -0.38517824147E-01  0.13994754186E+00  0.39696897941E-01 0.  0.
         14    1    1    2    0    0 -0.81831868631E-02 -0.19030078147E-02 -0.11015213811E-01  0.13853552660E-01  0.00000000000E+00 0. -1.
     999901    1    3    3    0    0 -0.31872787796E-01 -0.12025003916E+00  0.49533037959E-01  0.89012890548E+00  0.88000000000E+00 0.  1.
        -11    1    4    4    0    0  0.10253350798E-01  0.64434698985E-01 -0.36917185727E-01  0.74967335280E-01  0.51100000000E-03 0.  1.
         11    1    4    4    0    0  0.29802623861E-01  0.57718347985E-01 -0.16006384204E-02  0.64980206583E-01  0.51100000000E-03 0. -1.
</event>
<event>
 8    1  0.2190295E+004  0.1043930E+01  0.7957747E-01            NaN
         13   -1    0    0    0    0  0.00000000000E+00  0.00000000000E+00  0.74505805969E-08  0.10566000000E+00  0.10566000000E+00 0. -1.
     999900   -1    0    0    0    0 -0.00000000000E+00 -0.00000000000E+00 -0.74505805969E-08  0.93827000000E+00  0.93827000000E+00 0.  1.
     999902    2    1    2    0    0  0.12930344888E-01 -0.62123156148E-02 -0.34191642644E-02  0.10291828861E+01  0.10290772253E+01 0.  0.
     999903    2    3    3    0    0  0.39031389995E-01 -0.12689251716E+00  0.70827082962E-02  0.14050112926E+00  0.45444936469E-01 0.  0.
         14    1    1    2    0    0 -0.12930344888E-01  0.62123156148E-02  0.34191642644E-02  0.14747113904E-01  0.00000000000E+00 0.  1.
     999901    1    3    3    0    0 -0.26101045107E-01  0.12068020155E+00 -0.10501872561E-01  0.88868175683E+00  0.88000000000E+00 0. -1.
        -11    1    4    4    0    0  0.19415007592E-02 -0.50005997312E-01  0.20508186214E-01  0.54085266156E-01  0.51100000000E-03 0. -1.
         11    1    4    4    0    0  0.37089889236E-01 -0.76886519849E-01 -0.13425477918E-01  0.86415863106E-01  0.51100000000E-03 0.  1.
</event>
<event>
 8    1  0.2190295E+004  0.1043930E+01  0.7957747E-01            NaN
         13   -1    0    0    0    0  0.00000000000E+00  0.00000000000E+00  0.74505805969E-08  0.10566000000E+00  0.10566000000E+00 0. -1.
     999900   -1    0    0    0    0 -0.00000000000E+00 -0.00000000000E+00 -0.74505805969E-08  0.93827000000E+00  0.93827000000E+00 0.  1.
     999902    2    1    2    0    0 -0.11390818184E-01 -0.72288924540E-02  0.67674797389E-02  0.10288367430E+01  0.10287260264E+01 0.  0.
     999903    2    3    3    0    0  0.83065774777E-01  0.44105139386E-01  0.91017193322E-01  0.13830025019E+00  0.44695004897E-01 0.  0.
         14    1    1    2    0    0  0.11390818184E-01  0.72288924540E-02 -0.67674797389E-02  0.15093257005E-01  0.00000000000E+00 0.  1.
     999901    1    3    3    0    0 -0.94456592961E-01 -0.51334031840E-01 -0.84249713583E-01  0.89053649281E+00  0.88000000000E+00 0.  1.
        -11    1    4    4    0    0  0.99785377404E-02  0.26826234870E-01  0.19864355536E-01  0.34843533613E-01  0.51100000000E-03 0.  1.
         11    1    4    4    0    0  0.73087237037E-01  0.17278904515E-01  0.71152837786E-01  0.10345671658E+00  0.51100000000E-03 0. -1.
</event>
<event>
 8    1  0.2190295E+004  0.1043930E+01  0.7957747E-01            NaN
         13   -1    0    0    0    0  0.00000000000E+00  0.00000000000E+00  0.74505805969E-08  0.10566000000E+00  0.10566000000E+00 0. -1.
     999900   -1    0    0    0    0 -0.00000000000E+00 -0.00000000000E+00 -0.74505805969E-08  0.93827000000E+00  0.93827000000E+00 0. -1.
     999902    2    1    2    0    0 -0.42683041866E-03 -0.12701953711E-01 -0.14961214152E-01  0.10242994182E+01  0.10241112920E+01 0.  0.
     999903    2    3    3    0    0 -0.10791371661E+00 -0.48205677492E-01  0.47264654345E-01  0.13486926142E+00  0.44571432010E-01 0.  0.
         14    1    1    2    0    0  0.42683041866E-03  0.12701953711E-01  0.14961214152E-01  0.19630581784E-01  0.00000000000E+00 0. -1.
     999901    1    3    3    0    0  0.10748688619E+00  0.35503723782E-01 -0.62225868496E-01  0.88943015679E+00  0.88000000000E+00 0. -1.
        -11    1    4    4    0    0 -0.47390269916E-01 -0.35159639258E-01  0.36295719540E-02  0.59122523872E-01  0.51100000000E-03 0. -1.
         11    1    4    4    0    0 -0.60523446693E-01 -0.13046038234E-01  0.43635082391E-01  0.75746737550E-01  0.51100000000E-03 0.  1.
</event>
<event>
 8    1  0.2190295E+004  0.1043930E+01  0.7957747E-01            NaN
         13   -1    0    0    0    0  0.00000000000E+00  0.00000000000E+00  0.74505805969E-08  0.10566000000E+00  0.10566000000E+00 0. -1.
     999900   -1    0    0    0    0 -0.00000000000E+00 -0.00000000000E+00 -0.74505805969E-08  0.93827000000E+00  0.93827000000E+00 0.  1.
     999902    2    1    2    0    0  0.19546501368E-02 -0.87546462908E-02 -0.11076507465E-01  0.10296768071E+01  0.10295781533E+01 0.  0.
     999903    2    3    3    0    0 -0.11595479362E+00  0.59672424828E-01  0.15523613107E-01  0.13878261175E+00  0.44870015715E-01 0.  0.
         14    1    1    2    0    0 -0.19546501368E-02  0.87546462908E-02  0.11076507465E-01  0.14253192851E-01  0.00000000000E+00 0. -1.
     999901    1    3    3    0    0  0.11790944376E+00 -0.68427071119E-01 -0.26600120572E-01  0.89089419540E+00  0.88000000000E+00 0.  1.
        -11    1    4    4    0    0 -0.10673283529E+00  0.67012411180E-01  0.12805027500E-01  0.12667592996E+00  0.51100000000E-03 0. -1.
         11    1    4    4    0    0 -0.92219583265E-02 -0.73399863518E-02  0.27185856072E-02  0.12106681780E-01  0.51100000000E-03 0.  1.
</event>
<event>
 8    1  0.2190295E+004  0.1043930E+01  0.7957747E-01            NaN
         13   -1    0    0    0    0  0.00000000000E+00  0.00000000000E+00  0.74505805969E-08  0.10566000000E+00  0.10566000000E+00 0.  1.
     999900   -1    0    0    0    0 -0.00000000000E+00 -0.00000000000E+00 -0.74505805969E-08  0.93827000000E+00  0.93827000000E+00 0. -1.
     999902    2    1    2    0    0  0.63377368902E-02  0.77297490416E-03 -0.12617227100E-01  0.10297893204E+01  0.10296922286E+01 0.  0.
     999903    2    3    3    0    0 -0.12045876351E+00 -0.50691865001E-01  0.13245796414E-01  0.13883765044E+00  0.44949562547E-01 0.  0.
         14    1    1    2    0    0 -0.63377368902E-02 -0.77297490416E-03  0.12617227100E-01  0.14140679573E-01  0.00000000000E+00 0.  1.
     999901    1    3    3    0    0  0.12679650040E+00  0.51464839905E-01 -0.25863023514E-01  0.89095166998E+00  0.88000000000E+00 0. -1.
        -11    1    4    4    0    0 -0.78651184706E-01 -0.47299527255E-01 -0.74126026199E-02  0.92078563916E-01  0.51100000000E-03 0.  1.
         11    1    4    4    0    0 -0.41807578809E-01 -0.33923377459E-02  0.20658399034E-01  0.46759086527E-01  0.51100000000E-03 0. -1.
</event>
<event>
 8    1  0.2190295E+004  0.1043930E+01  0.7957747E-01            NaN
         13   -1    0    0    0    0  0.00000000000E+00  0.00000000000E+00  0.74505805969E-08  0.10566000000E+00  0.10566000000E+00 0.  1.
     999900   -1    0    0    0    0 -0.00000000000E+00 -0.00000000000E+00 -0.74505805969E-08  0.93827000000E+00  0.93827000000E+00 0.  1.
     999902    2    1    2    0    0  0.15125973213E-01 -0.31420714373E-02 -0.19757973034E-02  0.10283552944E+01  0.10282373462E+01 0.  0.
     999903    2    3    3    0    0 -0.56863119635E-01  0.85226711719E-01  0.79042387260E-01  0.13731353472E+00  0.45938013317E-01 0.  0.
         14    1    1    2    0    0 -0.15125973213E-01  0.31420714373E-02  0.19757973034E-02  0.15574705568E-01  0.00000000000E+00 0.  1.
     999901    1    3    3    0    0  0.71989092848E-01 -0.88368783157E-01 -0.81018184564E-01  0.89104175971E+00  0.88000000000E+00 0.  1.
        -11    1    4    4    0    0 -0.81327785128E-02  0.36113689772E-01  0.74723025734E-02  0.37768202261E-01  0.51100000000E-03 0. -1.
         11    1    4    4    0    0 -0.48730341123E-01  0.49113021948E-01  0.71570084687E-01  0.99545332456E-01  0.51100000000E-03 0.  1.
</event>
<event>
 8    1  0.2190295E+004  0.1043930E+01  0.7957747E-01            NaN
         13   -1    0    0    0    0  0.00000000000E+00  0.00000000000E+00  0.74505805969E-08  0.10566000000E+00  0.10566000000E+00 0.  1.
     999900   -1    0    0    0    0 -0.00000000000E+00 -0.00000000000E+00 -0.74505805969E-08  0.93827000000E+00  0.93827000000E+00 0. -1.
     999902    2    1    2    0    0 -0.41510736366E-02 -0.10926394487E-02  0.13402074149E-01  0.10298573007E+01  0.10297611466E+01 0.  0.
     999903    2    3    3    0    0 -0.57897888236E-01  0.88432843573E-01  0.81467332152E-01  0.14107363102E+00  0.45741773873E-01 0.  0.
         14    1    1    2    0    0  0.41510736366E-02  0.10926394487E-02 -0.13402074149E-01  0.14072699272E-01  0.00000000000E+00 0. -1.
     999901    1    3    3    0    0  0.53746814600E-01 -0.89525483022E-01 -0.68065258003E-01  0.88878366971E+00  0.88000000000E+00 0. -1.
        -11    1    4    4    0    0 -0.48190757445E-01  0.58314089042E-01  0.78919688790E-01  0.10932273544E+00  0.51100000000E-03 0. -1.
         11    1    4    4    0    0 -0.97071307918E-02  0.30118754531E-01  0.25476433624E-02  0.31750895584E-01  0.51100000000E-03 0.  1.
</event>
<event>
 8    1  0.2190295E+004  0.1043930E+01  0.7957747E-01            NaN
         13   -1    0    0    0    0  0.00000000000E+00  0.00000000000E+00  0.74505805969E-08  0.10566000000E+00  0.10566000000E+00 0. -1.
     999900   -1    0    0    0    0 -0.00000000000E+00 -0.00000000000E+00 -0.74505805969E-08  0.93827000000E+00  0.93827000000E+00 0. -1.
     999902    2    1    2    0    0 -0.57983657927E-02  0.10090433428E-01 -0.79845780538E-02  0.10298164824E+01  0.10297197658E+01 0.  0.
     999903    2    3    3    0    0  0.11416177630E+00 -0.14149180020E-01 -0.65438213231E-01  0.13949130879E+00  0.44074425853E-01 0.  0.
         14    1    1    2    0    0  0.57983657927E-02 -0.10090433428E-01  0.79845780538E-02  0.14113517610E-01  0.00000000000E+00 0. -1.
     999901    1    3    3    0    0 -0.11996014209E+00  0.24239613447E-01  0.57453635177E-01  0.89032517360E+00  0.88000000000E+00 0.  1.
        -11    1    4    4    0    0  0.10536661919E+00 -0.22882046769E-01 -0.47839599089E-01  0.11796016644E+00  0.51100000000E-03 0. -1.
         11    1    4    4    0    0  0.87951571037E-02  0.87328667487E-02 -0.17598614142E-01  0.21531142349E-01  0.51100000000E-03 0.  1.
</event>
<event>
 8    1  0.2190295E+004  0.1043930E+01  0.7957747E-01            NaN
         13   -1    0    0    0    0  0.00000000000E+00  0.00000000000E+00  0.74505805969E-08  0.10566000000E+00  0.10566000000E+00 0.  1.
     999900   -1    0    0    0    0 -0.00000000000E+00 -0.00000000000E+00 -0.74505805969E-08  0.93827000000E+00  0.93827000000E+00 0. -1.
     999902    2    1    2    0    0 -0.28851999125E-03 -0.13764905996E-01 -0.14494155943E-02  0.10300859873E+01  0.10299929537E+01 0.  0.
     999903    2    3    3    0    0 -0.12556338328E+00  0.39570967838E-01 -0.91617887415E-02  0.13958164288E+00  0.45465062853E-01 0.  0.
         14    1    1    2    0    0  0.28851999125E-03  0.13764905996E-01  0.14494155943E-02  0.13844012656E-01  0.00000000000E+00 0.  1.
     999901    1    3    3    0    0  0.12527486329E+00 -0.53335873834E-01  0.77123731472E-02  0.89050434446E+00  0.88000000000E+00 0. -1.
        -11    1    4    4    0    0 -0.45601117977E-01  0.26422972741E-01 -0.22761776738E-01  0.57410757272E-01  0.51100000000E-03 0.  1.
         11    1    4    4    0    0 -0.79962265301E-01  0.13147995097E-01  0.13599987996E-01  0.82170885608E-01  0.51100000000E-03 0. -1.
</event>
<event>
 8    1  0.2190295E+004  0.1043930E+01  0.7957747E-01            NaN
         13   -1    0    0    0    0  0.00000000000E+00  0.00000000000E+00  0.74505805969E-08  0.10566000000E+00  0.10566000000E+00 0.  1.
     999900   -1    0    0    0    0 -0.00000000000E+00 -0.00000000000E+00 -0.74505805969E-08  0.93827000000E+00  0.93827000000E+00 0.  1.
     999902    2    1    2    0    0  0.15571629250E-01 -0.61652802891E-02 -0.38439064706E-02  0.10267468124E+01  0.10266030172E+01 0.  0.
     999903    2    3    3    0    0 -0.75453719194E-01 -0.64969539612E-01 -0.82105458984E-01  0.13665219634E+00  0.44924509469E-01 0.  0.
         14    1    1    2    0    0 -0.15571629250E-01  0.61652802891E-02  0.38439064706E-02  0.17183187582E-01  0.00000000000E+00 0.  1.
     999901    1    3    3    0    0  0.91025348444E-01  0.58804259323E-01  0.78261552514E-01  0.89009461608E+00  0.88000000000E+00 0.  1.
        -11    1    4    4    0    0 -0.38487579760E-01 -0.60848183920E-01 -0.52442236069E-01  0.89074376377E-01  0.51100000000E-03 0. -1.
         11    1    4    4    0    0 -0.36966139434E-01 -0.41213556927E-02 -0.29663222915E-01  0.47577819960E-01  0.51100000000E-03 0.  1.
</event>
<event>
 8    1  0.2190295E+004  0.1043930E+01  0.7957747E-01            NaN
         13   -1    0    0    0    0  0.00000000000E+00  0.00000000000E+00  0.74505805969E-08  0.10566000000E+00  0.10566000000E+00 0.  1.
     999900   -1    0    0    0    0 -0.00000000000E+00 -0.00000000000E+00 -0.74505805969E-08  0.93827000000E+00  0.93827000000E+00 0.  1.
     999902    2    1    2    0    0 -0.11700323996E-01 -0.60647544428E-02  0.41912987265E-02  0.10301008347E+01  0.10300080018E+01 0.  0.
     999903    2    3    3    0    0 -0.65075729512E-01 -0.25035139763E-02  0.11680686593E+00  0.14131296218E+00  0.45655133328E-01 0.  0.
         14    1    1    2    0    0  0.11700323996E-01  0.60647544428E-02 -0.41912987265E-02  0.13829165307E-01  0.00000000000E+00 0.  1.
     999901    1    3    3    0    0  0.53375405516E-01 -0.35612404665E-02 -0.11261556720E+00  0.88878787251E+00  0.88000000000E+00 0.  1.
        -11    1    4    4    0    0 -0.40441332514E-01 -0.16128565270E-01  0.38585376918E-01  0.58178384526E-01  0.51100000000E-03 0.  1.
         11    1    4    4    0    0 -0.24634396998E-01  0.13625051294E-01  0.78221489009E-01  0.83134577656E-01  0.51100000000E-03 0. -1.
</event>
<event>
 8    1  0.2190295E+004  0.1043930E+01  0.7957747E-01            NaN
         13   -1    0    0    0    0  0.00000000000E+00  0.00000000000E+00  0.74505805969E-08  0.10566000000E+00  0.10566000000E+00 0.  1.
     999900   -1    0    0    0    0 -0.00000000000E+00 -0.00000000000E+00 -0.74505805969E-08  0.93827000000E+00  0.93827000000E+00 0. -1.
     999902    2    1    2    0    0 -0.97372529721E-02 -0.74234168172E-02 -0.48994878381E-02  0.10307418920E+01  0.10306575191E+01 0.  0.
     999903    2    3    3    0    0 -0.10518653109E+00  0.12303019666E-02  0.82816551746E-01  0.14120293545E+00  0.44877252273E-01 0.  0.
         14    1    1    2    0    0  0.97372529721E-02  0.74234168172E-02  0.48994878381E-02  0.13188108043E-01  0.00000000000E+00 0. -1.
     999901    1    3    3    0    0  0.95449278116E-01 -0.86537187838E-02 -0.87716039584E-01  0.88953895651E+00  0.88000000000E+00 0. -1.
        -11    1    4    4    0    0 -0.62120070652E-01  0.16545900802E-01  0.28810440507E-01  0.70448368430E-01  0.51100000000E-03 0.  1.
         11    1    4    4    0    0 -0.43066460435E-01 -0.15315598836E-01  0.54006111239E-01  0.70754567021E-01  0.51100000000E-03 0. -1.
</event>
<event>
 8    1  0.2190295E+004  0.1043930E+01  0.7957747E-01            NaN
         13   -1    0    0    0    0  0.00000000000E+00  0.00000000000E+00  0.74505805969E-08  0.10566000000E+00  0.10566000000E+00 0.  1.
     999900   -1    0    0    0    0 -0.00000000000E+00 -0.00000000000E+00 -0.74505805969E-08  0.93827000000E+00  0.93827000000E+00 0. -1.
     999902    2    1    2    0    0  0.83004371587E-02  0.11492062983E-01 -0.13105935565E-02  0.10296933422E+01  0.10295949187E+01 0.  0.
     999903    2    3    3    0    0  0.19733915059E-01  0.37149849046E-01  0.12578600883E+00  0.14011895371E+00  0.45184759404E-01 0.  0.
         14    1    1    2    0    0 -0.83004371587E-02 -0.11492062983E-01  0.13105935565E-02  0.14236657758E-01  0.00000000000E+00 0.  1.
     999901    1    3    3    0    0 -0.11433477900E-01 -0.25657786063E-01 -0.12709660239E+00  0.88957438854E+00  0.88000000000E+00 0. -1.
        -11    1    4    4    0    0 -0.72548914913E-02 -0.68780987436E-02  0.23176773405E-01  0.25246101468E-01  0.51100000000E-03 0. -1.
         11    1    4    4    0    0  0.26988806550E-01  0.44027947790E-01  0.10260923543E+00  0.11487285224E+00  0.51100000000E-03 0.  1.
</event>
<event>
 8    1  0.2190295E+004  0.1043930E+01  0.7957747E-01            NaN
         13   -1    0    0    0    0  0.00000000000E+00  0.00000000000E+00  0.74505805969E-08  0.10566000000E+00  0.10566000000E+00 0.  1.
     999900   -1    0    0    0    0 -0.00000000000E+00 -0.00000000000E+00 -0.74505805969E-08  0.93827000000E+00  0.93827000000E+00 0.  1.
     999902    2    1    2    0    0  0.25449686963E-02 -0.12913360252E-01  0.73554028491E-03  0.10307477104E+01  0.10306634125E+01 0.  0.
     999903    2    3    3    0    0 -0.88468234976E-01  0.95042300722E-01 -0.24314075238E-01  0.13913943814E+00  0.43691434699E-01 0.  0.
         14    1    1    2    0    0 -0.25449686963E-02  0.12913360252E-01 -0.73554028491E-03  0.13182289565E-01  0.00000000000E+00 0.  1.
     999901    1    3    3    0    0  0.91013203673E-01 -0.10795566097E+00  0.25049615523E-01  0.89160827229E+00  0.88000000000E+00 0. -1.
        -11    1    4    4    0    0 -0.16304556246E-01  0.58899626000E-02 -0.16875907482E-01  0.24198917086E-01  0.51100000000E-03 0. -1.
         11    1    4    4    0    0 -0.72163678731E-01  0.89152338122E-01 -0.74381677561E-02  0.11494052106E+00  0.51100000000E-03 0.  1.
</event>
<event>
 8    1  0.2190295E+004  0.1043930E+01  0.7957747E-01            NaN
         13   -1    0    0    0    0  0.00000000000E+00  0.00000000000E+00  0.74505805969E-08  0.10566000000E+00  0.10566000000E+00 0.  1.
     999900   -1    0    0    0    0 -0.00000000000E+00 -0.00000000000E+00 -0.74505805969E-08  0.93827000000E+00  0.93827000000E+00 0.  1.
     999902    2    1    2    0    0 -0.12479594165E-01 -0.66140637051E-02 -0.58069970572E-04  0.10298059255E+01  0.10297090631E+01 0.  0.
     999903    2    3    3    0    0  0.18404555576E-01  0.11259205718E+00  0.64479931007E-01  0.13889118009E+00  0.46015208334E-01 0.  0.
         14    1    1    2    0    0  0.12479594165E-01  0.66140637051E-02  0.58069970572E-04  0.14124074530E-01  0.00000000000E+00 0.  1.
     999901    1    3    3    0    0 -0.30884149741E-01 -0.11920612089E+00 -0.64538000977E-01  0.89091474538E+00  0.88000000000E+00 0.  1.
        -11    1    4    4    0    0  0.89992637561E-02  0.34204087735E-01 -0.23532579779E-02  0.35450039634E-01  0.51100000000E-03 0. -1.
         11    1    4    4    0    0  0.94052918199E-02  0.78387969448E-01  0.66833188984E-01  0.10344114046E+00  0.51100000000E-03 0.  1.
</event>
<event>
 8    1  0.2190295E+004  0.1043930E+01  0.7957747E-01            NaN
         13   -1    0    0    0    0  0.00000000000E+00  0.00000000000E+00  0.74505805969E-08  0.10566000000E+00  0.10566000000E+00 0.  1.
     999900   -1    0    0    0    0 -0.00000000000E+00 -0.00000000000E+00 -0.74505805969E-08  0.93827000000E+00  0.93827000000E+00 0.  1.
     999902    2    1    2    0    0  0.89445470955E-02  0.26536003418E-02  0.11509215184E-01  0.10291141790E+01  0.10290075242E+01 0.  0.
     999903    2    3    3    0    0  0.11615294630E+00  0.56369342148E-01 -0.30928881338E-01  0.13996851388E+00  0.44334856587E-01 0.  0.
         14    1    1    2    0    0 -0.89445470955E-02 -0.26536003418E-02 -0.11509215184E-01  0.14815820992E-01  0.00000000000E+00 0. -1.
     999901    1    3    3    0    0 -0.10720839921E+00 -0.53715741806E-01  0.42438096522E-01  0.88914566513E+00  0.88000000000E+00 0. -1.
        -11    1    4    4    0    0  0.51127117850E-01  0.12717674627E-02 -0.86289271773E-02  0.51868285853E-01  0.51100000000E-03 0.  1.
         11    1    4    4    0    0  0.65025828451E-01  0.55097574685E-01 -0.22299954161E-01  0.88100228027E-01  0.51100000000E-03 0. -1.
</event>
<event>
 7    1  0.3169616E+004  0.1043930E+01  0.7957747E-01            NaN
         13   -1    0    0    0    0  0.00000000000E+00  0.00000000000E+00  0.74505805969E-08  0.10566000000E+00  0.10566000000E+00 0.  1.
     999900   -1    0    0    0    0 -0.00000000000E+00 -0.00000000000E+00 -0.74505805969E-08  0.93827000000E+00  0.93827000000E+00 0.  1.
     999903    2    1    2    0    0 -0.42088036012E-01 -0.45466418126E-01 -0.83484219139E-01  0.11323096062E+00  0.44866888063E-01 0.  0.
         14    1    1    2    0    0 -0.32892027444E-01 -0.18827702120E-01  0.20120548087E-01  0.42909256482E-01  0.00000000000E+00 0.  1.
     999901    1    1    2    0    0  0.74980063456E-01  0.64294120245E-01  0.63363671052E-01  0.88778978290E+00  0.88000000000E+00 0. -1.
        -11    1    3    3    0    0  0.59191341131E-03  0.13883774514E-02 -0.30719515207E-01  0.30760814180E-01  0.51100000000E-03 0.  1.
         11    1    3    3    0    0 -0.42679949423E-01 -0.46854795577E-01 -0.52764703932E-01  0.82470146437E-01  0.51100000000E-03 0. -1.
</event>
<event>
 8    1  0.2190295E+004  0.1043930E+01  0.7957747E-01            NaN
         13   -1    0    0    0    0  0.00000000000E+00  0.00000000000E+00  0.74505805969E-08  0.10566000000E+00  0.10566000000E+00 0.  1.
     999900   -1    0    0    0    0 -0.00000000000E+00 -0.00000000000E+00 -0.74505805969E-08  0.93827000000E+00  0.93827000000E+00 0.  1.
     999902    2    1    2    0    0  0.32026935460E-03  0.14392252675E-01 -0.23613966016E-02  0.10293417957E+01  0.10292384159E+01 0.  0.
     999903    2    3    3    0    0  0.69599433450E-01 -0.76505225547E-01 -0.80517374474E-01  0.13851616129E+00  0.44794516110E-01 0.  0.
         14    1    1    2    0    0 -0.32026935460E-03 -0.14392252675E-01  0.23613966016E-02  0.14588204256E-01  0.00000000000E+00 0. -1.
     999901    1    3    3    0    0 -0.69279164095E-01  0.90897478222E-01  0.78155977872E-01  0.89082563445E+00  0.88000000000E+00 0. -1.
        -11    1    4    4    0    0  0.54564751957E-01 -0.70396735058E-01 -0.45721346625E-01  0.10011850539E+00  0.51100000000E-03 0.  1.
         11    1    4    4    0    0  0.15034681492E-01 -0.61084904892E-02 -0.34796027848E-01  0.38397655900E-01  0.51100000000E-03 0. -1.
</event>
<event>
 8    1  0.2190295E+004  0.1043930E+01  0.7957747E-01            NaN
         13   -1    0    0    0    0  0.00000000000E+00  0.00000000000E+00  0.74505805969E-08  0.10566000000E+00  0.10566000000E+00 0. -1.
     999900   -1    0    0    0    0 -0.00000000000E+00 -0.00000000000E+00 -0.74505805969E-08  0.93827000000E+00  0.93827000000E+00 0.  1.
     999902    2    1    2    0    0 -0.70293730067E-02 -0.11363717992E-01  0.36575467977E-02  0.10300763427E+01  0.10299831785E+01 0.  0.
     999903    2    3    3    0    0 -0.77272525804E-01  0.10605862619E+00 -0.11384083537E-01  0.13937529407E+00  0.45567530169E-01 0.  0.
         14    1    1    2    0    0  0.70293730067E-02  0.11363717992E-01 -0.36575467977E-02  0.13853657281E-01  0.00000000000E+00 0. -1.
     999901    1    3    3    0    0  0.70243152797E-01 -0.11742234418E+00  0.15041630335E-01  0.89070104865E+00  0.88000000000E+00 0. -1.
        -11    1    4    4    0    0 -0.48375454289E-01  0.28518605965E-01 -0.46859815341E-02  0.56353482659E-01  0.51100000000E-03 0. -1.
         11    1    4    4    0    0 -0.28897071514E-01  0.77540020221E-01 -0.66981020028E-02  0.83021811408E-01  0.51100000000E-03 0.  1.
</event>
<event>
 7    1  0.2190295E+004  0.1043930E+01  0.7957747E-01            NaN
         13   -1    0    0    0    0  0.00000000000E+00  0.00000000000E+00  0.74505805969E-08  0.10566000000E+00  0.10566000000E+00 0. -1.
     999900   -1    0    0    0    0 -0.00000000000E+00 -0.00000000000E+00 -0.74505805969E-08  0.93827000000E+00  0.93827000000E+00 0.  1.
     999902    2    1    2    0    0  0.10623225643E-01 -0.25677750699E-02  0.88772935536E-02  0.10298497751E+01  0.10297535174E+01 0.  0.
         14    1    1    2    0    0 -0.10623225643E-01  0.25677750699E-02 -0.88772935536E-02  0.14080224882E-01  0.00000000000E+00 0.  1.
     999901    1    3    3    0    0 -0.35698574470E-01 -0.10407949965E+00  0.68953357086E-01  0.88952880556E+00  0.88000000000E+00 0. -1.
        -11    1    3    3    0    0  0.58191295055E-02  0.20474356522E-01 -0.43205483307E-01  0.48166756711E-01  0.51100000000E-03 0. -1.
         11    1    3    3    0    0  0.40502670608E-01  0.81037368055E-01 -0.16870580225E-01  0.92154212849E-01  0.51100000000E-03 0.  1.
</event>
<event>
 8    1  0.2190295E+004  0.1043930E+01  0.7957747E-01            NaN
         13   -1    0    0    0    0  0.00000000000E+00  0.00000000000E+00  0.74505805969E-08  0.10566000000E+00  0.10566000000E+00 0.  1.
     999900   -1    0    0    0    0 -0.00000000000E+00 -0.00000000000E+00 -0.74505805969E-08  0.93827000000E+00  0.93827000000E+00 0. -1.
     999902    2    1    2    0    0  0.43521210514E-02  0.13004250424E-01  0.12549558609E-02  0.10301595098E+01  0.10300674683E+01 0.  0.
     999903    2    3    3    0    0  0.23350556338E-01 -0.19641397434E-02  0.13072908284E+00  0.14035697955E+00  0.45396941327E-01 0.  0.
         14    1    1    2    0    0 -0.43521210514E-02 -0.13004250424E-01 -0.12549558609E-02  0.13770490222E-01  0.00000000000E+00 0.  1.
     999901    1    3    3    0    0 -0.18998435287E-01  0.14968390167E-01 -0.12947412698E+00  0.88980253023E+00  0.88000000000E+00 0. -1.
        -11    1    4    4    0    0 -0.26240646098E-02  0.16231963260E-01  0.24632240677E-01  0.29620444766E-01  0.51100000000E-03 0. -1.
         11    1    4    4    0    0  0.25974620948E-01 -0.18196103004E-01  0.10609684216E+00  0.11073653478E+00  0.51100000000E-03 0.  1.
</event>
<event>
 8    1  0.2190295E+004  0.1043930E+01  0.7957747E-01            NaN
         13   -1    0    0    0    0  0.00000000000E+00  0.00000000000E+00  0.74505805969E-08  0.10566000000E+00  0.10566000000E+00 0. -1.
     999900   -1    0    0    0    0 -0.00000000000E+00 -0.00000000000E+00 -0.74505805969E-08  0.93827000000E+00  0.93827000000E+00 0.  1.
     999902    2    1    2    0    0 -0.23190441809E-02 -0.11447584882E-03 -0.13410519305E-01  0.10303199633E+01  0.10302300683E+01 0.  0.
     999903    2    3    3    0    0  0.99603417294E-01  0.49918527572E-01 -0.74668367737E-01  0.14091341196E+00  0.43226431720E-01 0.  0.
         14    1    1    2    0    0  0.23190441809E-02  0.11447584882E-03  0.13410519305E-01  0.13610036688E-01  0.00000000000E+00 0. -1.
     999901    1    3    3    0    0 -0.10192246148E+00 -0.50033003421E-01  0.61257848432E-01  0.88940655135E+00  0.88000000000E+00 0. -1.
        -11    1    4    4    0    0  0.67443390429E-01  0.35601286870E-01 -0.73148139544E-01  0.10567390396E+00  0.51100000000E-03 0. -1.
         11    1    4    4    0    0  0.32160026866E-01  0.14317240702E-01 -0.15202281930E-02  0.35239508000E-01  0.51100000000E-03 0.  1.
</event>
<event>
 8    1  0.2190295E+004  0.1043930E+01  0.7957747E-01            NaN
         13   -1    0    0    0    0  0.00000000000E+00  0.00000000000E+00  0.74505805969E-08  0.10566000000E+00  0.10566000000E+00 0.  1.
     999900   -1    0    0    0    0 -0.00000000000E+00 -0.00000000000E+00 -0.74505805969E-08  0.93827000000E+00  0.93827000000E+00 0.  1.
     999902    2    1    2    0    0  0.21856661957E-02 -0.61307256039E-03 -0.13795157686E-01  0.10299493215E+01  0.10298544293E+01 0.  0.
     999903    2    3    3    0    0  0.91574766790E-01 -0.50276505815E-02 -0.98099231503E-01  0.14140158694E+00  0.44268887306E-01 0.  0.
         14    1    1    2    0    0 -0.21856661957E-02  0.61307256039E-03  0.13795157686E-01  0.13980678462E-01  0.00000000000E+00 0.  1.
     999901    1    3    3    0    0 -0.89389100595E-01  0.44145780211E-02  0.84304073817E-01  0.88854773460E+00  0.88000000000E+00 0.  1.
        -11    1    4    4    0    0  0.34954350089E-01  0.33549610312E-03 -0.69370285379E-01  0.77681508497E-01  0.51100000000E-03 0.  1.
         11    1    4    4    0    0  0.56620416702E-01 -0.53631466846E-02 -0.28728946124E-01  0.63720078439E-01  0.51100000000E-03 0. -1.
</event>
<event>
 8    1  0.2190295E+004  0.1043930E+01  0.7957747E-01            NaN
         13   -1    0    0    0    0  0.00000000000E+00  0.00000000000E+00  0.74505805969E-08  0.10566000000E+00  0.10566000000E+00 0.  1.
     999900   -1    0    0    0    0 -0.00000000000E+00 -0.00000000000E+00 -0.74505805969E-08  0.93827000000E+00  0.93827000000E+00 0. -1.
     999902    2    1    2    0    0  0.10444086922E-01  0.24132926860E-02  0.90051067299E-02  0.10299301828E+01  0.10298350289E+01 0.  0.
     999903    2    3    3    0    0  0.23539494256E-01 -0.24279920718E-01  0.12944512687E+00  0.14122898684E+00  0.45232328185E-01 0.  0.
         14    1    1    2    0    0 -0.10444086922E-01 -0.24132926860E-02 -0.90051067299E-02  0.13999817157E-01  0.00000000000E+00 0. -1.
     999901    1    3    3    0    0 -0.13095407334E-01  0.26693213404E-01 -0.12044002014E+00  0.88870119601E+00  0.88000000000E+00 0. -1.
        -11    1    4    4    0    0  0.24429392752E-01 -0.36566330481E-01  0.10539620453E+00  0.11420382133E+00  0.51100000000E-03 0. -1.
         11    1    4    4    0    0 -0.88989849667E-03  0.12286409764E-01  0.24048922334E-01  0.27025165506E-01  0.51100000000E-03 0.  1.
</event>
<event>
 8    1  0.2190295E+004  0.1043930E+01  0.7957747E-01            NaN
         13   -1    0    0    0    0  0.00000000000E+00  0.00000000000E+00  0.74505805969E-08  0.10566000000E+00  0.10566000000E+00 0.  1.
     999900   -1    0    0    0    0 -0.00000000000E+00 -0.00000000000E+00 -0.74505805969E-08  0.93827000000E+00  0.93827000000E+00 0.  1.
     999902    2    1    2    0    0 -0.77379792450E-02 -0.25376271813E-02  0.12300985033E-01  0.10291777084E+01  0.10290719729E+01 0.  0.
     999903    2    3    3    0    0  0.24642119681E-01 -0.10858576389E+00 -0.68672553743E-01  0.13853109381E+00  0.45572383441E-01 0.  0.
         14    1    1    2    0    0  0.77379792450E-02  0.25376271813E-02 -0.12300985033E-01  0.14752291595E-01  0.00000000000E+00 0. -1.
     999901    1    3    3    0    0 -0.32380098926E-01  0.10604813671E+00  0.80973538776E-01  0.89064661459E+00  0.88000000000E+00 0.  1.
        -11    1    4    4    0    0  0.14708841713E-01 -0.72108594093E-02 -0.13767168512E-02  0.16446975048E-01  0.51100000000E-03 0.  1.
         11    1    4    4    0    0  0.99332779682E-02 -0.10137490448E+00 -0.67295836892E-01  0.12208411876E+00  0.51100000000E-03 0. -1.
</event>
<event>
 8    1  0.2190295E+004  0.1043930E+01  0.7957747E-01            NaN
         13   -1    0    0    0    0  0.00000000000E+00  0.00000000000E+00  0.74505805969E-08  0.10566000000E+00  0.10566000000E+00 0.  1.
     999900   -1    0    0    0    0 -0.00000000000E+00 -0.00000000000E+00 -0.74505805969E-08  0.93827000000E+00  0.93827000000E+00 0. -1.
     999902    2    1    2    0    0  0.41912643662E-03  0.12883546924E-01 -0.30834761760E-02  0.10306759714E+01  0.10305907475E+01 0.  0.
     999903    2    3    3    0    0  0.68348649242E-02 -0.11546986055E+00  0.63709414855E-01  0.13883683278E+00  0.42857584172E-01 0.  0.
         14    1    1    2    0    0 -0.41912643662E-03 -0.12883546924E-01  0.30834761760E-02  0.13254028581E-01  0.00000000000E+00 0. -1.
     999901    1    3    3    0    0 -0.64157384876E-02  0.12835340748E+00 -0.66792891031E-01  0.89183913864E+00  0.88000000000E+00 0.  1.
        -11    1    4    4    0    0 -0.57865895610E-02 -0.78381391226E-01  0.22013707902E-01  0.81621024043E-01  0.51100000000E-03 0. -1.
         11    1    4    4    0    0  0.12621454485E-01 -0.37088469328E-01  0.41695706953E-01  0.57215808739E-01  0.51100000000E-03 0.  1.
</event>
<event>
 8    1  0.2190295E+004  0.1043930E+01  0.7957747E-01            NaN
         13   -1    0    0    0    0  0.00000000000E+00  0.00000000000E+00  0.74505805969E-08  0.10566000000E+00  0.10566000000E+00 0.  1.
     999900   -1    0    0    0    0 -0.00000000000E+00 -0.00000000000E+00 -0.74505805969E-08  0.93827000000E+00  0.93827000000E+00 0.  1.
     999902    2    1    2    0    0 -0.11169939290E-01  0.80384978578E-02  0.27861661938E-02  0.10298890701E+01  0.10297933525E+01 0.  0.
     999903    2    3    3    0    0 -0.19575389977E-04 -0.10954762514E+00  0.73005414744E-01  0.13922551416E+00  0.45313029646E-01 0.  0.
         14    1    1    2    0    0  0.11169939290E-01 -0.80384978578E-02 -0.27861661938E-02  0.14040929941E-01  0.00000000000E+00 0. -1.
     999901    1    3    3    0    0 -0.11150363900E-01  0.11758612299E+00 -0.70219248550E-01  0.89066355590E+00  0.88000000000E+00 0.  1.
        -11    1    4    4    0    0 -0.16254416968E-01 -0.60340032355E-01  0.58041901239E-01  0.85289207969E-01  0.51100000000E-03 0.  1.
         11    1    4    4    0    0  0.16234841578E-01 -0.49207592781E-01  0.14963513505E-01  0.53936306193E-01  0.51100000000E-03 0. -1.
</event>
<event>
 8    1  0.2190295E+004  0.1043930E+01  0.7957747E-01            NaN
         13   -1    0    0    0    0  0.00000000000E+00  0.00000000000E+00  0.74505805969E-08  0.10566000000E+00  0.10566000000E+00 0.  1.
     999900   -1    0    0    0    0 -0.00000000000E+00 -0.00000000000E+00 -0.74505805969E-08  0.93827000000E+00  0.93827000000E+00 0. -1.
     999902    2    1    2    0    0 -0.43352659136E-02  0.89800695224E-02 -0.88667205911E-02  0.10305862781E+01  0.10304998893E+01 0.  0.
     999903    2    3    3    0    0 -0.29907774270E-01  0.93766952002E-01 -0.92068703144E-01  0.14223649425E+00  0.45473706127E-01 0.  0.
         14    1    1    2    0    0  0.43352659136E-02 -0.89800695224E-02  0.88667205911E-02  0.13343721865E-01  0.00000000000E+00 0.  1.
     999901    1    3    3    0    0  0.25572508356E-01 -0.84786882479E-01  0.83201982553E-01  0.88834978388E+00  0.88000000000E+00 0.  1.
        -11    1    4    4    0    0 -0.19034145099E-01  0.95510928918E-01 -0.82352133911E-01  0.12754125334E+00  0.51100000000E-03 0.  1.
         11    1    4    4    0    0 -0.10873629171E-01 -0.17439769163E-02 -0.97165692337E-02  0.14695240914E-01  0.51100000000E-03 0. -1.
</event>
<event>
 8    1  0.2190295E+004  0.1043930E+01  0.7957747E-01            NaN
         13   -1    0    0    0    0  0.00000000000E+00  0.00000000000E+00  0.74505805969E-08  0.10566000000E+00  0.10566000000E+00 0.  1.
     999900   -1    0    0    0    0 -0.00000000000E+00 -0.00000000000E+00 -0.74505805969E-08  0.93827000000E+00  0.93827000000E+00 0. -1.
     999902    2    1    2    0    0 -0.96130742591E-02 -0.91600309839E-02 -0.23774793078E-02  0.10304403828E+01  0.10303520819E+01 0.  0.
     999903    2    3    3    0    0  0.56189786503E-01 -0.10165326055E+00  0.65550799708E-01  0.14055316237E+00  0.44357712093E-01 0.  0.
         14    1    1    2    0    0  0.96130742591E-02  0.91600309839E-02  0.23774793078E-02  0.13489617200E-01  0.00000000000E+00 0. -1.
     999901    1    3    3    0    0 -0.65802860762E-01  0.92493229563E-01 -0.67928279016E-01  0.88988722043E+00  0.88000000000E+00 0. -1.
        -11    1    4    4    0    0  0.14960272061E-01 -0.62677481379E-01  0.19058691497E-01  0.67199488500E-01  0.51100000000E-03 0. -1.
         11    1    4    4    0    0  0.41229514442E-01 -0.38975779168E-01  0.46492108211E-01  0.73353673867E-01  0.51100000000E-03 0.  1.
</event>
<event>
 8    1  0.2190295E+004  0.1043930E+01  0.7957747E-01            NaN
         13   -1    0    0    0    0  0.00000000000E+00  0.00000000000E+00  0.74505805969E-08  0.10566000000E+00  0.10566000000E+00 0. -1.
     999900   -1    0    0    0    0 -0.00000000000E+00 -0.00000000000E+00 -0.74505805969E-08  0.93827000000E+00  0.93827000000E+00 0. -1.
     999902    2    1    2    0    0  0.89914863071E-02 -0.53298920625E-02 -0.95750290690E-02  0.10297548190E+01  0.10296572495E+01 0.  0.
     999903    2    3    3    0    0 -0.19486300290E-01  0.13823399966E-01 -0.13122273804E+00  0.14072388699E+00  0.44866503153E-01 0.  0.
         14    1    1    2    0    0 -0.89914863071E-02  0.53298920625E-02  0.95750290690E-02  0.14175181025E-01  0.00000000000E+00 0. -1.
     999901    1    3    3    0    0  0.28477786597E-01 -0.19153292029E-01  0.12164770897E+00  0.88903093198E+00  0.88000000000E+00 0.  1.
        -11    1    4    4    0    0 -0.89403407775E-02 -0.15540759874E-01 -0.31684074979E-01  0.36408606660E-01  0.51100000000E-03 0.  1.
         11    1    4    4    0    0 -0.10545959513E-01  0.29364159841E-01 -0.99538663063E-01  0.10431528033E+00  0.51100000000E-03 0. -1.
</event>
<event>
 8    1  0.2190295E+004  0.1043930E+01  0.7957747E-01            NaN
         13   -1    0    0    0    0  0.00000000000E+00  0.00000000000E+00  0.74505805969E-08  0.10566000000E+00  0.10566000000E+00 0.  1.
     999900   -1    0    0    0    0 -0.00000000000E+00 -0.00000000000E+00 -0.74505805969E-08  0.93827000000E+00  0.93827000000E+00 0.  1.
     999902    2    1    2    0    0 -0.12366280771E-01  0.25655584927E-02 -0.43209749369E-02  0.10305816737E+01  0.10304952248E+01 0.  0.
     999903    2    3    3    0    0  0.96377599088E-01  0.35576669597E-01 -0.83076134851E-01  0.13978577111E+00  0.45651687787E-01 0.  0.
         14    1    1    2    0    0  0.12366280771E-01 -0.25655584927E-02  0.43209749369E-02  0.13348326296E-01  0.00000000000E+00 0.  1.
     999901    1    3    3    0    0 -0.10874387986E+00 -0.33011111104E-01  0.78755159914E-01  0.89079590259E+00  0.88000000000E+00 0.  1.
        -11    1    4    4    0    0 -0.27686039862E-02 -0.45537745746E-02 -0.27335202434E-02  0.60112631643E-02  0.51100000000E-03 0.  1.
         11    1    4    4    0    0  0.99146203075E-01  0.40130444171E-01 -0.80342614607E-01  0.13377450795E+00  0.51100000000E-03 0. -1.
</event>
<event>
 8    1  0.2190295E+004  0.1043930E+01  0.7957747E-01            NaN
         13   -1    0    0    0    0  0.00000000000E+00  0.00000000000E+00  0.74505805969E-08  0.10566000000E+00  0.10566000000E+00 0. -1.
     999900   -1    0    0    0    0 -0.00000000000E+00 -0.00000000000E+00 -0.74505805969E-08  0.93827000000E+00  0.93827000000E+00 0.  1.
     999902    2    1    2    0    0 -0.13680771222E-01  0.44105444692E-02  0.50967497235E-04  0.10295557521E+01  0.10294554035E+01 0.  0.
     999903    2    3    3    0    0 -0.37525424988E-01  0.47802619309E-01  0.11815129594E+00  0.14028687984E+00  0.45027014010E-01 0.  0.
         14    1    1    2    0    0  0.13680771222E-01 -0.44105444692E-02 -0.50967497235E-04  0.14374247856E-01  0.00000000000E+00 0.  1.
     999901    1    3    3    0    0  0.23844653766E-01 -0.43392074840E-01 -0.11810032844E+00  0.88926887230E+00  0.88000000000E+00 0.  1.
        -11    1    4    4    0    0 -0.32899336040E-01  0.15478514942E-01  0.33061952982E-01  0.49145748470E-01  0.51100000000E-03 0.  1.
         11    1    4    4    0    0 -0.46260889473E-02  0.32324104367E-01  0.85089342954E-01  0.91141131370E-01  0.51100000000E-03 0. -1.
</event>
<event>
 8    1  0.2190295E+004  0.1043930E+01  0.7957747E-01            NaN
         13   -1    0    0    0    0  0.00000000000E+00  0.00000000000E+00  0.74505805969E-08  0.10566000000E+00  0.10566000000E+00 0.  1.
     999900   -1    0    0    0    0 -0.00000000000E+00 -0.00000000000E+00 -0.74505805969E-08  0.93827000000E+00  0.93827000000E+00 0. -1.
     999902    2    1    2    0    0 -0.12664490708E-01 -0.60505062956E-02 -0.28306606654E-02  0.10296118091E+01  0.10295122470E+01 0.  0.
     999903    2    3    3    0    0  0.12937610456E+00 -0.14421712584E-01 -0.72003316387E-02  0.13817212979E+00  0.45755113900E-01 0.  0.
         14    1    1    2    0    0  0.12664490708E-01  0.60505062956E-02  0.28306606654E-02  0.14318190916E-01  0.00000000000E+00 0.  1.
     999901    1    3    3    0    0 -0.14204059527E+00  0.83712062884E-02  0.43696709733E-02  0.89143967930E+00  0.88000000000E+00 0. -1.
        -11    1    4    4    0    0  0.39314600116E-01  0.19571032750E-02 -0.22529183601E-01  0.45357394880E-01  0.51100000000E-03 0.  1.
         11    1    4    4    0    0  0.90061504448E-01 -0.16378815859E-01  0.15328851962E-01  0.92814734907E-01  0.51100000000E-03 0. -1.
</event>
<event>
 8    1  0.2190295E+004  0.1043930E+01  0.7957747E-01            NaN
         13   -1    0    0    0    0  0.00000000000E+00  0.00000000000E+00  0.74505805969E-08  0.10566000000E+00  0.10566000000E+00 0.  1.
     999900   -1    0    0    0    0 -0.00000000000E+00 -0.00000000000E+00 -0.74505805969E-08  0.93827000000E+00  0.93827000000E+00 0. -1.
     999902    2    1    2    0    0  0.70227695218E-02  0.95044301832E-02 -0.72285630205E-02  0.10300770000E+01  0.10299838447E+01 0.  0.
     999903    2    3    3    0    0  0.68227748771E-01 -0.72217115110E-01 -0.88878321992E-01  0.14041911995E+00  0.44134291766E-01 0.  0.
         14    1    1    2    0    0 -0.70227695218E-02 -0.95044301832E-02  0.72285630205E-02  0.13852999971E-01  0.00000000000E+00 0.  1.
     999901    1    3    3    0    0 -0.61204979249E-01  0.81721545293E-01  0.81649758971E-01  0.88965788008E+00  0.88000000000E+00 0.  1.
        -11    1    4    4    0    0  0.11835867737E-01 -0.39850224112E-01 -0.21582756686E-01  0.46842338051E-01  0.51100000000E-03 0.  1.
         11    1    4    4    0    0  0.56391881034E-01 -0.32366890997E-01 -0.67295565306E-01  0.93576781897E-01  0.51100000000E-03 0. -1.
</event>
<event>
 8    1  0.2190295E+004  0.1043930E+01  0.7957747E-01            NaN
         13   -1    0    0    0    0  0.00000000000E+00  0.00000000000E+00  0.74505805969E-08  0.10566000000E+00  0.10566000000E+00 0. -1.
     999900   -1    0    0    0    0 -0.00000000000E+00 -0.00000000000E+00 -0.74505805969E-08  0.93827000000E+00  0.93827000000E+00 0.  1.
     999902    2    1    2    0    0  0.13106078444E-01  0.18326926163E-02 -0.81008874828E-03  0.10306716329E+01  0.10305863528E+01 0.  0.
     999903    2    3    3    0    0  0.10185556550E+00 -0.82696688635E-01  0.28873841585E-01  0.14168185598E+00  0.45019451923E-01 0.  0.
         14    1    1    2    0    0 -0.13106078444E-01 -0.18326926163E-02  0.81008874828E-03  0.13258367101E-01  0.00000000000E+00 0. -1.
     999901    1    3    3    0    0 -0.88749487056E-01  0.84529381251E-01 -0.29683930333E-01  0.88898977692E+00  0.88000000000E+00 0. -1.
        -11    1    4    4    0    0  0.33540272097E-01 -0.55887042811E-01  0.10428908744E-01  0.66010110324E-01  0.51100000000E-03 0. -1.
         11    1    4    4    0    0  0.68315293404E-01 -0.26809645824E-01  0.18444932841E-01  0.75671745655E-01  0.51100000000E-03 0.  1.
</event>
<event>
 8    1  0.2190295E+004  0.1043930E+01  0.7957747E-01            NaN
         13   -1    0    0    0    0  0.00000000000E+00  0.00000000000E+00  0.74505805969E-08  0.10566000000E+00  0.10566000000E+00 0.  1.
     999900   -1    0    0    0    0 -0.00000000000E+00 -0.00000000000E+00 -0.74505805969E-08  0.93827000000E+00  0.93827000000E+00 0.  1.
     999902    2    1    2    0    0  0.75270720395E-02 -0.11498167833E-01  0.72659051317E-02  0.10283846452E+01  0.10282671445E+01 0.  0.
     999903    2    3    3    0    0 -0.40555495661E-01  0.78100181028E-01 -0.95681964635E-01  0.13656736501E+00  0.41847584462E-01 0.  0.
         14    1    1    2    0    0 -0.75270720395E-02  0.11498167833E-01 -0.72659051317E-02  0.15545354753E-01  0.00000000000E+00 0.  1.
     999901    1    3    3    0    0  0.48082567701E-01 -0.89598348861E-01  0.10294786977E+00  0.89181728023E+00  0.88000000000E+00 0. -1.
        -11    1    4    4    0    0 -0.32679178955E-01  0.31492191714E-01 -0.25825697771E-01  0.52219868465E-01  0.51100000000E-03 0.  1.
         11    1    4    4    0    0 -0.78763167059E-02  0.46607989314E-01 -0.69856266864E-01  0.84347496548E-01  0.51100000000E-03 0. -1.
</event>
<event>
 8    1  0.2190295E+004  0.1043930E+01  0.7957747E-01            NaN
         13   -1    0    0    0    0  0.00000000000E+00  0.00000000000E+00  0.74505805969E-08  0.10566000000E+00  0.10566000000E+00 0.  1.
     999900   -1    0    0    0    0 -0.00000000000E+00 -0.00000000000E+00 -0.74505805969E-08  0.93827000000E+00  0.93827000000E+00 0.  1.
     999902    2    1    2    0    0 -0.12542175832E-01 -0.59706220243E-04  0.55776890749E-02  0.10302033706E+01  0.10301119184E+01 0.  0.
     999903    2    3    3    0    0 -0.35493860593E-01 -0.12814829185E+00 -0.85199974953E-02  0.14052241072E+00  0.44633605189E-01 0.  0.
         14    1    1    2    0    0  0.12542175832E-01  0.59706220242E-04 -0.55776890749E-02  0.13726629406E-01  0.00000000000E+00 0. -1.
     999901    1    3    3    0    0  0.22951684761E-01  0.12808858563E+00  0.14097686570E-01  0.88968095988E+00  0.88000000000E+00 0.  1.
        -11    1    4    4    0    0 -0.25802431281E-01 -0.12717143792E+00 -0.11632321306E-01  0.13028396717E+00  0.51100000000E-03 0.  1.
         11    1    4    4    0    0 -0.96914293121E-02 -0.97685393344E-03  0.31123238109E-02  0.10238443545E-01  0.51100000000E-03 0. -1.
</event>
<event>
 8    1  0.2190295E+004  0.1043930E+01  0.7957747E-01            NaN
         13   -1    0    0    0    0  0.00000000000E+00  0.00000000000E+00  0.74505805969E-08  0.10566000000E+00  0.10566000000E+00 0. -1.
     999900   -1    0    0    0    0 -0.00000000000E+00 -0.00000000000E+00 -0.74505805969E-08  0.93827000000E+00  0.93827000000E+00 0.  1.
     999902    2    1    2    0    0  0.11803925368E-01  0.30949647322E-02  0.84764224822E-02  0.10290719652E+01  0.10289646973E+01 0.  0.
     999903    2    3    3    0    0  0.91554809184E-01  0.84123176719E-01  0.48503541830E-01  0.14085580630E+00  0.45041898846E-01 0.  0.
         14    1    1    2    0    0 -0.11803925368E-01 -0.30949647322E-02 -0.84764224822E-02  0.14858034826E-01  0.00000000000E+00 0. -1.
     999901    1    3    3    0    0 -0.79750883816E-01 -0.81028211987E-01 -0.40027119348E-01  0.88821615888E+00  0.88000000000E+00 0.  1.
        -11    1    4    4    0    0  0.57600561986E-01  0.48910596023E-01  0.52128520893E-01  0.91802586869E-01  0.51100000000E-03 0.  1.
         11    1    4    4    0    0  0.33954247198E-01  0.35212580696E-01 -0.36249790631E-02  0.49053219428E-01  0.51100000000E-03 0. -1.
</event>
<event>
 8    1  0.2190295E+004  0.1043930E+01  0.7957747E-01            NaN
         13   -1    0    0    0    0  0.00000000000E+00  0.00000000000E+00  0.74505805969E-08  0.10566000000E+00  0.10566000000E+00 0.  1.
     999900   -1    0    0    0    0 -0.00000000000E+00 -0.00000000000E+00 -0.74505805969E-08  0.93827000000E+00  0.93827000000E+00 0.  1.
     999902    2    1    2    0    0  0.39454546822E-02  0.13266580705E-01  0.19704890160E-02  0.10299495993E+01  0.10298547109E+01 0.  0.
     999903    2    3    3    0    0 -0.63149936846E-01 -0.11803051128E-01  0.11572917194E+00  0.13974101930E+00  0.44800498834E-01 0.  0.
         14    1    1    2    0    0 -0.39454546822E-02 -0.13266580705E-01 -0.19704890160E-02  0.13980400681E-01  0.00000000000E+00 0. -1.
     999901    1    3    3    0    0  0.67095391528E-01  0.25069631833E-01 -0.11375868293E+00  0.89020858002E+00  0.88000000000E+00 0.  1.
        -11    1    4    4    0    0 -0.46802942912E-01 -0.15976821214E-01  0.44470738894E-01  0.66510766197E-01  0.51100000000E-03 0.  1.
         11    1    4    4    0    0 -0.16346993934E-01  0.41737700862E-02  0.71258433048E-01  0.73230253099E-01  0.51100000000E-03 0. -1.
</event>
<event>
 8    1  0.2190295E+004  0.1043930E+01  0.7957747E-01            NaN
         13   -1    0    0    0    0  0.00000000000E+00  0.00000000000E+00  0.74505805969E-08  0.10566000000E+00  0.10566000000E+00 0. -1.
     999900   -1    0    0    0    0 -0.00000000000E+00 -0.00000000000E+00 -0.74505805969E-08  0.93827000000E+00  0.93827000000E+00 0. -1.
     999902    2    1    2    0    0  0.10743824402E-01  0.70812431434E-02 -0.53400044789E-02  0.10299984023E+01  0.10299041797E+01 0.  0.
     999903    2    3    3    0    0  0.12649306294E+00 -0.27642254298E-02  0.42524371213E-01  0.14107443594E+00  0.45667695516E-01 0.  0.
         14    1    1    2    0    0 -0.10743824402E-01 -0.70812431434E-02  0.53400044789E-02  0.13931597722E-01  0.00000000000E+00 0.  1.
     999901    1    3    3    0    0 -0.11574923854E+00  0.98454685733E-02 -0.47864375692E-01  0.88892396634E+00  0.88000000000E+00 0. -1.
        -11    1    4    4    0    0  0.79816434645E-01 -0.23192856296E-01  0.20798061310E-01  0.85681925152E-01  0.51100000000E-03 0. -1.
         11    1    4    4    0    0  0.46676628296E-01  0.20428630866E-01  0.21726309902E-01  0.55392510786E-01  0.51100000000E-03 0.  1.
</event>
<event>
 7    1  0.2190295E+004  0.1043930E+01  0.7957747E-01            NaN
         13   -1    0    0    0    0  0.00000000000E+00  0.00000000000E+00  0.74505805969E-08  0.10566000000E+00  0.10566000000E+00 0.  1.
     999900   -1    0    0    0    0 -0.00000000000E+00 -0.00000000000E+00 -0.74505805969E-08  0.93827000000E+00  0.93827000000E+00 0. -1.
     999903    2    1    2    0    0  0.23902067576E-01  0.84124018071E-01  0.15657026756E-01  0.99882535951E-01  0.45642296724E-01 0.  0.
         14    1    1    2    0    0  0.43062686757E-02 -0.26488783117E-01  0.52625159102E-01  0.59072895235E-01  0.00000000000E+00 0.  1.
     999901    1    1    2    0    0 -0.28208336251E-01 -0.57635234954E-01 -0.68282185858E-01  0.88497456881E+00  0.88000000000E+00 0. -1.
        -11    1    3    3    0    0  0.59339832975E-02  0.39490438583E-01 -0.15188072075E-01  0.42727573668E-01  0.51100000000E-03 0. -1.
         11    1    3    3    0    0  0.17968084278E-01  0.44633579489E-01  0.30845098831E-01  0.57154962282E-01  0.51100000000E-03 0.  1.
</event>
<event>
 8    1  0.2190295E+004  0.1043930E+01  0.7957747E-01            NaN
         13   -1    0    0    0    0  0.00000000000E+00  0.00000000000E+00  0.74505805969E-08  0.10566000000E+00  0.10566000000E+00 0.  1.
     999900   -1    0    0    0    0 -0.00000000000E+00 -0.00000000000E+00 -0.74505805969E-08  0.93827000000E+00  0.93827000000E+00 0.  1.
     999902    2    1    2    0    0 -0.90346046174E-02 -0.72959233131E-02  0.99467664154E-02  0.10286397175E+01  0.10285260695E+01 0.  0.
     999903    2    3    3    0    0  0.10072987335E+00 -0.60539170529E-01  0.59188308058E-01  0.13886007429E+00  0.44354998231E-01 0.  0.
         14    1    1    2    0    0  0.90346046174E-02  0.72959233131E-02 -0.99467664154E-02  0.15290282525E-01  0.00000000000E+00 0. -1.
     999901    1    3    3    0    0 -0.10976447797E+00  0.53243247216E-01 -0.49241541642E-01  0.88977964318E+00  0.88000000000E+00 0.  1.
        -11    1    4    4    0    0  0.31842298739E-01 -0.39957666930E-01  0.38706168999E-01  0.64101293084E-01  0.51100000000E-03 0. -1.
         11    1    4    4    0    0  0.68887574612E-01 -0.20581503599E-01  0.20482139059E-01  0.74758781209E-01  0.51100000000E-03 0.  1.
</event>
<event>
 8    1  0.2190295E+004  0.1043930E+01  0.7957747E-01            NaN
         13   -1    0    0    0    0  0.00000000000E+00  0.00000000000E+00  0.74505805969E-08  0.10566000000E+00  0.10566000000E+00 0. -1.
     999900   -1    0    0    0    0 -0.00000000000E+00 -0.00000000000E+00 -0.74505805969E-08  0.93827000000E+00  0.93827000000E+00 0. -1.
     999902    2    1    2    0    0 -0.13012987303E-01  0.10968094062E-02  0.23661386749E-02  0.10306582465E+01  0.10305727930E+01 0.  0.
     999903    2    3    3    0    0  0.32280892809E-01  0.12809264046E+00 -0.14383463358E-01  0.14023136803E+00  0.44812631946E-01 0.  0.
         14    1    1    2    0    0  0.13012987303E-01 -0.10968094062E-02 -0.23661386749E-02  0.13271753526E-01  0.00000000000E+00 0.  1.
     999901    1    3    3    0    0 -0.45293880112E-01 -0.12699583105E+00  0.16749602033E-01  0.89042687844E+00  0.88000000000E+00 0.  1.
        -11    1    4    4    0    0  0.19588600269E-01  0.18730775148E-01  0.71803829910E-02  0.28042364719E-01  0.51100000000E-03 0.  1.
         11    1    4    4    0    0  0.12692292540E-01  0.10936186531E+00 -0.21563846349E-01  0.11218900331E+00  0.51100000000E-03 0. -1.
</event>
<event>
 8    1  0.2190295E+004  0.1043930E+01  0.7957747E-01            NaN
         13   -1    0    0    0    0  0.00000000000E+00  0.00000000000E+00  0.74505805969E-08  0.10566000000E+00  0.10566000000E+00 0. -1.
     999900   -1    0    0    0    0 -0.00000000000E+00 -0.00000000000E+00 -0.74505805969E-08  0.93827000000E+00  0.93827000000E+00 0.  1.
     999902    2    1    2    0    0  0.12567828768E-01  0.62272846513E-02  0.70534382334E-03  0.10298862504E+01  0.10297904941E+01 0.  0.
     999903    2    3    3    0    0 -0.23578625076E-01 -0.12884127340E+00 -0.84591702541E-02  0.13880035673E+00  0.45143727999E-01 0.  0.
         14    1    1    2    0    0 -0.12567828768E-01 -0.62272846513E-02 -0.70534382334E-03  0.14043749641E-01  0.00000000000E+00 0. -1.
     999901    1    3    3    0    0  0.36146453844E-01  0.13506855805E+00  0.91645140775E-02  0.89108589362E+00  0.88000000000E+00 0.  1.
        -11    1    4    4    0    0 -0.10432623402E-01 -0.10833833572E+00  0.84159851809E-02  0.10916558315E+00  0.51100000000E-03 0. -1.
         11    1    4    4    0    0 -0.13146001674E-01 -0.20502937679E-01 -0.16875155435E-01  0.29634773585E-01  0.51100000000E-03 0.  1.
</event>
<event>
 8    1  0.2190295E+004  0.1043930E+01  0.7957747E-01            NaN
         13   -1    0    0    0    0  0.00000000000E+00  0.00000000000E+00  0.74505805969E-08  0.10566000000E+00  0.10566000000E+00 0.  1.
     999900   -1    0    0    0    0 -0.00000000000E+00 -0.00000000000E+00 -0.74505805969E-08  0.93827000000E+00  0.93827000000E+00 0. -1.
     999902    2    1    2    0    0 -0.13692118181E-01 -0.91870902348E-03  0.33218031723E-02  0.10298107754E+01  0.10297139800E+01 0.  0.
     999903    2    3    3    0    0 -0.93062622223E-01  0.77324092950E-01  0.57099993502E-01  0.14115240083E+00  0.44988042807E-01 0.  0.
         14    1    1    2    0    0  0.13692118181E-01  0.91870902348E-03 -0.33218031723E-02  0.14119224584E-01  0.00000000000E+00 0. -1.
     999901    1    3    3    0    0  0.79370504042E-01 -0.78242801974E-01 -0.53778190330E-01  0.88865837459E+00  0.88000000000E+00 0. -1.
        -11    1    4    4    0    0 -0.17377583523E-01  0.33438493505E-01  0.33773397165E-01  0.50606489051E-01  0.51100000000E-03 0. -1.
         11    1    4    4    0    0 -0.75685038700E-01  0.43885599445E-01  0.23326596338E-01  0.90545911776E-01  0.51100000000E-03 0.  1.
</event>
<event>
 8    1  0.2190295E+004  0.1043930E+01  0.7957747E-01            NaN
         13   -1    0    0    0    0  0.00000000000E+00  0.00000000000E+00  0.74505805969E-08  0.10566000000E+00  0.10566000000E+00 0. -1.
     999900   -1    0    0    0    0 -0.00000000000E+00 -0.00000000000E+00 -0.74505805969E-08  0.93827000000E+00  0.93827000000E+00 0.  1.
     999902    2    1    2    0    0 -0.18487805740E-02 -0.46933584044E-02  0.13495339291E-01  0.10295227176E+01  0.10294219039E+01 0.  0.
     999903    2    3    3    0    0  0.62492746138E-01  0.80781708544E-01 -0.81102544359E-01  0.13801019460E+00  0.45146022598E-01 0.  0.
         14    1    1    2    0    0  0.18487805740E-02  0.46933584044E-02 -0.13495339291E-01  0.14407282371E-01  0.00000000000E+00 0.  1.
     999901    1    3    3    0    0 -0.64341526712E-01 -0.85475066948E-01  0.94597883650E-01  0.89151252303E+00  0.88000000000E+00 0. -1.
        -11    1    4    4    0    0  0.57829603648E-01  0.68394408268E-01 -0.46414651515E-01  0.10087932958E+00  0.51100000000E-03 0. -1.
         11    1    4    4    0    0  0.46631424906E-02  0.12387300276E-01 -0.34687892844E-01  0.37130865018E-01  0.51100000000E-03 0.  1.
</event>
<event>
 8    1  0.2190295E+004  0.1043930E+01  0.7957747E-01            NaN
         13   -1    0    0    0    0  0.00000000000E+00  0.00000000000E+00  0.74505805969E-08  0.10566000000E+00  0.10566000000E+00 0. -1.
     999900   -1    0    0    0    0 -0.00000000000E+00 -0.00000000000E+00 -0.74505805969E-08  0.93827000000E+00  0.93827000000E+00 0. -1.
     999902    2    1    2    0    0  0.86150123526E-02  0.22754951789E-02  0.14129334013E-01  0.10272256773E+01  0.10270898489E+01 0.  0.
     999903    2    3    3    0    0  0.12099587696E+00 -0.47152766240E-01 -0.15258826917E-01  0.13821708583E+00  0.44807872201E-01 0.  0.
         14    1    1    2    0    0 -0.86150123526E-02 -0.22754951789E-02 -0.14129334013E-01  0.16704322668E-01  0.00000000000E+00 0. -1.
     999901    1    3    3    0    0 -0.11238086461E+00  0.49428261419E-01  0.29388160930E-01  0.88900859150E+00  0.88000000000E+00 0.  1.
        -11    1    4    4    0    0  0.35960219485E-01 -0.16663353146E-01 -0.25758357569E-01  0.47271120456E-01  0.51100000000E-03 0.  1.
         11    1    4    4    0    0  0.85035657477E-01 -0.30489413094E-01  0.10499530652E-01  0.90945965376E-01  0.51100000000E-03 0. -1.
</event>
<event>
 8    1  0.2190295E+004  0.1043930E+01  0.7957747E-01            NaN
         13   -1    0    0    0    0  0.00000000000E+00  0.00000000000E+00  0.74505805969E-08  0.10566000000E+00  0.10566000000E+00 0. -1.
     999900   -1    0    0    0    0 -0.00000000000E+00 -0.00000000000E+00 -0.74505805969E-08  0.93827000000E+00  0.93827000000E+00 0.  1.
     999902    2    1    2    0    0 -0.10740895372E-01 -0.10569929128E-01  0.13471174474E-02  0.10288003946E+01  0.10286891401E+01 0.  0.
     999903    2    3    3    0    0  0.12635937629E+00 -0.89695165506E-02  0.32409281910E-01  0.13764165233E+00  0.42985098554E-01 0.  0.
         14    1    1    2    0    0  0.10740895372E-01  0.10569929128E-01 -0.13471174474E-02  0.15129605434E-01  0.00000000000E+00 0.  1.
     999901    1    3    3    0    0 -0.13710027166E+00 -0.16004125775E-02 -0.31062164463E-01  0.89115874224E+00  0.88000000000E+00 0. -1.
        -11    1    4    4    0    0  0.33312793012E-01  0.89568051624E-02 -0.66735720739E-02  0.35139212032E-01  0.51100000000E-03 0. -1.
         11    1    4    4    0    0  0.93046583277E-01 -0.17926321713E-01  0.39082853984E-01  0.10250244029E+00  0.51100000000E-03 0.  1.
</event>
<event>
 8    1  0.2190295E+004  0.1043930E+01  0.7957747E-01            NaN
         13   -1    0    0    0    0  0.00000000000E+00  0.00000000000E+00  0.74505805969E-08  0.10566000000E+00  0.10566000000E+00 0. -1.
     999900   -1    0    0    0    0 -0.00000000000E+00 -0.00000000000E+00 -0.74505805969E-08  0.93827000000E+00  0.93827000000E+00 0.  1.
     999902    2    1    2    0    0  0.55271892138E-02 -0.53047167143E-02 -0.10147919867E-01  0.10312150435E+01  0.10311366524E+01 0.  0.
     999903    2    3    3    0    0 -0.41796873560E-01  0.17883477576E-01 -0.12741867541E+00  0.14187276445E+00  0.42726631527E-01 0.  0.
         14    1    1    2    0    0 -0.55271892138E-02  0.53047167143E-02  0.10147919867E-01  0.12714956455E-01  0.00000000000E+00 0.  1.
     999901    1    3    3    0    0  0.47324062774E-01 -0.23188194290E-01  0.11727075554E+00  0.88934227909E+00  0.88000000000E+00 0. -1.
        -11    1    4    4    0    0 -0.11646843604E-01  0.23432352895E-01 -0.30346940684E-01  0.40073957354E-01  0.51100000000E-03 0. -1.
         11    1    4    4    0    0 -0.30150029956E-01 -0.55488753198E-02 -0.97071734725E-01  0.10179880710E+00  0.51100000000E-03 0.  1.
</event>
<event>
 8    1  0.2190295E+004  0.1043930E+01  0.7957747E-01            NaN
         13   -1    0    0    0    0  0.00000000000E+00  0.00000000000E+00  0.74505805969E-08  0.10566000000E+00  0.10566000000E+00 0.  1.
     999900   -1    0    0    0    0 -0.00000000000E+00 -0.00000000000E+00 -0.74505805969E-08  0.93827000000E+00  0.93827000000E+00 0.  1.
     999902    2    1    2    0    0  0.37019132591E-02 -0.13167442709E-01  0.40156002830E-02  0.10296747990E+01  0.10295761171E+01 0.  0.
     999903    2    3    3    0    0  0.89487824959E-01 -0.16894427515E-01 -0.95588715294E-01  0.13990284355E+00  0.46282941187E-01 0.  0.
         14    1    1    2    0    0 -0.37019132591E-02  0.13167442709E-01 -0.40156002830E-02  0.14255200978E-01  0.00000000000E+00 0.  1.
     999901    1    3    3    0    0 -0.85785911700E-01  0.37269848052E-02  0.99604315578E-01  0.88977195547E+00  0.88000000000E+00 0. -1.
        -11    1    4    4    0    0  0.64527645585E-01 -0.22157257962E-02 -0.36677511120E-01  0.74257844222E-01  0.51100000000E-03 0.  1.
         11    1    4    4    0    0  0.24960179374E-01 -0.14678701718E-01 -0.58911204175E-01  0.65644999328E-01  0.51100000000E-03 0. -1.
</event>
<event>
 8    1  0.2190295E+004  0.1043930E+01  0.7957747E-01            NaN
         13   -1    0    0    0    0  0.00000000000E+00  0.00000000000E+00  0.74505805969E-08  0.10566000000E+00  0.10566000000E+00 0.  1.
     999900   -1    0    0    0    0 -0.00000000000E+00 -0.00000000000E+00 -0.74505805969E-08  0.93827000000E+00  0.93827000000E+00 0.  1.
     999902    2    1    2    0    0  0.57941973171E-02  0.82237530599E-02  0.43732853912E-02  0.10329605669E+01  0.10329023208E+01 0.  0.
     999903    2    3    3    0    0  0.14422371646E-01 -0.26724660119E-01  0.13243254385E+00  0.14296336993E+00  0.44473972253E-01 0.  0.
         14    1    1    2    0    0 -0.57941973171E-02 -0.82237530599E-02 -0.43732853912E-02  0.10969433078E-01  0.00000000000E+00 0. -1.
     999901    1    3    3    0    0 -0.86281743294E-02  0.34948413179E-01 -0.12805925846E+00  0.88999719699E+00  0.88000000000E+00 0.  1.
        -11    1    4    4    0    0  0.22595264036E-01  0.31630810600E-02  0.53376708284E-01  0.58050711855E-01  0.51100000000E-03 0.  1.
         11    1    4    4    0    0 -0.81728923897E-02 -0.29887741179E-01  0.79055835569E-01  0.84912658075E-01  0.51100000000E-03 0. -1.
</event>
<event>
 8    1  0.2190295E+004  0.1043930E+01  0.7957747E-01            NaN
         13   -1    0    0    0    0  0.00000000000E+00  0.00000000000E+00  0.74505805969E-08  0.10566000000E+00  0.10566000000E+00 0.  1.
     999900   -1    0    0    0    0 -0.00000000000E+00 -0.00000000000E+00 -0.74505805969E-08  0.93827000000E+00  0.93827000000E+00 0. -1.
     999902    2    1    2    0    0  0.12119876408E-01  0.32457310586E-02 -0.44974083112E-02  0.10306013521E+01  0.10305151595E+01 0.  0.
     999903    2    3    3    0    0  0.17993468760E-01 -0.17869522341E-02 -0.13278634541E+00  0.14126571330E+00  0.44685905072E-01 0.  0.
         14    1    1    2    0    0 -0.12119876408E-01 -0.32457310586E-02  0.44974083112E-02  0.13328647935E-01  0.00000000000E+00 0.  1.
     999901    1    3    3    0    0 -0.58735923515E-02  0.50326832927E-02  0.12828893710E+00  0.88933563876E+00  0.88000000000E+00 0.  1.
        -11    1    4    4    0    0 -0.93917118733E-02  0.10406621892E-01 -0.73533356064E-01  0.74859318767E-01  0.51100000000E-03 0.  1.
         11    1    4    4    0    0  0.27385180633E-01 -0.12193574126E-01 -0.59252989344E-01  0.66406394538E-01  0.51100000000E-03 0. -1.
</event>
<event>
 8    1  0.2190295E+004  0.1043930E+01  0.7957747E-01            NaN
         13   -1    0    0    0    0  0.00000000000E+00  0.00000000000E+00  0.74505805969E-08  0.10566000000E+00  0.10566000000E+00 0.  1.
     999900   -1    0    0    0    0 -0.00000000000E+00 -0.00000000000E+00 -0.74505805969E-08  0.93827000000E+00  0.93827000000E+00 0. -1.
     999902    2    1    2    0    0 -0.97503807081E-02 -0.77932795347E-02 -0.19726245731E-02  0.10312928968E+01  0.10312154686E+01 0.  0.
     999903    2    3    3    0    0  0.11496234214E+00  0.57302979863E-01  0.30772247285E-01  0.13951769369E+00  0.44925316243E-01 0.  0.
         14    1    1    2    0    0  0.97503807081E-02  0.77932795347E-02  0.19726245731E-02  0.12637103211E-01  0.00000000000E+00 0.  1.
     999901    1    3    3    0    0 -0.12471272284E+00 -0.65096259398E-01 -0.32744871858E-01  0.89177520310E+00  0.88000000000E+00 0.  1.
        -11    1    4    4    0    0  0.55910447409E-01  0.51442389235E-01  0.24564515595E-01  0.79849696850E-01  0.51100000000E-03 0. -1.
         11    1    4    4    0    0  0.59051894727E-01  0.58605906282E-02  0.62077316903E-02  0.59667996841E-01  0.51100000000E-03 0.  1.
</event>
<event>
 7    1  0.3423288E+004  0.1043930E+01  0.7957747E-01            NaN
         13   -1    0    0    0    0  0.00000000000E+00  0.00000000000E+00  0.74505805969E-08  0.10566000000E+00  0.10566000000E+00 0. -1.
     999900   -1    0    0    0    0 -0.00000000000E+00 -0.00000000000E+00 -0.74505805969E-08  0.93827000000E+00  0.93827000000E+00 0.  1.
     999903    2    1    2    0    0 -0.41296890726E-01  0.10000236216E+00  0.11272582598E-01  0.11836700296E+00  0.46666590298E-01 0.  0.
         14    1    1    2    0    0 -0.47879303941E-04 -0.13355860638E-01  0.36687824765E-01  0.39043281007E-01  0.00000000000E+00 0. -1.
     999901    1    1    2    0    0  0.41344770030E-01 -0.86646501526E-01 -0.47960407363E-01  0.88651971603E+00  0.88000000000E+00 0. -1.
        -11    1    3    3    0    0 -0.17851507028E-01  0.86575635547E-01  0.18673486911E-01  0.90349195945E-01  0.51100000000E-03 0. -1.
         11    1    3    3    0    0 -0.23445383699E-01  0.13426726616E-01 -0.74009043132E-02  0.28017807017E-01  0.51100000000E-03 0.  1.
</event>
<event>
 8    1  0.2190295E+004  0.1043930E+01  0.7957747E-01            NaN
         13   -1    0    0    0    0  0.00000000000E+00  0.00000000000E+00  0.74505805969E-08  0.10566000000E+00  0.10566000000E+00 0.  1.
     999900   -1    0    0    0    0 -0.00000000000E+00 -0.00000000000E+00 -0.74505805969E-08  0.93827000000E+00  0.93827000000E+00 0. -1.
     999902    2    1    2    0    0 -0.97083747655E-02  0.12408426405E-01  0.19370974873E-02  0.10280563132E+01  0.10279337572E+01 0.  0.
     999903    2    3    3    0    0 -0.57018775555E-01 -0.11185018730E+00 -0.32570473708E-01  0.13739967364E+00  0.45345665658E-01 0.  0.
         14    1    1    2    0    0  0.97083747655E-02 -0.12408426405E-01 -0.19370974873E-02  0.15873686815E-01  0.00000000000E+00 0. -1.
     999901    1    3    3    0    0  0.47310400789E-01  0.12425861370E+00  0.34507571195E-01  0.89065663955E+00  0.88000000000E+00 0.  1.
        -11    1    4    4    0    0  0.17506337575E-02 -0.27580554300E-01 -0.19510668181E-01  0.33833104911E-01  0.51100000000E-03 0. -1.
         11    1    4    4    0    0 -0.58769409312E-01 -0.84269632996E-01 -0.13059805527E-01  0.10356656873E+00  0.51100000000E-03 0.  1.
</event>
<event>
 8    1  0.2190295E+004  0.1043930E+01  0.7957747E-01            NaN
         13   -1    0    0    0    0  0.00000000000E+00  0.00000000000E+00  0.74505805969E-08  0.10566000000E+00  0.10566000000E+00 0. -1.
     999900   -1    0    0    0    0 -0.00000000000E+00 -0.00000000000E+00 -0.74505805969E-08  0.93827000000E+00  0.93827000000E+00 0.  1.
     999902    2    1    2    0    0  0.61070171638E-02 -0.50031836698E-02 -0.11059108993E-01  0.10303420864E+01  0.10302524853E+01 0.  0.
     999903    2    3    3    0    0  0.54007869242E-01  0.90888341458E-01 -0.81304308895E-01  0.14105919305E+00  0.45932175493E-01 0.  0.
         14    1    1    2    0    0 -0.61070171638E-02  0.50031836698E-02  0.11059108993E-01  0.13587913644E-01  0.00000000000E+00 0. -1.
     999901    1    3    3    0    0 -0.47900852078E-01 -0.95891525128E-01  0.70245199902E-01  0.88928289331E+00  0.88000000000E+00 0. -1.
        -11    1    4    4    0    0  0.41007900211E-01  0.25342431166E-01 -0.38557618094E-01  0.61731983049E-01  0.51100000000E-03 0.  1.
         11    1    4    4    0    0  0.12999969031E-01  0.65545910292E-01 -0.42746690801E-01  0.79327209999E-01  0.51100000000E-03 0. -1.
</event>
<event>
 8    1  0.2190295E+004  0.1043930E+01  0.7957747E-01            NaN
         13   -1    0    0    0    0  0.00000000000E+00  0.00000000000E+00  0.74505805969E-08  0.10566000000E+00  0.10566000000E+00 0.  1.
     999900   -1    0    0    0    0 -0.00000000000E+00 -0.00000000000E+00 -0.74505805969E-08  0.93827000000E+00  0.93827000000E+00 0.  1.
     999902    2    1    2    0    0  0.42046501936E-02 -0.83233782651E-02 -0.98922008517E-02  0.10303353927E+01  0.10302457028E+01 0.  0.
     999903    2    3    3    0    0 -0.53477689341E-01  0.59241950588E-01 -0.10658080075E+00  0.14059328892E+00  0.45139049983E-01 0.  0.
         14    1    1    2    0    0 -0.42046501936E-02  0.83233782651E-02  0.98922008517E-02  0.13594607265E-01  0.00000000000E+00 0.  1.
     999901    1    3    3    0    0  0.57682339535E-01 -0.67565328853E-01  0.96688599897E-01  0.88974210382E+00  0.88000000000E+00 0. -1.
        -11    1    4    4    0    0 -0.38302653999E-01  0.24473946338E-01 -0.28147044946E-01  0.53465733072E-01  0.51100000000E-03 0.  1.
         11    1    4    4    0    0 -0.15175035343E-01  0.34768004250E-01 -0.78433755803E-01  0.87127555845E-01  0.51100000000E-03 0. -1.
</event>
<event>
 8    1  0.2190295E+004  0.1043930E+01  0.7957747E-01            NaN
         13   -1    0    0    0    0  0.00000000000E+00  0.00000000000E+00  0.74505805969E-08  0.10566000000E+00  0.10566000000E+00 0.  1.
     999900   -1    0    0    0    0 -0.00000000000E+00 -0.00000000000E+00 -0.74505805969E-08  0.93827000000E+00  0.93827000000E+00 0. -1.
     999902    2    1    2    0    0 -0.68681677226E-02 -0.83562693042E-02 -0.87630432698E-02  0.10300091562E+01  0.10299150800E+01 0.  0.
     999903    2    3    3    0    0  0.76138037654E-01  0.36270039788E-01 -0.10234066125E+00  0.14004381521E+00  0.45012694526E-01 0.  0.
         14    1    1    2    0    0  0.68681677226E-02  0.83562693042E-02  0.87630432698E-02  0.13920843793E-01  0.00000000000E+00 0.  1.
     999901    1    3    3    0    0 -0.83006205377E-01 -0.44626309092E-01  0.93577617981E-01  0.88996534100E+00  0.88000000000E+00 0.  1.
        -11    1    4    4    0    0 -0.36850789585E-02  0.84154165323E-02 -0.20059113092E-01  0.22068714992E-01  0.51100000000E-03 0. -1.
         11    1    4    4    0    0  0.79823116613E-01  0.27854623256E-01 -0.82281548159E-01  0.11797510022E+00  0.51100000000E-03 0.  1.
</event>
<event>
 8    1  0.2190295E+004  0.1043930E+01  0.7957747E-01            NaN
         13   -1    0    0    0    0  0.00000000000E+00  0.00000000000E+00  0.74505805969E-08  0.10566000000E+00  0.10566000000E+00 0.  1.
     999900   -1    0    0    0    0 -0.00000000000E+00 -0.00000000000E+00 -0.74505805969E-08  0.93827000000E+00  0.93827000000E+00 0. -1.
     999902    2    1    2    0    0  0.11240514032E-01  0.62533506882E-02 -0.58422134114E-02  0.10298025442E+01  0.10297056351E+01 0.  0.
     999903    2    3    3    0    0  0.97072440457E-01 -0.79785342515E-01 -0.40971783684E-01  0.14075594077E+00  0.48423013402E-01 0.  0.
         14    1    1    2    0    0 -0.11240514032E-01 -0.62533506882E-02  0.58422134114E-02  0.14127455825E-01  0.00000000000E+00 0. -1.
     999901    1    3    3    0    0 -0.85831926425E-01  0.86038693203E-01  0.35129570272E-01  0.88904660341E+00  0.88000000000E+00 0.  1.
        -11    1    4    4    0    0 -0.34354336818E-02 -0.97972769568E-02 -0.10000888114E-01  0.14424552833E-01  0.51100000000E-03 0. -1.
         11    1    4    4    0    0  0.10050787414E+00 -0.69988065558E-01 -0.30970895569E-01  0.12633138794E+00  0.51100000000E-03 0.  1.
</event>
<event>
 8    1  0.2190295E+004  0.1043930E+01  0.7957747E-01            NaN
         13   -1    0    0    0    0  0.00000000000E+00  0.00000000000E+00  0.74505805969E-08  0.10566000000E+00  0.10566000000E+00 0. -1.
     999900   -1    0    0    0    0 -0.00000000000E+00 -0.00000000000E+00 -0.74505805969E-08  0.93827000000E+00  0.93827000000E+00 0.  1.
     999902    2    1    2    0    0 -0.20697625198E-02 -0.13549682290E-01  0.10827876826E-02  0.10301804460E+01  0.10300886860E+01 0.  0.
     999903    2    3    3    0    0 -0.93418168778E-01  0.92413075342E-01 -0.11052260692E-01  0.13904639503E+00  0.44097808935E-01 0.  0.
         14    1    1    2    0    0  0.20697625198E-02  0.13549682290E-01 -0.10827876826E-02  0.13749554037E-01  0.00000000000E+00 0.  1.
     999901    1    3    3    0    0  0.91348406258E-01 -0.10596275763E+00  0.12135048375E-01  0.89113405093E+00  0.88000000000E+00 0. -1.
        -11    1    4    4    0    0 -0.59480592441E-01  0.56127779831E-01  0.14683782554E-01  0.83091173641E-01  0.51100000000E-03 0.  1.
         11    1    4    4    0    0 -0.33937576337E-01  0.36285295511E-01 -0.25736043246E-01  0.55955221391E-01  0.51100000000E-03 0. -1.
</event>
<event>
 8    1  0.2190295E+004  0.1043930E+01  0.7957747E-01            NaN
         13   -1    0    0    0    0  0.00000000000E+00  0.00000000000E+00  0.74505805969E-08  0.10566000000E+00  0.10566000000E+00 0. -1.
     999900   -1    0    0    0    0 -0.00000000000E+00 -0.00000000000E+00 -0.74505805969E-08  0.93827000000E+00  0.93827000000E+00 0. -1.
     999902    2    1    2    0    0  0.10581542791E-01 -0.44194261409E-02 -0.65230941515E-02  0.10307371560E+01  0.10306527221E+01 0.  0.
     999903    2    3    3    0    0  0.32084486545E-02  0.92862330206E-01  0.92869631007E-01  0.13978428607E+00  0.47761613827E-01 0.  0.
         14    1    1    2    0    0 -0.10581542791E-01  0.44194261409E-02  0.65230941515E-02  0.13192843991E-01  0.00000000000E+00 0. -1.
     999901    1    3    3    0    0  0.73730941365E-02 -0.97281756346E-01 -0.99392725159E-01  0.89095286994E+00  0.88000000000E+00 0. -1.
        -11    1    4    4    0    0 -0.75165684175E-02  0.30015986778E-01  0.51972379358E-02  0.31380418516E-01  0.51100000000E-03 0.  1.
         11    1    4    4    0    0  0.10725017072E-01  0.62846343427E-01  0.87672393071E-01  0.10840386756E+00  0.51100000000E-03 0. -1.
</event>
<event>
 8    1  0.2190295E+004  0.1043930E+01  0.7957747E-01            NaN
         13   -1    0    0    0    0  0.00000000000E+00  0.00000000000E+00  0.74505805969E-08  0.10566000000E+00  0.10566000000E+00 0.  1.
     999900   -1    0    0    0    0 -0.00000000000E+00 -0.00000000000E+00 -0.74505805969E-08  0.93827000000E+00  0.93827000000E+00 0.  1.
     999902    2    1    2    0    0  0.36796831710E-03  0.11816946862E-01  0.34689508516E-02  0.10316089102E+01  0.10315353287E+01 0.  0.
     999903    2    3    3    0    0 -0.62893053547E-01 -0.36121174621E-01 -0.11165716076E+00  0.14056792239E+00  0.45074869014E-01 0.  0.
         14    1    1    2    0    0 -0.36796831710E-03 -0.11816946862E-01 -0.34689508516E-02  0.12321089798E-01  0.00000000000E+00 0.  1.
     999901    1    3    3    0    0  0.63261021864E-01  0.47938121483E-01  0.11512611161E+00  0.89104098781E+00  0.88000000000E+00 0.  1.
        -11    1    4    4    0    0 -0.32805737773E-01 -0.12346829048E-01 -0.89860693992E-01  0.96456550136E-01  0.51100000000E-03 0.  1.
         11    1    4    4    0    0 -0.30087315774E-01 -0.23774345573E-01 -0.21796466768E-01  0.44111372258E-01  0.51100000000E-03 0. -1.
</event>
<event>
 8    1  0.2190295E+004  0.1043930E+01  0.7957747E-01            NaN
         13   -1    0    0    0    0  0.00000000000E+00  0.00000000000E+00  0.74505805969E-08  0.10566000000E+00  0.10566000000E+00 0. -1.
     999900   -1    0    0    0    0 -0.00000000000E+00 -0.00000000000E+00 -0.74505805969E-08  0.93827000000E+00  0.93827000000E+00 0.  1.
     999902    2    1    2    0    0 -0.62165036770E-03  0.33712952140E-02  0.14668269207E-01  0.10288664612E+01  0.10287561833E+01 0.  0.
     999903    2    3    3    0    0 -0.12531095273E+00  0.38257008897E-01 -0.73653917877E-02  0.13911935251E+00  0.46189951751E-01 0.  0.
         14    1    1    2    0    0  0.62165036770E-03 -0.33712952140E-02 -0.14668269207E-01  0.15063538832E-01  0.00000000000E+00 0.  1.
     999901    1    3    3    0    0  0.12468930237E+00 -0.34885713683E-01  0.22033660995E-01  0.88974710866E+00  0.88000000000E+00 0.  1.
        -11    1    4    4    0    0 -0.99764765612E-01  0.18118794048E-01 -0.21493121680E-01  0.10365092646E+00  0.51100000000E-03 0. -1.
         11    1    4    4    0    0 -0.25546187121E-01  0.20138214850E-01  0.14127729893E-01  0.35468426053E-01  0.51100000000E-03 0.  1.
</event>
<event>
 8    1  0.2190295E+004  0.1043930E+01  0.7957747E-01            NaN
         13   -1    0    0    0    0  0.00000000000E+00  0.00000000000E+00  0.74505805969E-08  0.10566000000E+00  0.10566000000E+00 0.  1.
     999900   -1    0    0    0    0 -0.00000000000E+00 -0.00000000000E+00 -0.74505805969E-08  0.93827000000E+00  0.93827000000E+00 0. -1.
     999902    2    1    2    0    0  0.66954887293E-02 -0.51403749214E-04  0.13032277139E-01  0.10292782950E+01  0.10291740067E+01 0.  0.
     999903    2    3    3    0    0 -0.86159571918E-01 -0.39757658552E-01  0.92909593159E-01  0.13990827383E+00  0.44022600319E-01 0.  0.
         14    1    1    2    0    0 -0.66954887293E-02  0.51403749214E-04 -0.13032277139E-01  0.14651704989E-01  0.00000000000E+00 0. -1.
     999901    1    3    3    0    0  0.92855060647E-01  0.39706254803E-01 -0.79877316020E-01  0.88937002118E+00  0.88000000000E+00 0. -1.
        -11    1    4    4    0    0 -0.82618248519E-01 -0.37453012317E-01  0.64804294562E-01  0.11148255843E+00  0.51100000000E-03 0.  1.
         11    1    4    4    0    0 -0.35413233989E-02 -0.23046462350E-02  0.28105298598E-01  0.28425715399E-01  0.51100000000E-03 0. -1.
</event>
<event>
 8    1  0.2190295E+004  0.1043930E+01  0.7957747E-01            NaN
         13   -1    0    0    0    0  0.00000000000E+00  0.00000000000E+00  0.74505805969E-08  0.10566000000E+00  0.10566000000E+00 0.  1.
     999900   -1    0    0    0    0 -0.00000000000E+00 -0.00000000000E+00 -0.74505805969E-08  0.93827000000E+00  0.93827000000E+00 0. -1.
     999902    2    1    2    0    0  0.56741427191E-02  0.35897663035E-02 -0.12125119610E-01  0.10300699551E+01  0.10299767044E+01 0.  0.
     999903    2    3    3    0    0  0.81384997016E-01  0.85081452879E-01 -0.63401927742E-01  0.14158678733E+00  0.46525719153E-01 0.  0.
         14    1    1    2    0    0 -0.56741427191E-02 -0.35897663035E-02  0.12125119610E-01  0.13860044851E-01  0.00000000000E+00 0.  1.
     999901    1    3    3    0    0 -0.75710854297E-01 -0.81491686575E-01  0.51276808132E-01  0.88848316782E+00  0.88000000000E+00 0.  1.
        -11    1    4    4    0    0  0.33404453315E-01  0.56771422713E-01 -0.53806233569E-01  0.85054240517E-01  0.51100000000E-03 0.  1.
         11    1    4    4    0    0  0.47980543701E-01  0.28310030166E-01 -0.95956941733E-02  0.56532546816E-01  0.51100000000E-03 0. -1.
</event>
<event>
 8    1  0.2190295E+004  0.1043930E+01  0.7957747E-01            NaN
         13   -1    0    0    0    0  0.00000000000E+00  0.00000000000E+00  0.74505805969E-08  0.10566000000E+00  0.10566000000E+00 0.  1.
     999900   -1    0    0    0    0 -0.00000000000E+00 -0.00000000000E+00 -0.74505805969E-08  0.93827000000E+00  0.93827000000E+00 0.  1.
     999902    2    1    2    0    0  0.32528939060E-02 -0.11532779168E-01  0.43483802600E-02  0.10311826581E+01  0.10311038646E+01 0.  0.
     999903    2    3    3    0    0 -0.12468693492E+00 -0.39576399308E-01  0.30244952972E-01  0.14111205592E+00  0.43413500467E-01 0.  0.
         14    1    1    2    0    0 -0.32528939060E-02  0.11532779168E-01 -0.43483802600E-02  0.12747341879E-01  0.00000000000E+00 0.  1.
     999901    1    3    3    0    0  0.12793982883E+00  0.28043620140E-01 -0.25896572712E-01  0.89007060220E+00  0.88000000000E+00 0. -1.
        -11    1    4    4    0    0 -0.16174012903E-01  0.94518750443E-02  0.48630308800E-02  0.19360961381E-01  0.51100000000E-03 0. -1.
         11    1    4    4    0    0 -0.10851292202E+00 -0.49028274352E-01  0.25381922092E-01  0.12175109454E+00  0.51100000000E-03 0.  1.
</event>
<event>
 8    1  0.2190295E+004  0.1043930E+01  0.7957747E-01            NaN
         13   -1    0    0    0    0  0.00000000000E+00  0.00000000000E+00  0.74505805969E-08  0.10566000000E+00  0.10566000000E+00 0. -1.
     999900   -1    0    0    0    0 -0.00000000000E+00 -0.00000000000E+00 -0.74505805969E-08  0.93827000000E+00  0.93827000000E+00 0. -1.
     999902    2    1    2    0    0  0.53019759186E-02  0.32493707147E-02  0.11835152924E-01  0.10305606244E+01  0.10304739009E+01 0.  0.
     999903    2    3    3    0    0  0.65451935021E-01 -0.72020227802E-01 -0.89803541813E-01  0.13948601794E+00  0.43826978777E-01 0.  0.
         14    1    1    2    0    0 -0.53019759186E-02 -0.32493707147E-02 -0.11835152924E-01  0.13369375581E-01  0.00000000000E+00 0.  1.
     999901    1    3    3    0    0 -0.60149959103E-01  0.75269598516E-01  0.10163869474E+00  0.89107460648E+00  0.88000000000E+00 0.  1.
        -11    1    4    4    0    0  0.34658538249E-01 -0.79225415135E-02 -0.27693772361E-01  0.45068692972E-01  0.51100000000E-03 0. -1.
         11    1    4    4    0    0  0.30793396772E-01 -0.64097686288E-01 -0.62109769452E-01  0.94417324970E-01  0.51100000000E-03 0.  1.
</event>
<event>
 8    1  0.2190295E+004  0.1043930E+01  0.7957747E-01            NaN
         13   -1    0    0    0    0  0.00000000000E+00  0.00000000000E+00  0.74505805969E-08  0.10566000000E+00  0.10566000000E+00 0. -1.
     999900   -1    0    0    0    0 -0.00000000000E+00 -0.00000000000E+00 -0.74505805969E-08  0.93827000000E+00  0.93827000000E+00 0. -1.
     999902    2    1    2    0    0  0.18976733022E-02 -0.10374605022E-01 -0.50419945375E-03  0.10333712212E+01  0.10333172760E+01 0.  0.
     999903    2    3    3    0    0 -0.18548428031E-01  0.11840526926E+00 -0.58929222136E-01  0.14184680627E+00  0.47791330359E-01 0.  0.
         14    1    1    2    0    0 -0.18976733022E-02  0.10374605022E-01  0.50419945375E-03  0.10558778832E-01  0.00000000000E+00 0. -1.
     999901    1    3    3    0    0  0.20446101333E-01 -0.12877987428E+00  0.58425022683E-01  0.89152441490E+00  0.88000000000E+00 0.  1.
        -11    1    4    4    0    0 -0.30554818774E-01  0.44958281765E-01 -0.29181573673E-01  0.61698212394E-01  0.51100000000E-03 0.  1.
         11    1    4    4    0    0  0.12006390743E-01  0.73446987494E-01 -0.29747648463E-01  0.80148593879E-01  0.51100000000E-03 0. -1.
</event>
<event>
 8    1  0.2190295E+004  0.1043930E+01  0.7957747E-01            NaN
         13   -1    0    0    0    0  0.00000000000E+00  0.00000000000E+00  0.74505805969E-08  0.10566000000E+00  0.10566000000E+00 0.  1.
     999900   -1    0    0    0    0 -0.00000000000E+00 -0.00000000000E+00 -0.74505805969E-08  0.93827000000E+00  0.93827000000E+00 0.  1.
     999902    2    1    2    0    0 -0.82897064786E-03  0.36110272092E-03 -0.12713191083E-01  0.10311846944E+01  0.10311059262E+01 0.  0.
     999903    2    3    3    0    0  0.84226381990E-01  0.10266143287E+00  0.14048565685E-01  0.14078255929E+00  0.44597237366E-01 0.  0.
         14    1    1    2    0    0  0.82897064786E-03 -0.36110272092E-03  0.12713191083E-01  0.12745305608E-01  0.00000000000E+00 0.  1.
     999901    1    3    3    0    0 -0.85055352638E-01 -0.10230033015E+00 -0.26761756768E-01  0.89040213510E+00  0.88000000000E+00 0. -1.
        -11    1    4    4    0    0  0.40715520807E-01  0.27522660357E-01  0.21478498406E-01  0.53636158349E-01  0.51100000000E-03 0.  1.
         11    1    4    4    0    0  0.43510861183E-01  0.75138772518E-01 -0.74299327216E-02  0.87146400945E-01  0.51100000000E-03 0. -1.
</event>
<event>
 8    1  0.2190295E+004  0.1043930E+01  0.7957747E-01            NaN
         13   -1    0    0    0    0  0.00000000000E+00  0.00000000000E+00  0.74505805969E-08  0.10566000000E+00  0.10566000000E+00 0.  1.
     999900   -1    0    0    0    0 -0.00000000000E+00 -0.00000000000E+00 -0.74505805969E-08  0.93827000000E+00  0.93827000000E+00 0.  1.
     999902    2    1    2    0    0 -0.11298756531E-02  0.11411333240E-01 -0.83910841282E-02  0.10297206567E+01  0.10296226131E+01 0.  0.
     999903    2    3    3    0    0  0.30147367598E-01  0.64870296780E-01 -0.11318197023E+00  0.14134165165E+00  0.45280072112E-01 0.  0.
         14    1    1    2    0    0  0.11298756531E-02 -0.11411333240E-01  0.83910841282E-02  0.14209343340E-01  0.00000000000E+00 0.  1.
     999901    1    3    3    0    0 -0.31277243251E-01 -0.53458963541E-01  0.10479088610E+00  0.88837900501E+00  0.88000000000E+00 0. -1.
        -11    1    4    4    0    0 -0.11312174052E-01  0.65889560224E-02 -0.16115115361E-01  0.20768670813E-01  0.51100000000E-03 0. -1.
         11    1    4    4    0    0  0.41459541650E-01  0.58281340758E-01 -0.97066854865E-01  0.12057298084E+00  0.51100000000E-03 0.  1.
</event>
<event>
 8    1  0.2190295E+004  0.1043930E+01  0.7957747E-01            NaN
         13   -1    0    0    0    0  0.00000000000E+00  0.00000000000E+00  0.74505805969E-08  0.10566000000E+00  0.10566000000E+00 0. -1.
     999900   -1    0    0    0    0 -0.00000000000E+00 -0.00000000000E+00 -0.74505805969E-08  0.93827000000E+00  0.93827000000E+00 0.  1.
     999902    2    1    2    0    0  0.10454305944E-01  0.82249770601E-02 -0.58102422051E-02  0.10294144334E+01  0.10293120877E+01 0.  0.
     999903    2    3    3    0    0 -0.24677685610E-01 -0.11513130358E+00  0.55001165542E-01  0.13803962100E+00  0.46536045415E-01 0.  0.
         14    1    1    2    0    0 -0.10454305944E-01 -0.82249770601E-02  0.58102422051E-02  0.14515566640E-01  0.00000000000E+00 0. -1.
     999901    1    3    3    0    0  0.35131991555E-01  0.12335628064E+00 -0.60811407747E-01  0.89137481236E+00  0.88000000000E+00 0.  1.
        -11    1    4    4    0    0 -0.34609002244E-02 -0.83393624918E-01  0.19084236725E-01  0.85620930383E-01  0.51100000000E-03 0. -1.
         11    1    4    4    0    0 -0.21216785386E-01 -0.31737678661E-01  0.35916928817E-01  0.52418690613E-01  0.51100000000E-03 0.  1.
</event>
<event>
 8    1  0.2190295E+004  0.1043930E+01  0.7957747E-01            NaN
         13   -1    0    0    0    0  0.00000000000E+00  0.00000000000E+00  0.74505805969E-08  0.10566000000E+00  0.10566000000E+00 0.  1.
     999900   -1    0    0    0    0 -0.00000000000E+00 -0.00000000000E+00 -0.74505805969E-08  0.93827000000E+00  0.93827000000E+00 0. -1.
     999902    2    1    2    0    0  0.88961900161E-02 -0.32754654879E-02 -0.12861966177E-01  0.10279518573E+01  0.10278276703E+01 0.  0.
     999903    2    3    3    0    0  0.33616482942E-01 -0.43883738282E-01 -0.12066674878E+00  0.14009939439E+00  0.44850034958E-01 0.  0.
         14    1    1    2    0    0 -0.88961900161E-02  0.32754654879E-02  0.12861966177E-01  0.15978142724E-01  0.00000000000E+00 0.  1.
     999901    1    3    3    0    0 -0.24720292926E-01  0.40608272794E-01  0.10780478261E+00  0.88785246289E+00  0.88000000000E+00 0.  1.
        -11    1    4    4    0    0  0.28237310579E-01 -0.43698186687E-01 -0.60946767908E-01  0.80135178716E-01  0.51100000000E-03 0.  1.
         11    1    4    4    0    0  0.53791723632E-02 -0.18555159478E-03 -0.59719980874E-01  0.59964215673E-01  0.51100000000E-03 0. -1.
</event>
<event>
 8    1  0.2190295E+004  0.1043930E+01  0.7957747E-01            NaN
         13   -1    0    0    0    0  0.00000000000E+00  0.00000000000E+00  0.74505805969E-08  0.10566000000E+00  0.10566000000E+00 0. -1.
     999900   -1    0    0    0    0 -0.00000000000E+00 -0.00000000000E+00 -0.74505805969E-08  0.93827000000E+00  0.93827000000E+00 0. -1.
     999902    2    1    2    0    0  0.10458960967E-01  0.85119197137E-02  0.30816603967E-02  0.10300974560E+01  0.10300045775E+01 0.  0.
     999903    2    3    3    0    0  0.61396911861E-01 -0.57838499829E-01  0.10291243822E+00  0.14051146401E+00  0.45140101113E-01 0.  0.
         14    1    1    2    0    0 -0.10458960967E-01 -0.85119197137E-02 -0.30816603967E-02  0.13832543964E-01  0.00000000000E+00 0.  1.
     999901    1    3    3    0    0 -0.50937950893E-01  0.66350419543E-01 -0.99830777822E-01  0.88958599203E+00  0.88000000000E+00 0. -1.
        -11    1    4    4    0    0  0.40128578014E-01 -0.73370425540E-02  0.41233526844E-01  0.58005170665E-01  0.51100000000E-03 0. -1.
         11    1    4    4    0    0  0.21268333847E-01 -0.50501457275E-01  0.61678911375E-01  0.82506293341E-01  0.51100000000E-03 0.  1.
</event>
<event>
 8    1  0.2190295E+004  0.1043930E+01  0.7957747E-01            NaN
         13   -1    0    0    0    0  0.00000000000E+00  0.00000000000E+00  0.74505805969E-08  0.10566000000E+00  0.10566000000E+00 0.  1.
     999900   -1    0    0    0    0 -0.00000000000E+00 -0.00000000000E+00 -0.74505805969E-08  0.93827000000E+00  0.93827000000E+00 0. -1.
     999902    2    1    2    0    0  0.16684075994E-02  0.52170139103E-02 -0.13161818136E-01  0.10296739741E+01  0.10295752807E+01 0.  0.
     999903    2    3    3    0    0 -0.12511665560E+00  0.11888647893E-01 -0.46823217815E-01  0.13992566542E+00  0.39890608676E-01 0.  0.
         14    1    1    2    0    0 -0.16684075994E-02 -0.52170139103E-02  0.13161818136E-01  0.14256025909E-01  0.00000000000E+00 0.  1.
     999901    1    3    3    0    0  0.12678506320E+00 -0.66716339827E-02  0.33661399678E-01  0.88974830867E+00  0.88000000000E+00 0.  1.
        -11    1    4    4    0    0 -0.10464686126E+00 -0.28784124826E-02 -0.27802310101E-01  0.10831657490E+00  0.51100000000E-03 0. -1.
         11    1    4    4    0    0 -0.20469794335E-01  0.14767060376E-01 -0.19020907713E-01  0.31609090520E-01  0.51100000000E-03 0.  1.
</event>
<event>
 8    1  0.2190295E+004  0.1043930E+01  0.7957747E-01            NaN
         13   -1    0    0    0    0  0.00000000000E+00  0.00000000000E+00  0.74505805969E-08  0.10566000000E+00  0.10566000000E+00 0. -1.
     999900   -1    0    0    0    0 -0.00000000000E+00 -0.00000000000E+00 -0.74505805969E-08  0.93827000000E+00  0.93827000000E+00 0. -1.
     999902    2    1    2    0    0  0.24908151622E-02  0.18080914638E-04 -0.13028507748E-01  0.10306655173E+01  0.10305801580E+01 0.  0.
     999903    2    3    3    0    0 -0.21255642142E-01  0.84200202246E-01 -0.10302541724E+00  0.14176171626E+00  0.44053050046E-01 0.  0.
         14    1    1    2    0    0 -0.24908151622E-02 -0.18080914638E-04  0.13028507748E-01  0.13264482698E-01  0.00000000000E+00 0. -1.
     999901    1    3    3    0    0  0.23746457304E-01 -0.84182121332E-01  0.89996909494E-01  0.88890380104E+00  0.88000000000E+00 0.  1.
        -11    1    4    4    0    0 -0.11818538745E-01  0.79709113772E-01 -0.68750143585E-01  0.10592480371E+00  0.51100000000E-03 0. -1.
         11    1    4    4    0    0 -0.94371033964E-02  0.44910884746E-02 -0.34275273657E-01  0.35836912555E-01  0.51100000000E-03 0.  1.
</event>
<event>
 8    1  0.2190295E+004  0.1043930E+01  0.7957747E-01            NaN
         13   -1    0    0    0    0  0.00000000000E+00  0.00000000000E+00  0.74505805969E-08  0.10566000000E+00  0.10566000000E+00 0.  1.
     999900   -1    0    0    0    0 -0.00000000000E+00 -0.00000000000E+00 -0.74505805969E-08  0.93827000000E+00  0.93827000000E+00 0.  1.
     999902    2    1    2    0    0 -0.12658318001E-01 -0.26933079731E-02 -0.42505493664E-02  0.10303081759E+01  0.10302181241E+01 0.  0.
     999903    2    3    3    0    0 -0.79938471862E-01 -0.18836289479E-01 -0.10591972073E+00  0.14175663806E+00  0.46162670083E-01 0.  0.
         14    1    1    2    0    0  0.12658318001E-01  0.26933079731E-02  0.42505493664E-02  0.13621824120E-01  0.00000000000E+00 0.  1.
     999901    1    3    3    0    0  0.67280153862E-01  0.16142981506E-01  0.10166917137E+00  0.88855153782E+00  0.88000000000E+00 0. -1.
        -11    1    4    4    0    0 -0.32955452744E-01 -0.21352013080E-01 -0.20658361224E-01  0.44373408001E-01  0.51100000000E-03 0.  1.
         11    1    4    4    0    0 -0.46983019118E-01  0.25157236010E-02 -0.85261359508E-01  0.97383230060E-01  0.51100000000E-03 0. -1.
</event>
<event>
 8    1  0.2190295E+004  0.1043930E+01  0.7957747E-01            NaN
         13   -1    0    0    0    0  0.00000000000E+00  0.00000000000E+00  0.74505805969E-08  0.10566000000E+00  0.10566000000E+00 0.  1.
     999900   -1    0    0    0    0 -0.00000000000E+00 -0.00000000000E+00 -0.74505805969E-08  0.93827000000E+00  0.93827000000E+00 0. -1.
     999902    2    1    2    0    0  0.10316147554E-01  0.55392761833E-02  0.53163783808E-02  0.10310703593E+01  0.10309901626E+01 0.  0.
     999903    2    3    3    0    0  0.10883137592E+00  0.77397201630E-01 -0.13535403961E-01  0.14246234592E+00  0.47725440179E-01 0.  0.
         14    1    1    2    0    0 -0.10316147554E-01 -0.55392761833E-02 -0.53163783808E-02  0.12859640745E-01  0.00000000000E+00 0. -1.
     999901    1    3    3    0    0 -0.98515228362E-01 -0.71857925446E-01  0.18851782342E-01  0.88860801334E+00  0.88000000000E+00 0. -1.
        -11    1    4    4    0    0  0.74733273367E-01  0.48869763763E-01 -0.31246199936E-01  0.94603922169E-01  0.51100000000E-03 0. -1.
         11    1    4    4    0    0  0.34098102549E-01  0.28527437867E-01  0.17710795975E-01  0.47858423749E-01  0.51100000000E-03 0.  1.
</event>
<event>
 8    1  0.2190295E+004  0.1043930E+01  0.7957747E-01            NaN
         13   -1    0    0    0    0  0.00000000000E+00  0.00000000000E+00  0.74505805969E-08  0.10566000000E+00  0.10566000000E+00 0. -1.
     999900   -1    0    0    0    0 -0.00000000000E+00 -0.00000000000E+00 -0.74505805969E-08  0.93827000000E+00  0.93827000000E+00 0. -1.
     999902    2    1    2    0    0 -0.38057555133E-02 -0.50175501565E-03 -0.12621617374E-01  0.10307375492E+01  0.10306531204E+01 0.  0.
     999903    2    3    3    0    0  0.71128590482E-01  0.70338816317E-01 -0.89856885730E-01  0.14135639950E+00  0.43595255491E-01 0.  0.
         14    1    1    2    0    0  0.38057555133E-02  0.50175501565E-03  0.12621617374E-01  0.13192450805E-01  0.00000000000E+00 0. -1.
     999901    1    3    3    0    0 -0.74934345995E-01 -0.70840571333E-01  0.77235268357E-01  0.88938114970E+00  0.88000000000E+00 0.  1.
        -11    1    4    4    0    0  0.63747325872E-01  0.55817277500E-01 -0.91818739715E-01  0.12494091446E+00  0.51100000000E-03 0. -1.
         11    1    4    4    0    0  0.73812646096E-02  0.14521538817E-01  0.19618539849E-02  0.16415485034E-01  0.51100000000E-03 0.  1.
</event>
<event>
 8    1  0.2190295E+004  0.1043930E+01  0.7957747E-01            NaN
         13   -1    0    0    0    0  0.00000000000E+00  0.00000000000E+00  0.74505805969E-08  0.10566000000E+00  0.10566000000E+00 0. -1.
     999900   -1    0    0    0    0 -0.00000000000E+00 -0.00000000000E+00 -0.74505805969E-08  0.93827000000E+00  0.93827000000E+00 0.  1.
     999902    2    1    2    0    0  0.82747164600E-02  0.66608934794E-02  0.10366296542E-01  0.10290875427E+01  0.10289805013E+01 0.  0.
     999903    2    3    3    0    0  0.72631532430E-01  0.61893184589E-01  0.93081346837E-01  0.14114937747E+00  0.46399394711E-01 0.  0.
         14    1    1    2    0    0 -0.82747164600E-02 -0.66608934794E-02 -0.10366296542E-01  0.14842457291E-01  0.00000000000E+00 0.  1.
     999901    1    3    3    0    0 -0.64356815970E-01 -0.55232291109E-01 -0.82715050296E-01  0.88793816524E+00  0.88000000000E+00 0.  1.
        -11    1    4    4    0    0  0.49130898421E-02  0.28826394317E-01  0.37248298272E-01  0.47358170428E-01  0.51100000000E-03 0.  1.
         11    1    4    4    0    0  0.67718442588E-01  0.33066790271E-01  0.55833048565E-01  0.93791207042E-01  0.51100000000E-03 0. -1.
</event>
<event>
 8    1  0.2190295E+004  0.1043930E+01  0.7957747E-01            NaN
         13   -1    0    0    0    0  0.00000000000E+00  0.00000000000E+00  0.74505805969E-08  0.10566000000E+00  0.10566000000E+00 0.  1.
     999900   -1    0    0    0    0 -0.00000000000E+00 -0.00000000000E+00 -0.74505805969E-08  0.93827000000E+00  0.93827000000E+00 0.  1.
     999902    2    1    2    0    0  0.83316234580E-02  0.46605823717E-02  0.10727877591E-01  0.10295694869E+01  0.10294693313E+01 0.  0.
     999903    2    3    3    0    0  0.27053178786E-01  0.48895746395E-01 -0.11866769594E+00  0.13881112419E+00  0.45429479876E-01 0.  0.
         14    1    1    2    0    0 -0.83316234580E-02 -0.46605823717E-02 -0.10727877591E-01  0.14360513051E-01  0.00000000000E+00 0. -1.
     999901    1    3    3    0    0 -0.18721555328E-01 -0.44235164023E-01  0.12939557353E+00  0.89075836276E+00  0.88000000000E+00 0. -1.
        -11    1    4    4    0    0 -0.10554495912E-01  0.78539713426E-02 -0.42335892310E-01  0.44335890072E-01  0.51100000000E-03 0.  1.
         11    1    4    4    0    0  0.37607674698E-01  0.41041775052E-01 -0.76331803631E-01  0.94475234121E-01  0.51100000000E-03 0. -1.
</event>
<event>
 8    1  0.2190295E+004  0.1043930E+01  0.7957747E-01            NaN
         13   -1    0    0    0    0  0.00000000000E+00  0.00000000000E+00  0.74505805969E-08  0.10566000000E+00  0.10566000000E+00 0. -1.
     999900   -1    0    0    0    0 -0.00000000000E+00 -0.00000000000E+00 -0.74505805969E-08  0.93827000000E+00  0.93827000000E+00 0.  1.
     999902    2    1    2    0    0 -0.10179419146E-01  0.61869187307E-02  0.55111853681E-02  0.10308047685E+01  0.10307212034E+01 0.  0.
     999903    2    3    3    0    0 -0.12303925871E+00  0.22768822262E-01 -0.48733082306E-01  0.14178579037E+00  0.45510642597E-01 0.  0.
         14    1    1    2    0    0  0.10179419146E-01 -0.61869187307E-02 -0.55111853681E-02  0.13125231491E-01  0.00000000000E+00 0.  1.
     999901    1    3    3    0    0  0.11285983956E+00 -0.16581903531E-01  0.54244267674E-01  0.88901897814E+00  0.88000000000E+00 0.  1.
        -11    1    4    4    0    0 -0.97103671926E-01  0.11386471506E-01 -0.16981308236E-01  0.99234070688E-01  0.51100000000E-03 0.  1.
         11    1    4    4    0    0 -0.25935586783E-01  0.11382350756E-01 -0.31751774070E-01  0.42551719685E-01  0.51100000000E-03 0. -1.
</event>
<event>
 8    1  0.2190295E+004  0.1043930E+01  0.7957747E-01            NaN
         13   -1    0    0    0    0  0.00000000000E+00  0.00000000000E+00  0.74505805969E-08  0.10566000000E+00  0.10566000000E+00 0.  1.
     999900   -1    0    0    0    0 -0.00000000000E+00 -0.00000000000E+00 -0.74505805969E-08  0.93827000000E+00  0.93827000000E+00 0. -1.
     999902    2    1    2    0    0  0.33208188243E-02 -0.14066634273E-01 -0.34041213505E-02  0.10290812263E+01  0.10289740931E+01 0.  0.
     999903    2    3    3    0    0  0.72819847486E-01 -0.37117635193E-01 -0.10470833831E+00  0.14024827914E+00  0.45003273883E-01 0.  0.
         14    1    1    2    0    0 -0.33208188243E-02  0.14066634273E-01  0.34041213505E-02  0.14848773674E-01  0.00000000000E+00 0. -1.
     999901    1    3    3    0    0 -0.69499028662E-01  0.23051000919E-01  0.10130421696E+00  0.88883294719E+00  0.88000000000E+00 0.  1.
        -11    1    4    4    0    0  0.50356179054E-01 -0.36420630146E-01 -0.45816030023E-01  0.77211247867E-01  0.51100000000E-03 0. -1.
         11    1    4    4    0    0  0.22463668433E-01 -0.69700504652E-03 -0.58892308287E-01  0.63037031274E-01  0.51100000000E-03 0.  1.
</event>
<event>
 8    1  0.2190295E+004  0.1043930E+01  0.7957747E-01            NaN
         13   -1    0    0    0    0  0.00000000000E+00  0.00000000000E+00  0.74505805969E-08  0.10566000000E+00  0.10566000000E+00 0.  1.
     999900   -1    0    0    0    0 -0.00000000000E+00 -0.00000000000E+00 -0.74505805969E-08  0.93827000000E+00  0.93827000000E+00 0.  1.
     999902    2    1    2    0    0 -0.11423494677E-01 -0.65766452598E-02 -0.32257477165E-02  0.10303596668E+01  0.10302702991E+01 0.  0.
     999903    2    3    3    0    0 -0.12173979757E+00  0.35211596440E-01 -0.44125119766E-01  0.14154658050E+00  0.45033025905E-01 0.  0.
         14    1    1    2    0    0  0.11423494677E-01  0.65766452598E-02  0.32257477165E-02  0.13570333152E-01  0.00000000000E+00 0. -1.
     999901    1    3    3    0    0  0.11031630289E+00 -0.41788241700E-01  0.40899372050E-01  0.88881308635E+00  0.88000000000E+00 0. -1.
        -11    1    4    4    0    0 -0.95865639898E-02  0.15576044596E-01  0.25828746437E-02  0.18478304490E-01  0.51100000000E-03 0.  1.
         11    1    4    4    0    0 -0.11215323358E+00  0.19635551844E-01 -0.46707994410E-01  0.12306827601E+00  0.51100000000E-03 0. -1.
</event>
<event>
 8    1  0.2190295E+004  0.1043930E+01  0.7957747E-01            NaN
         13   -1    0    0    0    0  0.00000000000E+00  0.00000000000E+00  0.74505805969E-08  0.10566000000E+00  0.10566000000E+00 0. -1.
     999900   -1    0    0    0    0 -0.00000000000E+00 -0.00000000000E+00 -0.74505805969E-08  0.93827000000E+00  0.93827000000E+00 0.  1.
     999902    2    1    2    0    0 -0.36771865957E-02  0.10349676400E-01  0.74508537094E-02  0.10306577461E+01  0.10305722861E+01 0.  0.
     999903    2    3    3    0    0  0.12160355275E-01 -0.44788700635E-01 -0.12273137769E+00  0.13923277352E+00  0.46571152093E-01 0.  0.
         14    1    1    2    0    0  0.36771865957E-02 -0.10349676400E-01 -0.74508537094E-02  0.13272253910E-01  0.00000000000E+00 0.  1.
     999901    1    3    3    0    0 -0.15837541871E-01  0.55138377035E-01  0.13018223140E+00  0.89142497257E+00  0.88000000000E+00 0. -1.
        -11    1    4    4    0    0  0.20789394141E-01 -0.79398147498E-03 -0.35384172092E-01  0.41050335820E-01  0.51100000000E-03 0.  1.
         11    1    4    4    0    0 -0.86290388662E-02 -0.43994719160E-01 -0.87347205596E-01  0.98182437697E-01  0.51100000000E-03 0. -1.
</event>
<event>
 8    1  0.2190295E+004  0.1043930E+01  0.7957747E-01            NaN
         13   -1    0    0    0    0  0.00000000000E+00  0.00000000000E+00  0.74505805969E-08  0.10566000000E+00  0.10566000000E+00 0.  1.
     999900   -1    0    0    0    0 -0.00000000000E+00 -0.00000000000E+00 -0.74505805969E-08  0.93827000000E+00  0.93827000000E+00 0.  1.
     999902    2    1    2    0    0 -0.75253644509E-02  0.11237928493E-01 -0.53469200069E-02  0.10293865582E+01  0.10292838163E+01 0.  0.
     999903    2    3    3    0    0  0.84698239653E-01 -0.81409544684E-01 -0.57274600331E-01  0.13821584981E+00  0.44965937438E-01 0.  0.
         14    1    1    2    0    0  0.75253644509E-02 -0.11237928493E-01  0.53469200069E-02  0.14543441838E-01  0.00000000000E+00 0.  1.
     999901    1    3    3    0    0 -0.92223604104E-01  0.92647473177E-01  0.51927680324E-01  0.89117070835E+00  0.88000000000E+00 0.  1.
        -11    1    4    4    0    0  0.62922564496E-01 -0.49035881514E-01 -0.58900254021E-01  0.99162834991E-01  0.51100000000E-03 0. -1.
         11    1    4    4    0    0  0.21775675157E-01 -0.32373663170E-01  0.16256536904E-02  0.39053014820E-01  0.51100000000E-03 0.  1.
</event>
<event>
 8    1  0.2190295E+004  0.1043930E+01  0.7957747E-01            NaN
         13   -1    0    0    0    0  0.00000000000E+00  0.00000000000E+00  0.74505805969E-08  0.10566000000E+00  0.10566000000E+00 0.  1.
     999900   -1    0    0    0    0 -0.00000000000E+00 -0.00000000000E+00 -0.74505805969E-08  0.93827000000E+00  0.93827000000E+00 0.  1.
     999902    2    1    2    0    0 -0.15612132255E-02  0.20043642491E-02 -0.13510141385E-01  0.10301830446E+01  0.10300913195E+01 0.  0.
     999903    2    3    3    0    0  0.11992845282E+00  0.34668006526E-01  0.42916595798E-01  0.13944704041E+00  0.44932598534E-01 0.  0.
         14    1    1    2    0    0  0.15612132255E-02 -0.20043642491E-02  0.13510141385E-01  0.13746955409E-01  0.00000000000E+00 0.  1.
     999901    1    3    3    0    0 -0.12148966604E+00 -0.32663642277E-01 -0.56426737183E-01  0.89073600419E+00  0.88000000000E+00 0.  1.
        -11    1    4    4    0    0  0.54856434824E-01  0.14314908685E-01  0.43175611299E-01  0.71263872925E-01  0.51100000000E-03 0. -1.
         11    1    4    4    0    0  0.65072017995E-01  0.20353097841E-01 -0.25901550098E-03  0.68183167481E-01  0.51100000000E-03 0.  1.
</event>
<event>
 8    1  0.2190295E+004  0.1043930E+01  0.7957747E-01            NaN
         13   -1    0    0    0    0  0.00000000000E+00  0.00000000000E+00  0.74505805969E-08  0.10566000000E+00  0.10566000000E+00 0.  1.
     999900   -1    0    0    0    0 -0.00000000000E+00 -0.00000000000E+00 -0.74505805969E-08  0.93827000000E+00  0.93827000000E+00 0. -1.
     999902    2    1    2    0    0  0.54337240943E-02 -0.79574174322E-02  0.10777291647E-01  0.10294733107E+01  0.10293717995E+01 0.  0.
     999903    2    3    3    0    0  0.68358509542E-01  0.56553657206E-01  0.99084666122E-01  0.14047421074E+00  0.45210959431E-01 0.  0.
         14    1    1    2    0    0 -0.54337240943E-02  0.79574174322E-02 -0.10777291647E-01  0.14456689281E-01  0.00000000000E+00 0. -1.
     999901    1    3    3    0    0 -0.62924785448E-01 -0.64511074638E-01 -0.88307374475E-01  0.88899909998E+00  0.88000000000E+00 0. -1.
        -11    1    4    4    0    0  0.32523069441E-01  0.53069078692E-02  0.54437049442E-01  0.63636206596E-01  0.51100000000E-03 0.  1.
         11    1    4    4    0    0  0.35835440101E-01  0.51246749336E-01  0.44647616680E-01  0.76838004145E-01  0.51100000000E-03 0. -1.
</event>
<event>
 8    1  0.2190295E+004  0.1043930E+01  0.7957747E-01            NaN
         13   -1    0    0    0    0  0.00000000000E+00  0.00000000000E+00  0.74505805969E-08  0.10566000000E+00  0.10566000000E+00 0.  1.
     999900   -1    0    0    0    0 -0.00000000000E+00 -0.00000000000E+00 -0.74505805969E-08  0.93827000000E+00  0.93827000000E+00 0.  1.
     999902    2    1    2    0    0  0.79982795058E-02  0.10760904512E-01 -0.19356677098E-02  0.10303831793E+01  0.10302941230E+01 0.  0.
     999903    2    3    3    0    0  0.26246035171E-02  0.13380224402E+00  0.16294579388E-01  0.14161977463E+00  0.43367248011E-01 0.  0.
         14    1    1    2    0    0 -0.79982795058E-02 -0.10760904512E-01  0.19356677098E-02  0.13546820677E-01  0.00000000000E+00 0.  1.
     999901    1    3    3    0    0  0.53736759887E-02 -0.12304133950E+00 -0.18230247098E-01  0.88876340470E+00  0.88000000000E+00 0.  1.
        -11    1    4    4    0    0  0.83017341232E-04  0.84294387522E-01  0.31148245558E-01  0.89866706749E-01  0.51100000000E-03 0. -1.
         11    1    4    4    0    0  0.25415861759E-02  0.49507856495E-01 -0.14853666169E-01  0.51753067877E-01  0.51100000000E-03 0.  1.
</event>
<event>
 8    1  0.2190295E+004  0.1043930E+01  0.7957747E-01            NaN
         13   -1    0    0    0    0  0.00000000000E+00  0.00000000000E+00  0.74505805969E-08  0.10566000000E+00  0.10566000000E+00 0. -1.
     999900   -1    0    0    0    0 -0.00000000000E+00 -0.00000000000E+00 -0.74505805969E-08  0.93827000000E+00  0.93827000000E+00 0. -1.
     999902    2    1    2    0    0  0.97186300877E-02  0.10715716951E-02  0.10983137613E-01  0.10292252610E+01  0.10291202109E+01 0.  0.
     999903    2    3    3    0    0 -0.12864240326E+00  0.20317395125E-01  0.69671440392E-02  0.13819759283E+00  0.45698677308E-01 0.  0.
         14    1    1    2    0    0 -0.97186300877E-02 -0.10715716951E-02 -0.10983137613E-01  0.14704738981E-01  0.00000000000E+00 0.  1.
     999901    1    3    3    0    0  0.13836103335E+00 -0.19245823430E-01  0.40159935741E-02  0.89102766819E+00  0.88000000000E+00 0. -1.
        -11    1    4    4    0    0 -0.17205055181E-01 -0.12352730130E-01 -0.39692295872E-02  0.21555040477E-01  0.51100000000E-03 0.  1.
         11    1    4    4    0    0 -0.11143734808E+00  0.32670125255E-01  0.10936373626E-01  0.11664255236E+00  0.51100000000E-03 0. -1.
</event>
<event>
 8    1  0.2190295E+004  0.1043930E+01  0.7957747E-01            NaN
         13   -1    0    0    0    0  0.00000000000E+00  0.00000000000E+00  0.74505805969E-08  0.10566000000E+00  0.10566000000E+00 0. -1.
     999900   -1    0    0    0    0 -0.00000000000E+00 -0.00000000000E+00 -0.74505805969E-08  0.93827000000E+00  0.93827000000E+00 0.  1.
     999902    2    1    2    0    0 -0.82857447543E-03 -0.12022091736E-01  0.66305656524E-02  0.10301756688E+01  0.10300838446E+01 0.  0.
     999903    2    3    3    0    0  0.27494144432E-01 -0.13128982707E+00 -0.23514346414E-02  0.14163324134E+00  0.45403734843E-01 0.  0.
         14    1    1    2    0    0  0.82857447543E-03  0.12022091736E-01 -0.66305656524E-02  0.13754331181E-01  0.00000000000E+00 0.  1.
     999901    1    3    3    0    0 -0.28322718907E-01  0.11926773533E+00  0.89820002937E-02  0.88854242748E+00  0.88000000000E+00 0.  1.
        -11    1    4    4    0    0  0.13571028827E-01 -0.96604629143E-01  0.17805051951E-01  0.99166063708E-01  0.51100000000E-03 0. -1.
         11    1    4    4    0    0  0.13923115605E-01 -0.34685197928E-01 -0.20156486592E-01  0.42467177634E-01  0.51100000000E-03 0.  1.
</event>
<event>
 8    1  0.2190295E+004  0.1043930E+01  0.7957747E-01            NaN
         13   -1    0    0    0    0  0.00000000000E+00  0.00000000000E+00  0.74505805969E-08  0.10566000000E+00  0.10566000000E+00 0. -1.
     999900   -1    0    0    0    0 -0.00000000000E+00 -0.00000000000E+00 -0.74505805969E-08  0.93827000000E+00  0.93827000000E+00 0. -1.
     999902    2    1    2    0    0 -0.97150353945E-02 -0.75132550655E-02 -0.67049278171E-02  0.10299376102E+01  0.10298425579E+01 0.  0.
     999903    2    3    3    0    0  0.16178830908E-02  0.12831315050E+00  0.28851927460E-01  0.13873531140E+00  0.44138087552E-01 0.  0.
         14    1    1    2    0    0  0.97150353945E-02  0.75132550655E-02  0.67049278171E-02  0.13992389768E-01  0.00000000000E+00 0. -1.
     999901    1    3    3    0    0 -0.11332918485E-01 -0.13582640557E+00 -0.35556855277E-01  0.89120229883E+00  0.88000000000E+00 0.  1.
        -11    1    4    4    0    0 -0.19305573746E-01  0.87080854142E-01  0.14871470899E-01  0.90427883440E-01  0.51100000000E-03 0. -1.
         11    1    4    4    0    0  0.20923456837E-01  0.41232296360E-01  0.13980456562E-01  0.48307427957E-01  0.51100000000E-03 0.  1.
</event>
<event>
 8    1  0.2190295E+004  0.1043930E+01  0.7957747E-01            NaN
         13   -1    0    0    0    0  0.00000000000E+00  0.00000000000E+00  0.74505805969E-08  0.10566000000E+00  0.10566000000E+00 0.  1.
     999900   -1    0    0    0    0 -0.00000000000E+00 -0.00000000000E+00 -0.74505805969E-08  0.93827000000E+00  0.93827000000E+00 0. -1.
     999902    2    1    2    0    0  0.11495288684E-01 -0.70889776538E-02  0.40278764052E-02  0.10298367727E+01  0.10297403359E+01 0.  0.
     999903    2    3    3    0    0  0.88634334738E-01  0.17640639291E-01  0.98035580001E-01  0.14113016496E+00  0.46254849125E-01 0.  0.
         14    1    1    2    0    0 -0.11495288684E-01  0.70889776538E-02 -0.40278764052E-02  0.14093227254E-01  0.00000000000E+00 0. -1.
     999901    1    3    3    0    0 -0.77139046054E-01 -0.24729616945E-01 -0.94007703596E-01  0.88870660778E+00  0.88000000000E+00 0. -1.
        -11    1    4    4    0    0  0.21960150566E-01 -0.90461018961E-02  0.62088432896E-02  0.24553839382E-01  0.51100000000E-03 0.  1.
         11    1    4    4    0    0  0.66674184172E-01  0.26686741187E-01  0.91826736711E-01  0.11657632558E+00  0.51100000000E-03 0. -1.
</event>
<event>
 8    1  0.2190295E+004  0.1043930E+01  0.7957747E-01            NaN
         13   -1    0    0    0    0  0.00000000000E+00  0.00000000000E+00  0.74505805969E-08  0.10566000000E+00  0.10566000000E+00 0.  1.
     999900   -1    0    0    0    0 -0.00000000000E+00 -0.00000000000E+00 -0.74505805969E-08  0.93827000000E+00  0.93827000000E+00 0.  1.
     999902    2    1    2    0    0 -0.53300122545E-02 -0.88386492411E-02  0.91640680777E-02  0.10301274316E+01  0.10300349579E+01 0.  0.
     999903    2    3    3    0    0  0.35435779732E-01  0.11470756950E+00  0.56628112497E-01  0.13929728309E+00  0.42231137390E-01 0.  0.
         14    1    1    2    0    0  0.53300122545E-02  0.88386492411E-02 -0.91640680777E-02  0.13802568412E-01  0.00000000000E+00 0. -1.
     999901    1    3    3    0    0 -0.40765791987E-01 -0.12354621874E+00 -0.47464044419E-01  0.89083014850E+00  0.88000000000E+00 0.  1.
        -11    1    4    4    0    0 -0.39138610138E-03  0.16527498496E-01  0.25231031550E-01  0.30169147547E-01  0.51100000000E-03 0.  1.
         11    1    4    4    0    0  0.35827165833E-01  0.98180071004E-01  0.31397080947E-01  0.10912813554E+00  0.51100000000E-03 0. -1.
</event>
<event>
 8    1  0.2190295E+004  0.1043930E+01  0.7957747E-01            NaN
         13   -1    0    0    0    0  0.00000000000E+00  0.00000000000E+00  0.74505805969E-08  0.10566000000E+00  0.10566000000E+00 0.  1.
     999900   -1    0    0    0    0 -0.00000000000E+00 -0.00000000000E+00 -0.74505805969E-08  0.93827000000E+00  0.93827000000E+00 0.  1.
     999902    2    1    2    0    0  0.95065280727E-02 -0.25091037978E-02  0.95767287434E-02  0.10302047163E+01  0.10301132822E+01 0.  0.
     999903    2    3    3    0    0 -0.10523780172E+00 -0.79950289370E-01 -0.24612698062E-02  0.13930162855E+00  0.43952726715E-01 0.  0.
         14    1    1    2    0    0 -0.95065280727E-02  0.25091037978E-02 -0.95767287434E-02  0.13725283651E-01  0.00000000000E+00 0. -1.
     999901    1    3    3    0    0  0.11474432979E+00  0.77441185572E-01  0.12037998550E-01  0.89090308780E+00  0.88000000000E+00 0. -1.
        -11    1    4    4    0    0 -0.36579290886E-01 -0.52074620591E-01  0.91484106067E-02  0.64294363431E-01  0.51100000000E-03 0. -1.
         11    1    4    4    0    0 -0.68658510837E-01 -0.27875668779E-01 -0.11609680413E-01  0.75007265118E-01  0.51100000000E-03 0.  1.
</event>
<event>
 8    1  0.2190295E+004  0.1043930E+01  0.7957747E-01            NaN
         13   -1    0    0    0    0  0.00000000000E+00  0.00000000000E+00  0.74505805969E-08  0.10566000000E+00  0.10566000000E+00 0. -1.
     999900   -1    0    0    0    0 -0.00000000000E+00 -0.00000000000E+00 -0.74505805969E-08  0.93827000000E+00  0.93827000000E+00 0.  1.
     999902    2    1    2    0    0  0.13398666530E-01 -0.36984088686E-02  0.20426310780E-02  0.10298809846E+01  0.10297851560E+01 0.  0.
     999903    2    3    3    0    0  0.75184043842E-01 -0.42472348473E-01 -0.98930206888E-01  0.14110859230E+00  0.51651797196E-01 0.  0.
         14    1    1    2    0    0 -0.13398666530E-01  0.36984088686E-02 -0.20426310780E-02  0.14049015434E-01  0.00000000000E+00 0.  1.
     999901    1    3    3    0    0 -0.61785377312E-01  0.38773939605E-01  0.10097283797E+00  0.88877239226E+00  0.88000000000E+00 0. -1.
        -11    1    4    4    0    0  0.36206102382E-01 -0.49119101167E-01 -0.57776964153E-01  0.84035746304E-01  0.51100000000E-03 0. -1.
         11    1    4    4    0    0  0.38977941460E-01  0.66467526937E-02 -0.41153242735E-01  0.57072845999E-01  0.51100000000E-03 0.  1.
</event>
<event>
 8    1  0.2190295E+004  0.1043930E+01  0.7957747E-01            NaN
         13   -1    0    0    0    0  0.00000000000E+00  0.00000000000E+00  0.74505805969E-08  0.10566000000E+00  0.10566000000E+00 0. -1.
     999900   -1    0    0    0    0 -0.00000000000E+00 -0.00000000000E+00 -0.74505805969E-08  0.93827000000E+00  0.93827000000E+00 0. -1.
     999902    2    1    2    0    0  0.55711729103E-03  0.14086480696E-01  0.16791400262E-02  0.10297328584E+01  0.10296349843E+01 0.  0.
     999903    2    3    3    0    0  0.59981070892E-01  0.45717953947E-01  0.10977219844E+00  0.14056703269E+00  0.44958813918E-01 0.  0.
         14    1    1    2    0    0 -0.55711729103E-03 -0.14086480696E-01 -0.16791400262E-02  0.14197141589E-01  0.00000000000E+00 0.  1.
     999901    1    3    3    0    0 -0.59423953601E-01 -0.31631473252E-01 -0.10809305841E+00  0.88916582573E+00  0.88000000000E+00 0. -1.
        -11    1    4    4    0    0  0.20019607498E-01 -0.70070413856E-02  0.32864649673E-01  0.39118149655E-01  0.51100000000E-03 0.  1.
         11    1    4    4    0    0  0.39961463394E-01  0.52724995333E-01  0.76907548768E-01  0.10144888303E+00  0.51100000000E-03 0. -1.
</event>
<event>
 8    1  0.2190295E+004  0.1043930E+01  0.7957747E-01            NaN
         13   -1    0    0    0    0  0.00000000000E+00  0.00000000000E+00  0.74505805969E-08  0.10566000000E+00  0.10566000000E+00 0.  1.
     999900   -1    0    0    0    0 -0.00000000000E+00 -0.00000000000E+00 -0.74505805969E-08  0.93827000000E+00  0.93827000000E+00 0. -1.
     999902    2    1    2    0    0  0.83781604318E-02  0.73887006048E-03 -0.96157024571E-02  0.10311549761E+01  0.10310758379E+01 0.  0.
     999903    2    3    3    0    0  0.63085372853E-01  0.66348686335E-01 -0.99212585844E-01  0.14249017509E+00  0.45589476442E-01 0.  0.
         14    1    1    2    0    0 -0.83781604318E-02 -0.73887006048E-03  0.96157024571E-02  0.12775023872E-01  0.00000000000E+00 0. -1.
     999901    1    3    3    0    0 -0.54707212422E-01 -0.65609816274E-01  0.89596883387E-01  0.88866480103E+00  0.88000000000E+00 0.  1.
        -11    1    4    4    0    0  0.27123643547E-01  0.42929564283E-01 -0.81572343945E-01  0.96088230010E-01  0.51100000000E-03 0. -1.
         11    1    4    4    0    0  0.35961729307E-01  0.23419122052E-01 -0.17640241899E-01  0.46401945085E-01  0.51100000000E-03 0.  1.
</event>
<event>
 8    1  0.2190295E+004  0.1043930E+01  0.7957747E-01            NaN
         13   -1    0    0    0    0  0.00000000000E+00  0.00000000000E+00  0.74505805969E-08  0.10566000000E+00  0.10566000000E+00 0. -1.
     999900   -1    0    0    0    0 -0.00000000000E+00 -0.00000000000E+00 -0.74505805969E-08  0.93827000000E+00  0.93827000000E+00 0. -1.
     999902    2    1    2    0    0 -0.91819866541E-02  0.96276832978E-02 -0.36249563397E-03  0.10306208840E+01  0.10305349456E+01 0.  0.
     999903    2    3    3    0    0  0.71238005797E-01 -0.79843627538E-01  0.75652274263E-01  0.13918903813E+00  0.46909097276E-01 0.  0.
         14    1    1    2    0    0  0.91819866541E-02 -0.96276832978E-02  0.36249563397E-03  0.13309115962E-01  0.00000000000E+00 0. -1.
     999901    1    3    3    0    0 -0.80419992451E-01  0.89471310836E-01 -0.76014769897E-01  0.89143184590E+00  0.88000000000E+00 0. -1.
        -11    1    4    4    0    0  0.70917545944E-02 -0.38141715734E-01  0.15171043218E-01  0.41659394327E-01  0.51100000000E-03 0. -1.
         11    1    4    4    0    0  0.64146251203E-01 -0.41701911804E-01  0.60481231045E-01  0.97529643807E-01  0.51100000000E-03 0.  1.
</event>
<event>
 8    1  0.2190295E+004  0.1043930E+01  0.7957747E-01            NaN
         13   -1    0    0    0    0  0.00000000000E+00  0.00000000000E+00  0.74505805969E-08  0.10566000000E+00  0.10566000000E+00 0.  1.
     999900   -1    0    0    0    0 -0.00000000000E+00 -0.00000000000E+00 -0.74505805969E-08  0.93827000000E+00  0.93827000000E+00 0.  1.
     999902    2    1    2    0    0 -0.29717624481E-03 -0.67694506017E-02 -0.10431427066E-01  0.10314910111E+01  0.10314160060E+01 0.  0.
     999903    2    3    3    0    0 -0.70372242838E-02 -0.46650125044E-01  0.12421431732E+00  0.14033144459E+00  0.45143781621E-01 0.  0.
         14    1    1    2    0    0  0.29717624481E-03  0.67694506017E-02  0.10431427066E-01  0.12438988938E-01  0.00000000000E+00 0.  1.
     999901    1    3    3    0    0  0.67400480390E-02  0.39880674442E-01 -0.13464574439E+00  0.89115956648E+00  0.88000000000E+00 0.  1.
        -11    1    4    4    0    0 -0.12152682505E-01  0.97626331961E-03  0.78934561920E-02  0.14533015991E-01  0.51100000000E-03 0.  1.
         11    1    4    4    0    0  0.51154582217E-02 -0.47626388363E-01  0.11632086113E+00  0.12579842859E+00  0.51100000000E-03 0. -1.
</event>
<event>
 8    1  0.2190295E+004  0.1043930E+01  0.7957747E-01            NaN
         13   -1    0    0    0    0  0.00000000000E+00  0.00000000000E+00  0.74505805969E-08  0.10566000000E+00  0.10566000000E+00 0.  1.
     999900   -1    0    0    0    0 -0.00000000000E+00 -0.00000000000E+00 -0.74505805969E-08  0.93827000000E+00  0.93827000000E+00 0. -1.
     999902    2    1    2    0    0  0.46633841061E-02 -0.11532275370E-01 -0.57064395366E-02  0.10302440956E+01  0.10301531889E+01 0.  0.
     999903    2    3    3    0    0 -0.58691772386E-01 -0.69995420296E-01 -0.97895459210E-01  0.14123867915E+00  0.44952870267E-01 0.  0.
         14    1    1    2    0    0 -0.46633841061E-02  0.11532275370E-01  0.57064395366E-02  0.13685904380E-01  0.00000000000E+00 0. -1.
     999901    1    3    3    0    0  0.63355156493E-01  0.58463144926E-01  0.92189019673E-01  0.88900541647E+00  0.88000000000E+00 0. -1.
        -11    1    4    4    0    0 -0.14519710447E-01 -0.23388803432E-01 -0.45033215181E-02  0.27899805432E-01  0.51100000000E-03 0.  1.
         11    1    4    4    0    0 -0.44172061940E-01 -0.46606616863E-01 -0.93392137692E-01  0.11333887372E+00  0.51100000000E-03 0. -1.
</event>
<event>
 8    1  0.2190295E+004  0.1043930E+01  0.7957747E-01            NaN
         13   -1    0    0    0    0  0.00000000000E+00  0.00000000000E+00  0.74505805969E-08  0.10566000000E+00  0.10566000000E+00 0.  1.
     999900   -1    0    0    0    0 -0.00000000000E+00 -0.00000000000E+00 -0.74505805969E-08  0.93827000000E+00  0.93827000000E+00 0. -1.
     999902    2    1    2    0    0 -0.95027319562E-02  0.47087499926E-03  0.10553173341E-01  0.10297210906E+01  0.10296230531E+01 0.  0.
     999903    2    3    3    0    0 -0.39437537826E-01 -0.12591241096E+00 -0.16590121975E-01  0.13977413375E+00  0.43038607029E-01 0.  0.
         14    1    1    2    0    0  0.95027319562E-02 -0.47087499926E-03 -0.10553173341E-01  0.14208909369E-01  0.00000000000E+00 0. -1.
     999901    1    3    3    0    0  0.29934805870E-01  0.12638328596E+00  0.27143295316E-01  0.88994695688E+00  0.88000000000E+00 0. -1.
        -11    1    4    4    0    0 -0.38907917420E-01 -0.85291492645E-01  0.47780604541E-02  0.93869887282E-01  0.51100000000E-03 0.  1.
         11    1    4    4    0    0 -0.52962040585E-03 -0.40620918320E-01 -0.21368182429E-01  0.45904246473E-01  0.51100000000E-03 0. -1.
</event>
<event>
 8    1  0.2190295E+004  0.1043930E+01  0.7957747E-01            NaN
         13   -1    0    0    0    0  0.00000000000E+00  0.00000000000E+00  0.74505805969E-08  0.10566000000E+00  0.10566000000E+00 0. -1.
     999900   -1    0    0    0    0 -0.00000000000E+00 -0.00000000000E+00 -0.74505805969E-08  0.93827000000E+00  0.93827000000E+00 0. -1.
     999902    2    1    2    0    0 -0.16669100804E-01 -0.32929072538E-02 -0.21299311454E-02  0.10268057842E+01  0.10266629825E+01 0.  0.
     999903    2    3    3    0    0  0.65419211443E-03 -0.11306544815E+00  0.62253352759E-01  0.13748283136E+00  0.47347919257E-01 0.  0.
         14    1    1    2    0    0  0.16669100804E-01  0.32929072538E-02  0.21299311454E-02  0.17124215792E-01  0.00000000000E+00 0. -1.
     999901    1    3    3    0    0 -0.17323292919E-01  0.10977254089E+00 -0.64383283904E-01  0.88932295285E+00  0.88000000000E+00 0. -1.
        -11    1    4    4    0    0 -0.11938967260E-01 -0.43894466002E-01  0.47249493523E-01  0.65589929441E-01  0.51100000000E-03 0. -1.
         11    1    4    4    0    0  0.12593159375E-01 -0.69170982143E-01  0.15003859235E-01  0.71892901921E-01  0.51100000000E-03 0.  1.
</event>
<event>
 8    1  0.2190295E+004  0.1043930E+01  0.7957747E-01            NaN
         13   -1    0    0    0    0  0.00000000000E+00  0.00000000000E+00  0.74505805969E-08  0.10566000000E+00  0.10566000000E+00 0. -1.
     999900   -1    0    0    0    0 -0.00000000000E+00 -0.00000000000E+00 -0.74505805969E-08  0.93827000000E+00  0.93827000000E+00 0.  1.
     999902    2    1    2    0    0  0.11632429492E-01  0.55499388657E-02 -0.56342409928E-02  0.10298637315E+01  0.10297676658E+01 0.  0.
     999903    2    3    3    0    0  0.48862234248E-02  0.12575936478E+00  0.42072215575E-01  0.14038538813E+00  0.45811492747E-01 0.  0.
         14    1    1    2    0    0 -0.11632429492E-01 -0.55499388657E-02  0.56342409928E-02  0.14066268476E-01  0.00000000000E+00 0. -1.
     999901    1    3    3    0    0  0.67462060667E-02 -0.12020942591E+00 -0.47706456568E-01  0.88947834340E+00  0.88000000000E+00 0.  1.
        -11    1    4    4    0    0 -0.32351942043E-02  0.24377187821E-01  0.28706637482E-01  0.37802723766E-01  0.51100000000E-03 0. -1.
         11    1    4    4    0    0  0.81214176291E-02  0.10138217696E+00  0.13365578093E-01  0.10258266436E+00  0.51100000000E-03 0.  1.
</event>
<event>
 8    1  0.2190295E+004  0.1043930E+01  0.7957747E-01            NaN
         13   -1    0    0    0    0  0.00000000000E+00  0.00000000000E+00  0.74505805969E-08  0.10566000000E+00  0.10566000000E+00 0. -1.
     999900   -1    0    0    0    0 -0.00000000000E+00 -0.00000000000E+00 -0.74505805969E-08  0.93827000000E+00  0.93827000000E+00 0. -1.
     999902    2    1    2    0    0 -0.14323945395E-01 -0.36997170900E-02  0.49078340943E-02  0.10283431416E+01  0.10282250079E+01 0.  0.
     999903    2    3    3    0    0  0.47133688239E-01  0.15021004110E-01  0.12083920300E+00  0.13841753326E+00  0.45935665892E-01 0.  0.
         14    1    1    2    0    0  0.14323945395E-01  0.36997170900E-02 -0.49078340943E-02  0.15586858366E-01  0.00000000000E+00 0.  1.
     999901    1    3    3    0    0 -0.61457633635E-01 -0.18720721200E-01 -0.11593136891E+00  0.88992560837E+00  0.88000000000E+00 0. -1.
        -11    1    4    4    0    0  0.22677646419E-01  0.22863943099E-01  0.29995146523E-01  0.44011424393E-01  0.51100000000E-03 0. -1.
         11    1    4    4    0    0  0.24456041820E-01 -0.78429389885E-02  0.90844056480E-01  0.94406108872E-01  0.51100000000E-03 0.  1.
</event>
<event>
 8    1  0.2190295E+004  0.1043930E+01  0.7957747E-01            NaN
         13   -1    0    0    0    0  0.00000000000E+00  0.00000000000E+00  0.74505805969E-08  0.10566000000E+00  0.10566000000E+00 0. -1.
     999900   -1    0    0    0    0 -0.00000000000E+00 -0.00000000000E+00 -0.74505805969E-08  0.93827000000E+00  0.93827000000E+00 0.  1.
     999902    2    1    2    0    0  0.13612355622E-01 -0.15288893361E-02 -0.38808690258E-02  0.10296929051E+01  0.10295944754E+01 0.  0.
     999903    2    3    3    0    0  0.38952690210E-01  0.33936710115E-01  0.12123687816E+00  0.13977471108E+00  0.46578716849E-01 0.  0.
         14    1    1    2    0    0 -0.13612355622E-01  0.15288893361E-02  0.38808690258E-02  0.14237094949E-01  0.00000000000E+00 0. -1.
     999901    1    3    3    0    0 -0.25340334588E-01 -0.35465599451E-01 -0.12511774719E+00  0.88991819397E+00  0.88000000000E+00 0.  1.
        -11    1    4    4    0    0  0.36438994261E-01  0.58907909758E-02  0.43271617755E-01  0.56878781151E-01  0.51100000000E-03 0.  1.
         11    1    4    4    0    0  0.25136959491E-02  0.28045919139E-01  0.77965260405E-01  0.82895929928E-01  0.51100000000E-03 0. -1.
</event>
<event>
 8    1  0.2190295E+004  0.1043930E+01  0.7957747E-01            NaN
         13   -1    0    0    0    0  0.00000000000E+00  0.00000000000E+00  0.74505805969E-08  0.10566000000E+00  0.10566000000E+00 0.  1.
     999900   -1    0    0    0    0 -0.00000000000E+00 -0.00000000000E+00 -0.74505805969E-08  0.93827000000E+00  0.93827000000E+00 0. -1.
     999902    2    1    2    0    0  0.91403526842E-02  0.13161981790E-02 -0.10409052015E-01  0.10300150157E+01  0.10299210192E+01 0.  0.
     999903    2    3    3    0    0 -0.18928394192E-01 -0.12843950382E+00 -0.25836206693E-01  0.13992378785E+00  0.45344973079E-01 0.  0.
         14    1    1    2    0    0 -0.91403526842E-02 -0.13161981790E-02  0.10409052015E-01  0.13914984322E-01  0.00000000000E+00 0.  1.
     999901    1    3    3    0    0  0.28068746876E-01  0.12975570199E+00  0.15427154678E-01  0.89009122783E+00  0.88000000000E+00 0.  1.
        -11    1    4    4    0    0 -0.12685798105E-01 -0.88565775415E-01 -0.38811931948E-01  0.97526679585E-01  0.51100000000E-03 0.  1.
         11    1    4    4    0    0 -0.62425960871E-02 -0.39873728401E-01  0.12975725255E-01  0.42397108267E-01  0.51100000000E-03 0. -1.
</event>
<event>
 8    1  0.2190295E+004  0.1043930E+01  0.7957747E-01            NaN
         13   -1    0    0    0    0  0.00000000000E+00  0.00000000000E+00  0.74505805969E-08  0.10566000000E+00  0.10566000000E+00 0. -1.
     999900   -1    0    0    0    0 -0.00000000000E+00 -0.00000000000E+00 -0.74505805969E-08  0.93827000000E+00  0.93827000000E+00 0.  1.
     999902    2    1    2    0    0 -0.57253459844E-02  0.12779242807E-01 -0.13441583472E-02  0.10298624702E+01  0.10297663872E+01 0.  0.
     999903    2    3    3    0    0  0.98399110276E-01  0.74807160081E-01  0.46511153566E-01  0.14026733992E+00  0.47256143944E-01 0.  0.
         14    1    1    2    0    0  0.57253459844E-02 -0.12779242807E-01  0.13441583472E-02  0.14067529812E-01  0.00000000000E+00 0.  1.
     999901    1    3    3    0    0 -0.10412445626E+00 -0.62027917274E-01 -0.47855311914E-01  0.88959513026E+00  0.88000000000E+00 0.  1.
        -11    1    4    4    0    0  0.47639459999E-01  0.79723981436E-02  0.14371888172E-01  0.50397317109E-01  0.51100000000E-03 0. -1.
         11    1    4    4    0    0  0.50759650277E-01  0.66834761937E-01  0.32139265394E-01  0.89870022813E-01  0.51100000000E-03 0.  1.
</event>
<event>
 8    1  0.2190295E+004  0.1043930E+01  0.7957747E-01            NaN
         13   -1    0    0    0    0  0.00000000000E+00  0.00000000000E+00  0.74505805969E-08  0.10566000000E+00  0.10566000000E+00 0. -1.
     999900   -1    0    0    0    0 -0.00000000000E+00 -0.00000000000E+00 -0.74505805969E-08  0.93827000000E+00  0.93827000000E+00 0.  1.
     999902    2    1    2    0    0 -0.83243907735E-02  0.78645851621E-03  0.12563415518E-01  0.10288384988E+01  0.10287278081E+01 0.  0.
     999903    2    3    3    0    0  0.12775882124E+00 -0.24445266537E-01  0.85195824378E-02  0.13801212227E+00  0.45330730736E-01 0.  0.
         14    1    1    2    0    0  0.83243907735E-02 -0.78645851621E-03 -0.12563415518E-01  0.15091501192E-01  0.00000000000E+00 0.  1.
     999901    1    3    3    0    0 -0.13608321201E+00  0.25231725054E-01  0.40438330805E-02  0.89082637653E+00  0.88000000000E+00 0. -1.
        -11    1    4    4    0    0  0.10430555419E+00 -0.36627870941E-01  0.12595566257E-01  0.11126616276E+00  0.51100000000E-03 0.  1.
         11    1    4    4    0    0  0.23453267053E-01  0.12182604404E-01 -0.40759838192E-02  0.26745959520E-01  0.51100000000E-03 0. -1.
</event>
<event>
 8    1  0.2190295E+004  0.1043930E+01  0.7957747E-01            NaN
         13   -1    0    0    0    0  0.00000000000E+00  0.00000000000E+00  0.74505805969E-08  0.10566000000E+00  0.10566000000E+00 0. -1.
     999900   -1    0    0    0    0 -0.00000000000E+00 -0.00000000000E+00 -0.74505805969E-08  0.93827000000E+00  0.93827000000E+00 0. -1.
     999902    2    1    2    0    0  0.13398623786E-02 -0.55778387763E-02  0.12700816967E-01  0.10299937786E+01  0.10298994930E+01 0.  0.
     999903    2    3    3    0    0 -0.12334668984E+00 -0.90989493913E-03  0.49099856430E-01  0.14044703100E+00  0.45818542224E-01 0.  0.
         14    1    1    2    0    0 -0.13398623786E-02  0.55778387763E-02 -0.12700816967E-01  0.13936221448E-01  0.00000000000E+00 0.  1.
     999901    1    3    3    0    0  0.12468655222E+00 -0.46679438371E-02 -0.36399039463E-01  0.88954674755E+00  0.88000000000E+00 0. -1.
        -11    1    4    4    0    0 -0.30672832941E-01 -0.18748555434E-01  0.22425815303E-01  0.42373450703E-01  0.51100000000E-03 0.  1.
         11    1    4    4    0    0 -0.92673856902E-01  0.17838660495E-01  0.26674041127E-01  0.98073580298E-01  0.51100000000E-03 0. -1.
</event>
<event>
 8    1  0.2190295E+004  0.1043930E+01  0.7957747E-01            NaN
         13   -1    0    0    0    0  0.00000000000E+00  0.00000000000E+00  0.74505805969E-08  0.10566000000E+00  0.10566000000E+00 0.  1.
     999900   -1    0    0    0    0 -0.00000000000E+00 -0.00000000000E+00 -0.74505805969E-08  0.93827000000E+00  0.93827000000E+00 0.  1.
     999902    2    1    2    0    0 -0.55517115504E-02 -0.10755353107E-01 -0.36975590038E-02  0.10312741293E+01  0.10311964695E+01 0.  0.
     999903    2    3    3    0    0  0.12514808756E+00 -0.70073347535E-02  0.43974314680E-01  0.14033693020E+00  0.45272144471E-01 0.  0.
         14    1    1    2    0    0  0.55517115504E-02  0.10755353107E-01  0.36975590038E-02  0.12655870740E-01  0.00000000000E+00 0.  1.
     999901    1    3    3    0    0 -0.13069979911E+00 -0.37480183534E-02 -0.47671873684E-01  0.89093719906E+00  0.88000000000E+00 0. -1.
        -11    1    4    4    0    0  0.61912992416E-01  0.17324552582E-01  0.30887911261E-01  0.71327995451E-01  0.51100000000E-03 0. -1.
         11    1    4    4    0    0  0.63235095148E-01 -0.24331887335E-01  0.13086403419E-01  0.69008934748E-01  0.51100000000E-03 0.  1.
</event>
<event>
 8    1  0.2190295E+004  0.1043930E+01  0.7957747E-01            NaN
         13   -1    0    0    0    0  0.00000000000E+00  0.00000000000E+00  0.74505805969E-08  0.10566000000E+00  0.10566000000E+00 0. -1.
     999900   -1    0    0    0    0 -0.00000000000E+00 -0.00000000000E+00 -0.74505805969E-08  0.93827000000E+00  0.93827000000E+00 0.  1.
     999902    2    1    2    0    0  0.30973350872E-02 -0.12365981871E-01  0.19215577523E-02  0.10310380112E+01  0.10309574080E+01 0.  0.
     999903    2    3    3    0    0 -0.31420111265E-01 -0.12259899601E+00  0.40175978998E-01  0.14266524466E+00  0.52168242547E-01 0.  0.
         14    1    1    2    0    0 -0.30973350872E-02  0.12365981871E-01 -0.19215577523E-02  0.12891988848E-01  0.00000000000E+00 0.  1.
     999901    1    3    3    0    0  0.34517446352E-01  0.11023301414E+00 -0.38254421246E-01  0.88837276650E+00  0.88000000000E+00 0. -1.
        -11    1    4    4    0    0 -0.44200270419E-01 -0.10745946102E+00  0.28416804234E-01  0.11962013021E+00  0.51100000000E-03 0. -1.
         11    1    4    4    0    0  0.12780159155E-01 -0.15139534986E-01  0.11759174764E-01  0.23045114444E-01  0.51100000000E-03 0.  1.
</event>
<event>
 8    1  0.2190295E+004  0.1043930E+01  0.7957747E-01            NaN
         13   -1    0    0    0    0  0.00000000000E+00  0.00000000000E+00  0.74505805969E-08  0.10566000000E+00  0.10566000000E+00 0. -1.
     999900   -1    0    0    0    0 -0.00000000000E+00 -0.00000000000E+00 -0.74505805969E-08  0.93827000000E+00  0.93827000000E+00 0.  1.
     999902    2    1    2    0    0  0.11318421549E-01 -0.35728287318E-02  0.50274161103E-02  0.10310402101E+01  0.10309596346E+01 0.  0.
     999903    2    3    3    0    0 -0.95483400842E-01  0.48110790369E-01  0.80243771913E-01  0.13989750213E+00  0.41237363941E-01 0.  0.
         14    1    1    2    0    0 -0.11318421549E-01  0.35728287318E-02 -0.50274161103E-02  0.12889789923E-01  0.00000000000E+00 0. -1.
     999901    1    3    3    0    0  0.10680182239E+00 -0.51683619101E-01 -0.75216355803E-01  0.89114270795E+00  0.88000000000E+00 0.  1.
        -11    1    4    4    0    0 -0.72274217092E-01  0.54473208279E-01  0.64445900359E-01  0.11110548173E+00  0.51100000000E-03 0. -1.
         11    1    4    4    0    0 -0.23209183750E-01 -0.63624179096E-02  0.15797871554E-01  0.28792020399E-01  0.51100000000E-03 0.  1.
</event>
<event>
 8    1  0.2190295E+004  0.1043930E+01  0.7957747E-01            NaN
         13   -1    0    0    0    0  0.00000000000E+00  0.00000000000E+00  0.74505805969E-08  0.10566000000E+00  0.10566000000E+00 0. -1.
     999900   -1    0    0    0    0 -0.00000000000E+00 -0.00000000000E+00 -0.74505805969E-08  0.93827000000E+00  0.93827000000E+00 0. -1.
     999902    2    1    2    0    0 -0.11213635277E-01  0.21040600150E-02  0.83090734946E-02  0.10298157027E+01  0.10297189754E+01 0.  0.
     999903    2    3    3    0    0 -0.10274875295E+00 -0.81005694273E-01  0.27606617570E-01  0.14096346293E+00  0.44602060594E-01 0.  0.
         14    1    1    2    0    0  0.11213635277E-01 -0.21040600150E-02 -0.83090734946E-02  0.14114297255E-01  0.00000000000E+00 0.  1.
     999901    1    3    3    0    0  0.91535117672E-01  0.83109754288E-01 -0.19297544075E-01  0.88885223982E+00  0.88000000000E+00 0. -1.
        -11    1    4    4    0    0 -0.43807673876E-02 -0.23319312626E-01  0.44355170288E-03  0.23736876867E-01  0.51100000000E-03 0.  1.
         11    1    4    4    0    0 -0.98367985561E-01 -0.57686381646E-01  0.27163065867E-01  0.11722658606E+00  0.51100000000E-03 0. -1.
</event>
<event>
 8    1  0.2190295E+004  0.1043930E+01  0.7957747E-01            NaN
         13   -1    0    0    0    0  0.00000000000E+00  0.00000000000E+00  0.74505805969E-08  0.10566000000E+00  0.10566000000E+00 0. -1.
     999900   -1    0    0    0    0 -0.00000000000E+00 -0.00000000000E+00 -0.74505805969E-08  0.93827000000E+00  0.93827000000E+00 0. -1.
     999902    2    1    2    0    0 -0.25327428380E-02 -0.11975160338E-01  0.56123443756E-02  0.10304645754E+01  0.10303765930E+01 0.  0.
     999903    2    3    3    0    0 -0.80040203464E-01 -0.53268380673E-01 -0.92213916182E-01  0.14069914911E+00  0.45264662501E-01 0.  0.
         14    1    1    2    0    0  0.25327428380E-02  0.11975160338E-01 -0.56123443756E-02  0.13465424642E-01  0.00000000000E+00 0. -1.
     999901    1    3    3    0    0  0.77507460626E-01  0.41293220335E-01  0.97826260558E-01  0.88976542625E+00  0.88000000000E+00 0.  1.
        -11    1    4    4    0    0 -0.17492158000E-01 -0.16339276038E-01 -0.82068452335E-03  0.23955838057E-01  0.51100000000E-03 0.  1.
         11    1    4    4    0    0 -0.62548045463E-01 -0.36929104635E-01 -0.91393231659E-01  0.11674331105E+00  0.51100000000E-03 0. -1.
</event>
<event>
 8    1  0.2190295E+004  0.1043930E+01  0.7957747E-01            NaN
         13   -1    0    0    0    0  0.00000000000E+00  0.00000000000E+00  0.74505805969E-08  0.10566000000E+00  0.10566000000E+00 0.  1.
     999900   -1    0    0    0    0 -0.00000000000E+00 -0.00000000000E+00 -0.74505805969E-08  0.93827000000E+00  0.93827000000E+00 0.  1.
     999902    2    1    2    0    0 -0.58950987588E-02 -0.70845318367E-02  0.10378079684E-01  0.10300502551E+01  0.10299567373E+01 0.  0.
     999903    2    3    3    0    0 -0.93491073772E-01  0.63143129272E-01  0.71028781971E-01  0.14084640506E+00  0.45442120346E-01 0.  0.
         14    1    1    2    0    0  0.58950987588E-02  0.70845318367E-02 -0.10378079684E-01  0.13879744906E-01  0.00000000000E+00 0. -1.
     999901    1    3    3    0    0  0.87595975013E-01 -0.70227661109E-01 -0.60650702287E-01  0.88920385003E+00  0.88000000000E+00 0.  1.
        -11    1    4    4    0    0 -0.17073195865E-01  0.29233118422E-01  0.38152827165E-01  0.51009494914E-01  0.51100000000E-03 0. -1.
         11    1    4    4    0    0 -0.76417877907E-01  0.33910010851E-01  0.32875954806E-01  0.89836910149E-01  0.51100000000E-03 0.  1.
</event>
<event>
 8    1  0.2190295E+004  0.1043930E+01  0.7957747E-01            NaN
         13   -1    0    0    0    0  0.00000000000E+00  0.00000000000E+00  0.74505805969E-08  0.10566000000E+00  0.10566000000E+00 0.  1.
     999900   -1    0    0    0    0 -0.00000000000E+00 -0.00000000000E+00 -0.74505805969E-08  0.93827000000E+00  0.93827000000E+00 0.  1.
     999902    2    1    2    0    0 -0.53420917359E-02 -0.11060760888E-01 -0.66687462985E-02  0.10299532138E+01  0.10298583748E+01 0.  0.
     999903    2    3    3    0    0 -0.48749630415E-01  0.36994509139E-01  0.11652741066E+00  0.13901504732E+00  0.44737297329E-01 0.  0.
         14    1    1    2    0    0  0.53420917359E-02  0.11060760888E-01  0.66687462985E-02  0.13976786209E-01  0.00000000000E+00 0.  1.
     999901    1    3    3    0    0  0.43407538679E-01 -0.48055270027E-01 -0.12319615696E+00  0.89093816647E+00  0.88000000000E+00 0.  1.
        -11    1    4    4    0    0 -0.11596565747E-01  0.19521931835E-01  0.82861997286E-01  0.85918320951E-01  0.51100000000E-03 0.  1.
         11    1    4    4    0    0 -0.37153064668E-01  0.17472577304E-01  0.33665413377E-01  0.53096726365E-01  0.51100000000E-03 0. -1.
</event>
<event>
 8    1  0.2190295E+004  0.1043930E+01  0.7957747E-01            NaN
         13   -1    0    0    0    0  0.00000000000E+00  0.00000000000E+00  0.74505805969E-08  0.10566000000E+00  0.10566000000E+00 0. -1.
     999900   -1    0    0    0    0 -0.00000000000E+00 -0.00000000000E+00 -0.74505805969E-08  0.93827000000E+00  0.93827000000E+00 0. -1.
     999902    2    1    2    0    0  0.19941752227E-02  0.12742150475E-01  0.35025637239E-02  0.10305656038E+01  0.10304789453E+01 0.  0.
     999903    2    3    3    0    0  0.79974341648E-01 -0.54555943574E-01  0.90713803977E-01  0.14027590922E+00  0.45564132549E-01 0.  0.
         14    1    1    2    0    0 -0.19941752227E-02 -0.12742150475E-01 -0.35025637239E-02  0.13364396215E-01  0.00000000000E+00 0.  1.
     999901    1    3    3    0    0 -0.77980166425E-01  0.67298094049E-01 -0.87211240253E-01  0.89028969456E+00  0.88000000000E+00 0. -1.
        -11    1    4    4    0    0 -0.13202665293E-02 -0.17544097646E-01  0.16865724632E-01  0.24377289724E-01  0.51100000000E-03 0. -1.
         11    1    4    4    0    0  0.81294608177E-01 -0.37011845927E-01  0.73848079345E-01  0.11589861950E+00  0.51100000000E-03 0.  1.
</event>
<event>
 8    1  0.2190295E+004  0.1043930E+01  0.7957747E-01            NaN
         13   -1    0    0    0    0  0.00000000000E+00  0.00000000000E+00  0.74505805969E-08  0.10566000000E+00  0.10566000000E+00 0. -1.
     999900   -1    0    0    0    0 -0.00000000000E+00 -0.00000000000E+00 -0.74505805969E-08  0.93827000000E+00  0.93827000000E+00 0. -1.
     999902    2    1    2    0    0 -0.40846637371E-02 -0.25581591279E-02  0.14345599293E-01  0.10287964322E+01  0.10286851190E+01 0.  0.
     999903    2    3    3    0    0 -0.87107622444E-01  0.45664005345E-02 -0.97635139193E-01  0.13779516573E+00  0.42968562823E-01 0.  0.
         14    1    1    2    0    0  0.40846637371E-02  0.25581591279E-02 -0.14345599293E-01  0.15133567822E-01  0.00000000000E+00 0.  1.
     999901    1    3    3    0    0  0.83022958707E-01 -0.71245596623E-02  0.11198073849E+00  0.89100126645E+00  0.88000000000E+00 0.  1.
        -11    1    4    4    0    0 -0.18253229851E-01  0.19379524428E-01 -0.23151723455E-01  0.35284696214E-01  0.51100000000E-03 0.  1.
         11    1    4    4    0    0 -0.68854392593E-01 -0.14813123893E-01 -0.74483415738E-01  0.10251046951E+00  0.51100000000E-03 0. -1.
</event>
<event>
 8    1  0.2190295E+004  0.1043930E+01  0.7957747E-01            NaN
         13   -1    0    0    0    0  0.00000000000E+00  0.00000000000E+00  0.74505805969E-08  0.10566000000E+00  0.10566000000E+00 0. -1.
     999900   -1    0    0    0    0 -0.00000000000E+00 -0.00000000000E+00 -0.74505805969E-08  0.93827000000E+00  0.93827000000E+00 0. -1.
     999902    2    1    2    0    0  0.10390391108E-01  0.85098359828E-02  0.26548726386E-02  0.10302396426E+01  0.10301486764E+01 0.  0.
     999903    2    3    3    0    0 -0.60170602888E-01  0.77705354335E-01 -0.89330461904E-01  0.13994296434E+00  0.44107576435E-01 0.  0.
         14    1    1    2    0    0 -0.10390391108E-01 -0.85098359828E-02 -0.26548726386E-02  0.13690357357E-01  0.00000000000E+00 0. -1.
     999901    1    3    3    0    0  0.70560993996E-01 -0.69195518352E-01  0.91985334543E-01  0.89029667831E+00  0.88000000000E+00 0.  1.
        -11    1    4    4    0    0 -0.21403155731E-01  0.36015783857E-01 -0.11381170569E-01  0.43416862238E-01  0.51100000000E-03 0. -1.
         11    1    4    4    0    0 -0.38767447157E-01  0.41689570478E-01 -0.77949291335E-01  0.96526102098E-01  0.51100000000E-03 0.  1.
</event>
<event>
 8    1  0.2190295E+004  0.1043930E+01  0.7957747E-01            NaN
         13   -1    0    0    0    0  0.00000000000E+00  0.00000000000E+00  0.74505805969E-08  0.10566000000E+00  0.10566000000E+00 0. -1.
     999900   -1    0    0    0    0 -0.00000000000E+00 -0.00000000000E+00 -0.74505805969E-08  0.93827000000E+00  0.93827000000E+00 0. -1.
     999902    2    1    2    0    0  0.11916354424E-01 -0.10881073101E-01 -0.11443775986E-01  0.10241472483E+01  0.10239561656E+01 0.  0.
     999903    2    3    3    0    0 -0.91775767946E-01 -0.35712230209E-01  0.72811376951E-01  0.13371613174E+00  0.53668913771E-01 0.  0.
         14    1    1    2    0    0 -0.11916354424E-01  0.10881073101E-01  0.11443775986E-01  0.19782751664E-01  0.00000000000E+00 0. -1.
     999901    1    3    3    0    0  0.10369212237E+00  0.24831157108E-01 -0.84255152937E-01  0.89043111660E+00  0.88000000000E+00 0.  1.
        -11    1    4    4    0    0 -0.68651241952E-01 -0.49545432462E-01  0.49437251390E-01  0.98041041638E-01  0.51100000000E-03 0. -1.
         11    1    4    4    0    0 -0.23124525994E-01  0.13833202254E-01  0.23374125561E-01  0.35675090102E-01  0.51100000000E-03 0.  1.
</event>
<event>
 8    1  0.2190295E+004  0.1043930E+01  0.7957747E-01            NaN
         13   -1    0    0    0    0  0.00000000000E+00  0.00000000000E+00  0.74505805969E-08  0.10566000000E+00  0.10566000000E+00 0.  1.
     999900   -1    0    0    0    0 -0.00000000000E+00 -0.00000000000E+00 -0.74505805969E-08  0.93827000000E+00  0.93827000000E+00 0. -1.
     999902    2    1    2    0    0  0.93280042794E-02 -0.41457866038E-02  0.51509871802E-02  0.10324961958E+01  0.10324328852E+01 0.  0.
     999903    2    3    3    0    0 -0.90111958599E-01  0.97362407596E-01  0.70933785178E-02  0.14109505565E+00  0.47517314897E-01 0.  0.
         14    1    1    2    0    0 -0.93280042794E-02  0.41457866038E-02 -0.51509871802E-02  0.11433804237E-01  0.00000000000E+00 0.  1.
     999901    1    3    3    0    0  0.99439962879E-01 -0.10150819420E+00 -0.19423913376E-02  0.89140114011E+00  0.88000000000E+00 0.  1.
        -11    1    4    4    0    0 -0.32232176238E-01  0.67652549108E-01  0.11799596900E-01  0.75863510292E-01  0.51100000000E-03 0. -1.
         11    1    4    4    0    0 -0.57879782361E-01  0.29709858489E-01 -0.47062183821E-02  0.65231545360E-01  0.51100000000E-03 0.  1.
</event>
<event>
 8    1  0.2190295E+004  0.1043930E+01  0.7957747E-01            NaN
         13   -1    0    0    0    0  0.00000000000E+00  0.00000000000E+00  0.74505805969E-08  0.10566000000E+00  0.10566000000E+00 0.  1.
     999900   -1    0    0    0    0 -0.00000000000E+00 -0.00000000000E+00 -0.74505805969E-08  0.93827000000E+00  0.93827000000E+00 0.  1.
     999902    2    1    2    0    0  0.14513901186E-01 -0.15975275724E-02 -0.79635750076E-03  0.10293067443E+01  0.10292028635E+01 0.  0.
     999903    2    3    3    0    0  0.30638238596E-01 -0.12606225313E+00 -0.25252254521E-01  0.14006574600E+00  0.46371796547E-01 0.  0.
         14    1    1    2    0    0 -0.14513901186E-01  0.15975275724E-02  0.79635750076E-03  0.14623255700E-01  0.00000000000E+00 0. -1.
     999901    1    3    3    0    0 -0.16124337410E-01  0.12446472556E+00  0.24455897020E-01  0.88924099830E+00  0.88000000000E+00 0. -1.
        -11    1    4    4    0    0  0.53506299263E-02 -0.80859168004E-01  0.29430077452E-02  0.81091039619E-01  0.51100000000E-03 0. -1.
         11    1    4    4    0    0  0.25287608670E-01 -0.45203085126E-01 -0.28195262266E-01  0.58974706378E-01  0.51100000000E-03 0.  1.
</event>
<event>
 8    1  0.2190295E+004  0.1043930E+01  0.7957747E-01            NaN
         13   -1    0    0    0    0  0.00000000000E+00  0.00000000000E+00  0.74505805969E-08  0.10566000000E+00  0.10566000000E+00 0. -1.
     999900   -1    0    0    0    0 -0.00000000000E+00 -0.00000000000E+00 -0.74505805969E-08  0.93827000000E+00  0.93827000000E+00 0.  1.
     999902    2    1    2    0    0 -0.21891149436E-01 -0.18038503145E-01 -0.89728567362E-03  0.10155501631E+01  0.10151535444E+01 0.  0.
     999903    2    3    3    0    0 -0.32986985240E-01 -0.13343127414E-01 -0.11471590652E+00  0.12813828436E+00  0.44648633422E-01 0.  0.
         14    1    1    2    0    0  0.21891149436E-01  0.18038503145E-01  0.89728567362E-03  0.28379836873E-01  0.00000000000E+00 0.  1.
     999901    1    3    3    0    0  0.11095835805E-01 -0.46953757309E-02  0.11381862084E+00  0.88741187877E+00  0.88000000000E+00 0. -1.
        -11    1    4    4    0    0  0.51361011727E-02 -0.71298342310E-02 -0.20550367526E-02  0.90387149790E-02  0.51100000000E-03 0. -1.
         11    1    4    4    0    0 -0.38123086413E-01 -0.62132931832E-02 -0.11266086976E+00  0.11909956938E+00  0.51100000000E-03 0.  1.
</event>
<event>
 8    1  0.2190295E+004  0.1043930E+01  0.7957747E-01            NaN
         13   -1    0    0    0    0  0.00000000000E+00  0.00000000000E+00  0.74505805969E-08  0.10566000000E+00  0.10566000000E+00 0. -1.
     999900   -1    0    0    0    0 -0.00000000000E+00 -0.00000000000E+00 -0.74505805969E-08  0.93827000000E+00  0.93827000000E+00 0. -1.
     999902    2    1    2    0    0 -0.30033317595E-03  0.36996743923E-02  0.13186006395E-01  0.10302315127E+01  0.10301404376E+01 0.  0.
     999903    2    3    3    0    0 -0.98327727568E-01  0.89898417811E-01  0.29173299109E-02  0.14054334306E+00  0.44652580340E-01 0.  0.
         14    1    1    2    0    0  0.30033317595E-03 -0.36996743923E-02 -0.13186006395E-01  0.13698487335E-01  0.00000000000E+00 0.  1.
     999901    1    3    3    0    0  0.98027394392E-01 -0.86198743419E-01  0.10268676484E-01  0.88968816960E+00  0.88000000000E+00 0.  1.
        -11    1    4    4    0    0 -0.51486660917E-01  0.75321353046E-01  0.56037650289E-02  0.91410315504E-01  0.51100000000E-03 0. -1.
         11    1    4    4    0    0 -0.46841066651E-01  0.14577064765E-01 -0.26864351179E-02  0.49133027555E-01  0.51100000000E-03 0.  1.
</event>
<event>
 8    1  0.2190295E+004  0.1043930E+01  0.7957747E-01            NaN
         13   -1    0    0    0    0  0.00000000000E+00  0.00000000000E+00  0.74505805969E-08  0.10566000000E+00  0.10566000000E+00 0.  1.
     999900   -1    0    0    0    0 -0.00000000000E+00 -0.00000000000E+00 -0.74505805969E-08  0.93827000000E+00  0.93827000000E+00 0.  1.
     999902    2    1    2    0    0 -0.35932908208E-02 -0.11861190418E-01  0.63955869360E-02  0.10299835628E+01  0.10298891380E+01 0.  0.
     999903    2    3    3    0    0 -0.56584412457E-01 -0.92489921147E-01 -0.70550074815E-01  0.14137246340E+00  0.57032263720E-01 0.  0.
         14    1    1    2    0    0  0.35932908208E-02  0.11861190418E-01 -0.63955869360E-02  0.13946437155E-01  0.00000000000E+00 0. -1.
     999901    1    3    3    0    0  0.52991121636E-01  0.80628730729E-01  0.76945661751E-01  0.88861109944E+00  0.88000000000E+00 0. -1.
        -11    1    4    4    0    0 -0.21286834302E-01 -0.82643690351E-01 -0.43270560813E-01  0.95685481781E-01  0.51100000000E-03 0. -1.
         11    1    4    4    0    0 -0.35297578155E-01 -0.98462307958E-02 -0.27279514002E-01  0.45686981621E-01  0.51100000000E-03 0.  1.
</event>
<event>
 8    1  0.2247813E+004  0.1043930E+01  0.7957747E-01            NaN
         13   -1    0    0    0    0  0.00000000000E+00  0.00000000000E+00  0.74505805969E-08  0.10566000000E+00  0.10566000000E+00 0. -1.
     999900   -1    0    0    0    0 -0.00000000000E+00 -0.00000000000E+00 -0.74505805969E-08  0.93827000000E+00  0.93827000000E+00 0. -1.
     999902    2    1    2    0    0 -0.13486340286E-01  0.45949086446E-03  0.21263295928E-02  0.10302693344E+01  0.10301787649E+01 0.  0.
     999903    2    3    3    0    0  0.72274530557E-01  0.11733669468E-01  0.10963634444E+00  0.13951659806E+00  0.45645003495E-01 0.  0.
         14    1    1    2    0    0  0.13486340286E-01 -0.45949086446E-03 -0.21263295928E-02  0.13660665566E-01  0.00000000000E+00 0.  1.
     999901    1    3    3    0    0 -0.85760870843E-01 -0.11274178603E-01 -0.10751001485E+00  0.89075273638E+00  0.88000000000E+00 0.  1.
        -11    1    4    4    0    0  0.53562718309E-01  0.24368861739E-01  0.55637099752E-01  0.80984901092E-01  0.51100000000E-03 0. -1.
         11    1    4    4    0    0  0.18711812248E-01 -0.12635192271E-01  0.53999244691E-01  0.58531696964E-01  0.51100000000E-03 0.  1.
</event>
<event>
 8    1  0.2190295E+004  0.1043930E+01  0.7957747E-01            NaN
         13   -1    0    0    0    0  0.00000000000E+00  0.00000000000E+00  0.74505805969E-08  0.10566000000E+00  0.10566000000E+00 0. -1.
     999900   -1    0    0    0    0 -0.00000000000E+00 -0.00000000000E+00 -0.74505805969E-08  0.93827000000E+00  0.93827000000E+00 0. -1.
     999902    2    1    2    0    0 -0.79677803618E-02  0.48901128461E-02 -0.10698380443E-01  0.10297224643E+01  0.10296244458E+01 0.  0.
     999903    2    3    3    0    0  0.39248255769E-01 -0.84865644441E-01  0.91194928858E-01  0.13805677775E+00  0.44727571421E-01 0.  0.
         14    1    1    2    0    0  0.79677803618E-02 -0.48901128461E-02  0.10698380443E-01  0.14207535734E-01  0.00000000000E+00 0. -1.
     999901    1    3    3    0    0 -0.47216036131E-01  0.89755757288E-01 -0.10189330930E+00  0.89166568652E+00  0.88000000000E+00 0. -1.
        -11    1    4    4    0    0  0.21731515903E-01 -0.57981829625E-02  0.16688970511E-01  0.28011793352E-01  0.51100000000E-03 0. -1.
         11    1    4    4    0    0  0.17516739866E-01 -0.79067461479E-01  0.74505958347E-01  0.11004498440E+00  0.51100000000E-03 0.  1.
</event>
<event>
 7    1  0.6513057E+004  0.1043930E+01  0.7957747E-01            NaN
         13   -1    0    0    0    0  0.00000000000E+00  0.00000000000E+00  0.74505805969E-08  0.10566000000E+00  0.10566000000E+00 0.  1.
     999900   -1    0    0    0    0 -0.00000000000E+00 -0.00000000000E+00 -0.74505805969E-08  0.93827000000E+00  0.93827000000E+00 0.  1.
     999903    2    1    2    0    0 -0.22484457699E-01  0.19985853075E-01 -0.99015719986E-01  0.11283118328E+00  0.44964185248E-01 0.  0.
         14    1    1    2    0    0 -0.31838078839E-01  0.16508751375E-01  0.28586352336E-01  0.45862639218E-01  0.00000000000E+00 0. -1.
     999901    1    1    2    0    0  0.54322536538E-01 -0.36494604450E-01  0.70429367650E-01  0.88523617750E+00  0.88000000000E+00 0. -1.
        -11    1    3    3    0    0  0.73041136543E-02  0.19301726952E-01 -0.61784340146E-01  0.65141941542E-01  0.51100000000E-03 0.  1.
         11    1    3    3    0    0 -0.29788571353E-01  0.68412612325E-03 -0.37231379840E-01  0.47689241738E-01  0.51100000000E-03 0. -1.
</event>
<event>
 8    1  0.2190295E+004  0.1043930E+01  0.7957747E-01            NaN
         13   -1    0    0    0    0  0.00000000000E+00  0.00000000000E+00  0.74505805969E-08  0.10566000000E+00  0.10566000000E+00 0.  1.
     999900   -1    0    0    0    0 -0.00000000000E+00 -0.00000000000E+00 -0.74505805969E-08  0.93827000000E+00  0.93827000000E+00 0.  1.
     999902    2    1    2    0    0  0.84424839354E-02 -0.43479787325E-02 -0.34392964828E-02  0.10338300389E+01  0.10337807021E+01 0.  0.
     999903    2    3    3    0    0 -0.13460506664E+00  0.80641334814E-02  0.18470133483E-02  0.14217729969E+00  0.45026868369E-01 0.  0.
         14    1    1    2    0    0 -0.84424839354E-02  0.43479787325E-02  0.34392964828E-02  0.10099961107E-01  0.00000000000E+00 0. -1.
     999901    1    3    3    0    0  0.14304755058E+00 -0.12412112214E-01 -0.52863098311E-02  0.89165273920E+00  0.88000000000E+00 0.  1.
        -11    1    4    4    0    0 -0.40727910871E-01  0.10364158115E-01 -0.18776584205E-01  0.46032594243E-01  0.51100000000E-03 0. -1.
         11    1    4    4    0    0 -0.93877155769E-01 -0.23000246334E-02  0.20623597553E-01  0.96144705448E-01  0.51100000000E-03 0.  1.
</event>
<event>
 8    1  0.2190295E+004  0.1043930E+01  0.7957747E-01            NaN
         13   -1    0    0    0    0  0.00000000000E+00  0.00000000000E+00  0.74505805969E-08  0.10566000000E+00  0.10566000000E+00 0. -1.
     999900   -1    0    0    0    0 -0.00000000000E+00 -0.00000000000E+00 -0.74505805969E-08  0.93827000000E+00  0.93827000000E+00 0. -1.
     999902    2    1    2    0    0  0.12772596342E-01 -0.31126739071E-02  0.76156872288E-02  0.10287370198E+01  0.10286248243E+01 0.  0.
     999903    2    3    3    0    0  0.34350410082E-01  0.10569060320E+00  0.71362498693E-01  0.13948598034E+00  0.44869568931E-01 0.  0.
         14    1    1    2    0    0 -0.12772596342E-01  0.31126739071E-02 -0.76156872288E-02  0.15192980226E-01  0.00000000000E+00 0.  1.
     999901    1    3    3    0    0 -0.21577813740E-01 -0.10880327710E+00 -0.63746811464E-01  0.88925103943E+00  0.88000000000E+00 0. -1.
        -11    1    4    4    0    0  0.24897917388E-01  0.44267814360E-01  0.92626150178E-02  0.51629476430E-01  0.51100000000E-03 0.  1.
         11    1    4    4    0    0  0.94524926944E-02  0.61422788837E-01  0.62099883675E-01  0.87856503915E-01  0.51100000000E-03 0. -1.
</event>
<event>
 8    1  0.2190295E+004  0.1043930E+01  0.7957747E-01            NaN
         13   -1    0    0    0    0  0.00000000000E+00  0.00000000000E+00  0.74505805969E-08  0.10566000000E+00  0.10566000000E+00 0.  1.
     999900   -1    0    0    0    0 -0.00000000000E+00 -0.00000000000E+00 -0.74505805969E-08  0.93827000000E+00  0.93827000000E+00 0.  1.
     999902    2    1    2    0    0  0.59910870668E-02  0.14977881154E-02  0.12951324907E-01  0.10295817140E+01  0.10294817301E+01 0.  0.
     999903    2    3    3    0    0 -0.98127664808E-01 -0.14307441593E-01  0.87381560102E-01  0.14018282731E+00  0.46711310646E-01 0.  0.
         14    1    1    2    0    0 -0.59910870668E-02 -0.14977881154E-02 -0.12951324907E-01  0.14348285972E-01  0.00000000000E+00 0. -1.
     999901    1    3    3    0    0  0.10411875187E+00  0.15805229708E-01 -0.74430235195E-01  0.88939888671E+00  0.88000000000E+00 0.  1.
        -11    1    4    4    0    0 -0.21371131689E-01 -0.17740028749E-01  0.43748516063E-01  0.51823041868E-01  0.51100000000E-03 0. -1.
         11    1    4    4    0    0 -0.76756533119E-01  0.34325871560E-02  0.43633044038E-01  0.88359785446E-01  0.51100000000E-03 0.  1.
</event>
<event>
 8    1  0.2190295E+004  0.1043930E+01  0.7957747E-01            NaN
         13   -1    0    0    0    0  0.00000000000E+00  0.00000000000E+00  0.74505805969E-08  0.10566000000E+00  0.10566000000E+00 0.  1.
     999900   -1    0    0    0    0 -0.00000000000E+00 -0.00000000000E+00 -0.74505805969E-08  0.93827000000E+00  0.93827000000E+00 0. -1.
     999902    2    1    2    0    0  0.22336916818E-02 -0.38842602221E-02 -0.13203364230E-01  0.10299870562E+01  0.10298926790E+01 0.  0.
     999903    2    3    3    0    0  0.46864270612E-01 -0.11059878852E+00 -0.54073066474E-01  0.14147694834E+00  0.51608899553E-01 0.  0.
         14    1    1    2    0    0 -0.22336916818E-02  0.38842602221E-02  0.13203364230E-01  0.13942943842E-01  0.00000000000E+00 0.  1.
     999901    1    3    3    0    0 -0.44630578930E-01  0.10671452830E+00  0.40869702244E-01  0.88851010781E+00  0.88000000000E+00 0.  1.
        -11    1    4    4    0    0  0.34149484339E-01 -0.24163629042E-01 -0.27852647076E-01  0.50260315550E-01  0.51100000000E-03 0. -1.
         11    1    4    4    0    0  0.12714786273E-01 -0.86435159478E-01 -0.26220419398E-01  0.91216632794E-01  0.51100000000E-03 0.  1.
</event>
<event>
 8    1  0.2190295E+004  0.1043930E+01  0.7957747E-01            NaN
         13   -1    0    0    0    0  0.00000000000E+00  0.00000000000E+00  0.74505805969E-08  0.10566000000E+00  0.10566000000E+00 0.  1.
     999900   -1    0    0    0    0 -0.00000000000E+00 -0.00000000000E+00 -0.74505805969E-08  0.93827000000E+00  0.93827000000E+00 0.  1.
     999902    2    1    2    0    0 -0.12973322817E-01 -0.76102132669E-02 -0.17076412978E-01  0.10211742023E+01  0.10209206262E+01 0.  0.
     999903    2    3    3    0    0  0.10300391317E+00  0.63292138559E-01 -0.18663340786E-01  0.13073589383E+00  0.46128653945E-01 0.  0.
         14    1    1    2    0    0  0.12973322817E-01  0.76102132669E-02  0.17076412978E-01  0.22755797746E-01  0.00000000000E+00 0.  1.
     999901    1    3    3    0    0 -0.11597723599E+00 -0.70902351826E-01  0.15869278081E-02  0.89043830842E+00  0.88000000000E+00 0.  1.
        -11    1    4    4    0    0  0.24004345067E-01  0.27259426685E-01  0.12599772589E-01  0.38448671181E-01  0.51100000000E-03 0. -1.
         11    1    4    4    0    0  0.78999568107E-01  0.36032711874E-01 -0.31263113375E-01  0.92287222653E-01  0.51100000000E-03 0.  1.
</event>
<event>
 8    1  0.2190295E+004  0.1043930E+01  0.7957747E-01            NaN
         13   -1    0    0    0    0  0.00000000000E+00  0.00000000000E+00  0.74505805969E-08  0.10566000000E+00  0.10566000000E+00 0.  1.
     999900   -1    0    0    0    0 -0.00000000000E+00 -0.00000000000E+00 -0.74505805969E-08  0.93827000000E+00  0.93827000000E+00 0.  1.
     999902    2    1    2    0    0 -0.12691574675E-02 -0.82829298385E-02 -0.10441216078E-01  0.10305420696E+01  0.10304551036E+01 0.  0.
     999903    2    3    3    0    0  0.12549060318E+00  0.10279161820E-01 -0.42992068125E-01  0.14067008659E+00  0.45674967816E-01 0.  0.
         14    1    1    2    0    0  0.12691574675E-02  0.82829298385E-02  0.10441216078E-01  0.13387930406E-01  0.00000000000E+00 0.  1.
     999901    1    3    3    0    0 -0.12675976065E+00 -0.18562091658E-01  0.32550852048E-01  0.88987198300E+00  0.88000000000E+00 0.  1.
        -11    1    4    4    0    0  0.47523863349E-01 -0.14923942930E-01 -0.28704761454E-01  0.57493183173E-01  0.51100000000E-03 0.  1.
         11    1    4    4    0    0  0.77966739832E-01  0.25203104750E-01 -0.14287306671E-01  0.83176903417E-01  0.51100000000E-03 0. -1.
</event>
<event>
 8    1  0.2190295E+004  0.1043930E+01  0.7957747E-01            NaN
         13   -1    0    0    0    0  0.00000000000E+00  0.00000000000E+00  0.74505805969E-08  0.10566000000E+00  0.10566000000E+00 0.  1.
     999900   -1    0    0    0    0 -0.00000000000E+00 -0.00000000000E+00 -0.74505805969E-08  0.93827000000E+00  0.93827000000E+00 0.  1.
     999902    2    1    2    0    0 -0.11166644842E-01  0.23871846326E-02 -0.70074665172E-02  0.10305323437E+01  0.10304452505E+01 0.  0.
     999903    2    3    3    0    0  0.41706639761E-01  0.12606276696E+00 -0.54239259210E-02  0.14031116809E+00  0.45017106797E-01 0.  0.
         14    1    1    2    0    0  0.11166644842E-01 -0.23871846326E-02  0.70074665172E-02  0.13397656305E-01  0.00000000000E+00 0.  1.
     999901    1    3    3    0    0 -0.52873284602E-01 -0.12367558233E+00 -0.15835405963E-02  0.89022117560E+00  0.88000000000E+00 0. -1.
        -11    1    4    4    0    0  0.48329888884E-01  0.95095708365E-01  0.54826577814E-02  0.10681429008E+00  0.51100000000E-03 0.  1.
         11    1    4    4    0    0 -0.66232491231E-02  0.30967058599E-01 -0.10906583702E-01  0.33496878008E-01  0.51100000000E-03 0. -1.
</event>
<event>
 8    1  0.2190295E+004  0.1043930E+01  0.7957747E-01            NaN
         13   -1    0    0    0    0  0.00000000000E+00  0.00000000000E+00  0.74505805969E-08  0.10566000000E+00  0.10566000000E+00 0.  1.
     999900   -1    0    0    0    0 -0.00000000000E+00 -0.00000000000E+00 -0.74505805969E-08  0.93827000000E+00  0.93827000000E+00 0. -1.
     999902    2    1    2    0    0  0.99812364868E-02 -0.71618372712E-02 -0.77848332716E-02  0.10293862514E+01  0.10292835051E+01 0.  0.
     999903    2    3    3    0    0  0.58860540658E-01  0.22922165876E-01 -0.11741399430E+00  0.14072839451E+00  0.45038272932E-01 0.  0.
         14    1    1    2    0    0 -0.99812364868E-02  0.71618372712E-02  0.77848332716E-02  0.14543748622E-01  0.00000000000E+00 0.  1.
     999901    1    3    3    0    0 -0.48879304171E-01 -0.30084003147E-01  0.10962916103E+00  0.88865785687E+00  0.88000000000E+00 0.  1.
        -11    1    4    4    0    0  0.19697431526E-01  0.12127208959E-01 -0.87812729288E-02  0.24747320685E-01  0.51100000000E-03 0.  1.
         11    1    4    4    0    0  0.39163109132E-01  0.10794956917E-01 -0.10863272137E+00  0.11598107383E+00  0.51100000000E-03 0. -1.
</event>
<event>
 8    1  0.2190295E+004  0.1043930E+01  0.7957747E-01            NaN
         13   -1    0    0    0    0  0.00000000000E+00  0.00000000000E+00  0.74505805969E-08  0.10566000000E+00  0.10566000000E+00 0. -1.
     999900   -1    0    0    0    0 -0.00000000000E+00 -0.00000000000E+00 -0.74505805969E-08  0.93827000000E+00  0.93827000000E+00 0. -1.
     999902    2    1    2    0    0  0.77910193685E-02  0.72371940003E-02 -0.92519979556E-02  0.10298347375E+01  0.10297382726E+01 0.  0.
     999903    2    3    3    0    0  0.82687685116E-01  0.77100806407E-01 -0.72570461830E-01  0.14163449948E+00  0.44856124392E-01 0.  0.
         14    1    1    2    0    0 -0.77910193685E-02 -0.72371940003E-02  0.92519979556E-02  0.14095262536E-01  0.00000000000E+00 0. -1.
     999901    1    3    3    0    0 -0.74896665748E-01 -0.69863612407E-01  0.63318463874E-01  0.88820023798E+00  0.88000000000E+00 0.  1.
        -11    1    4    4    0    0  0.32775645022E-01  0.32262365218E-01 -0.56104292114E-01  0.72546921579E-01  0.51100000000E-03 0.  1.
         11    1    4    4    0    0  0.49912040094E-01  0.44838441189E-01 -0.16466169716E-01  0.69087577905E-01  0.51100000000E-03 0. -1.
</event>
<event>
 8    1  0.2190295E+004  0.1043930E+01  0.7957747E-01            NaN
         13   -1    0    0    0    0  0.00000000000E+00  0.00000000000E+00  0.74505805969E-08  0.10566000000E+00  0.10566000000E+00 0.  1.
     999900   -1    0    0    0    0 -0.00000000000E+00 -0.00000000000E+00 -0.74505805969E-08  0.93827000000E+00  0.93827000000E+00 0.  1.
     999902    2    1    2    0    0 -0.14447435063E-01  0.74857969926E-03 -0.90607389078E-03  0.10294348380E+01  0.10293327819E+01 0.  0.
     999903    2    3    3    0    0  0.21452450914E-01  0.12578744105E+00 -0.33078633352E-01  0.13928957331E+00  0.44996680695E-01 0.  0.
         14    1    1    2    0    0  0.14447435063E-01 -0.74857969926E-03  0.90607389078E-03  0.14495161999E-01  0.00000000000E+00 0. -1.
     999901    1    3    3    0    0 -0.35899885977E-01 -0.12503886135E+00  0.32172559461E-01  0.89014526469E+00  0.88000000000E+00 0.  1.
        -11    1    4    4    0    0  0.30795680037E-01  0.48605378514E-01 -0.15104807638E-01  0.59491789890E-01  0.51100000000E-03 0. -1.
         11    1    4    4    0    0 -0.93432291236E-02  0.77182062536E-01 -0.17973825714E-01  0.79797783425E-01  0.51100000000E-03 0.  1.
</event>
<event>
 8    1  0.2190295E+004  0.1043930E+01  0.7957747E-01            NaN
         13   -1    0    0    0    0  0.00000000000E+00  0.00000000000E+00  0.74505805969E-08  0.10566000000E+00  0.10566000000E+00 0. -1.
     999900   -1    0    0    0    0 -0.00000000000E+00 -0.00000000000E+00 -0.74505805969E-08  0.93827000000E+00  0.93827000000E+00 0.  1.
     999902    2    1    2    0    0 -0.60812455400E-02 -0.68541215693E-02 -0.10865458972E-01  0.10297166707E+01  0.10296185717E+01 0.  0.
     999903    2    3    3    0    0  0.45659777629E-01 -0.63919332375E-02  0.12204113376E+00  0.13823391181E+00  0.45704528674E-01 0.  0.
         14    1    1    2    0    0  0.60812455400E-02  0.68541215693E-02  0.10865458972E-01  0.14213329254E-01  0.00000000000E+00 0. -1.
     999901    1    3    3    0    0 -0.51741023169E-01 -0.46218833176E-03 -0.13290659273E+00  0.89148275894E+00  0.88000000000E+00 0.  1.
        -11    1    4    4    0    0  0.52448014959E-01 -0.24270247923E-02  0.81606524145E-01  0.97039016002E-01  0.51100000000E-03 0. -1.
         11    1    4    4    0    0 -0.67882373300E-02 -0.39649084453E-02  0.40434609610E-01  0.41194895804E-01  0.51100000000E-03 0.  1.
</event>
<event>
 8    1  0.2190295E+004  0.1043930E+01  0.7957747E-01            NaN
         13   -1    0    0    0    0  0.00000000000E+00  0.00000000000E+00  0.74505805969E-08  0.10566000000E+00  0.10566000000E+00 0. -1.
     999900   -1    0    0    0    0 -0.00000000000E+00 -0.00000000000E+00 -0.74505805969E-08  0.93827000000E+00  0.93827000000E+00 0. -1.
     999902    2    1    2    0    0  0.10404425911E-01 -0.78772559681E-02  0.56321451536E-02  0.10297164748E+01  0.10296183731E+01 0.  0.
     999903    2    3    3    0    0 -0.91712254790E-01 -0.55068560345E-01 -0.76310464760E-01  0.13877908809E+00  0.44639267934E-01 0.  0.
         14    1    1    2    0    0 -0.10404425911E-01  0.78772559681E-02 -0.56321451536E-02  0.14213525219E-01  0.00000000000E+00 0.  1.
     999901    1    3    3    0    0  0.10211668070E+00  0.47191304377E-01  0.81942609914E-01  0.89093738669E+00  0.88000000000E+00 0.  1.
        -11    1    4    4    0    0 -0.76986207956E-01 -0.42726386556E-01 -0.37964033773E-01  0.95885083850E-01  0.51100000000E-03 0.  1.
         11    1    4    4    0    0 -0.14726046834E-01 -0.12342173789E-01 -0.38346430987E-01  0.42894004239E-01  0.51100000000E-03 0. -1.
</event>
<event>
 8    1  0.2190295E+004  0.1043930E+01  0.7957747E-01            NaN
         13   -1    0    0    0    0  0.00000000000E+00  0.00000000000E+00  0.74505805969E-08  0.10566000000E+00  0.10566000000E+00 0.  1.
     999900   -1    0    0    0    0 -0.00000000000E+00 -0.00000000000E+00 -0.74505805969E-08  0.93827000000E+00  0.93827000000E+00 0. -1.
     999902    2    1    2    0    0 -0.11346398503E-01  0.62918877105E-02 -0.59694795697E-02  0.10296484281E+01  0.10295493782E+01 0.  0.
     999903    2    3    3    0    0 -0.78830948547E-01 -0.69681220905E-01 -0.80805255581E-01  0.14064535098E+00  0.46710110561E-01 0.  0.
         14    1    1    2    0    0  0.11346398503E-01 -0.62918877105E-02  0.59694795697E-02  0.14281571912E-01  0.00000000000E+00 0. -1.
     999901    1    3    3    0    0  0.67484550044E-01  0.75973108615E-01  0.74835776011E-01  0.88900307710E+00  0.88000000000E+00 0.  1.
        -11    1    4    4    0    0 -0.75496789708E-01 -0.47123953290E-01 -0.49269313016E-01  0.10172589914E+00  0.51100000000E-03 0.  1.
         11    1    4    4    0    0 -0.33341588388E-02 -0.22557267614E-01 -0.31535942565E-01  0.38919451844E-01  0.51100000000E-03 0. -1.
</event>
<event>
 8    1  0.2190295E+004  0.1043930E+01  0.7957747E-01            NaN
         13   -1    0    0    0    0  0.00000000000E+00  0.00000000000E+00  0.74505805969E-08  0.10566000000E+00  0.10566000000E+00 0.  1.
     999900   -1    0    0    0    0 -0.00000000000E+00 -0.00000000000E+00 -0.74505805969E-08  0.93827000000E+00  0.93827000000E+00 0. -1.
     999902    2    1    2    0    0 -0.14407316421E-01  0.21230152354E-02  0.16321088543E-02  0.10292759310E+01  0.10291716088E+01 0.  0.
     999903    2    3    3    0    0  0.86072981569E-01 -0.35558118911E-01  0.91630801332E-01  0.13820021992E+00  0.45057286390E-01 0.  0.
         14    1    1    2    0    0  0.14407316421E-01 -0.21230152354E-02 -0.16321088543E-02  0.14654069041E-01  0.00000000000E+00 0.  1.
     999901    1    3    3    0    0 -0.10048029799E+00  0.37681134146E-01 -0.89998692477E-01  0.89107571104E+00  0.88000000000E+00 0. -1.
        -11    1    4    4    0    0  0.22895776855E-01  0.72702457552E-02  0.88619246493E-02  0.25609918013E-01  0.51100000000E-03 0.  1.
         11    1    4    4    0    0  0.63177204714E-01 -0.42828364666E-01  0.82768876683E-01  0.11259030191E+00  0.51100000000E-03 0. -1.
</event>
<event>
 8    1  0.2190295E+004  0.1043930E+01  0.7957747E-01            NaN
         13   -1    0    0    0    0  0.00000000000E+00  0.00000000000E+00  0.74505805969E-08  0.10566000000E+00  0.10566000000E+00 0. -1.
     999900   -1    0    0    0    0 -0.00000000000E+00 -0.00000000000E+00 -0.74505805969E-08  0.93827000000E+00  0.93827000000E+00 0.  1.
     999902    2    1    2    0    0 -0.12192252505E-01  0.64915071088E-02 -0.10834005253E-02  0.10300748767E+01  0.10299816926E+01 0.  0.
     999903    2    3    3    0    0  0.70542506491E-01 -0.62004966832E-01 -0.91996572316E-01  0.13889475341E+00  0.44805379969E-01 0.  0.
         14    1    1    2    0    0  0.12192252505E-01 -0.64915071088E-02  0.10834005253E-02  0.13855123326E-01  0.00000000000E+00 0. -1.
     999901    1    3    3    0    0 -0.82734758996E-01  0.68496473940E-01  0.90913171791E-01  0.89118012326E+00  0.88000000000E+00 0. -1.
        -11    1    4    4    0    0  0.68393531438E-01 -0.67661187698E-01 -0.91550550049E-01  0.13280615874E+00  0.51100000000E-03 0.  1.
         11    1    4    4    0    0  0.21489750531E-02  0.56562208669E-02 -0.44602226760E-03  0.60885946767E-02  0.51100000000E-03 0. -1.
</event>
<event>
 8    1  0.2190295E+004  0.1043930E+01  0.7957747E-01            NaN
         13   -1    0    0    0    0  0.00000000000E+00  0.00000000000E+00  0.74505805969E-08  0.10566000000E+00  0.10566000000E+00 0. -1.
     999900   -1    0    0    0    0 -0.00000000000E+00 -0.00000000000E+00 -0.74505805969E-08  0.93827000000E+00  0.93827000000E+00 0. -1.
     999902    2    1    2    0    0 -0.14147824843E-01 -0.27805960832E-02  0.61687095124E-02  0.10282473459E+01  0.10281277444E+01 0.  0.
     999903    2    3    3    0    0  0.10040436705E+00  0.59898280639E-01 -0.54209341624E-01  0.13656558916E+00  0.45195867912E-01 0.  0.
         14    1    1    2    0    0  0.14147824843E-01  0.27805960832E-02 -0.61687095124E-02  0.15682654093E-01  0.00000000000E+00 0. -1.
     999901    1    3    3    0    0 -0.11455219190E+00 -0.62678876722E-01  0.60378051136E-01  0.89168175675E+00  0.88000000000E+00 0.  1.
        -11    1    4    4    0    0  0.82817686252E-01  0.65053800428E-01 -0.53723193961E-01  0.11822524602E+00  0.51100000000E-03 0.  1.
         11    1    4    4    0    0  0.17586680802E-01 -0.51555197893E-02 -0.48614766337E-03  0.18340343139E-01  0.51100000000E-03 0. -1.
</event>
<event>
 8    1  0.2277977E+004  0.1043930E+01  0.7957747E-01            NaN
         13   -1    0    0    0    0  0.00000000000E+00  0.00000000000E+00  0.74505805969E-08  0.10566000000E+00  0.10566000000E+00 0. -1.
     999900   -1    0    0    0    0 -0.00000000000E+00 -0.00000000000E+00 -0.74505805969E-08  0.93827000000E+00  0.93827000000E+00 0.  1.
     999902    2    1    2    0    0  0.31577641499E-02 -0.57386489444E-02 -0.15754232524E-01  0.10268683644E+01  0.10267266133E+01 0.  0.
     999903    2    3    3    0    0 -0.48224801960E-01  0.96259637342E-01 -0.72863855901E-01  0.13765223345E+00  0.45248718999E-01 0.  0.
         14    1    1    2    0    0 -0.31577641499E-02  0.57386489444E-02  0.15754232524E-01  0.17061635577E-01  0.00000000000E+00 0. -1.
     999901    1    3    3    0    0  0.51382566110E-01 -0.10199828629E+00  0.57109623377E-01  0.88921613098E+00  0.88000000000E+00 0.  1.
        -11    1    4    4    0    0 -0.16859973401E-01  0.78002714380E-01 -0.43015790043E-01  0.90660363267E-01  0.51100000000E-03 0. -1.
         11    1    4    4    0    0 -0.31364828559E-01  0.18256922962E-01 -0.29848065858E-01  0.46991870180E-01  0.51100000000E-03 0.  1.
</event>
<event>
 8    1  0.2190295E+004  0.1043930E+01  0.7957747E-01            NaN
         13   -1    0    0    0    0  0.00000000000E+00  0.00000000000E+00  0.74505805969E-08  0.10566000000E+00  0.10566000000E+00 0.  1.
     999900   -1    0    0    0    0 -0.00000000000E+00 -0.00000000000E+00 -0.74505805969E-08  0.93827000000E+00  0.93827000000E+00 0. -1.
     999902    2    1    2    0    0 -0.10406828872E-01  0.11511858143E-02 -0.40361876204E-02  0.10327086754E+01  0.10326477086E+01 0.  0.
     999903    2    3    3    0    0  0.13222813394E+00  0.15091947467E-01 -0.12349069788E-01  0.14107636244E+00  0.45144149452E-01 0.  0.
         14    1    1    2    0    0  0.10406828872E-01 -0.11511858143E-02  0.40361876204E-02  0.11221324631E-01  0.00000000000E+00 0.  1.
     999901    1    3    3    0    0 -0.14263496282E+00 -0.13940761653E-01  0.83128821680E-02  0.89163231293E+00  0.88000000000E+00 0.  1.
        -11    1    4    4    0    0  0.40242447980E-01  0.11447491719E-01 -0.24074101324E-01  0.48273420861E-01  0.51100000000E-03 0. -1.
         11    1    4    4    0    0  0.91985685964E-01  0.36444557477E-02  0.11725031536E-01  0.92802941577E-01  0.51100000000E-03 0.  1.
</event>
<event>
 8    1  0.2419626E+004  0.1043930E+01  0.7957747E-01            NaN
         13   -1    0    0    0    0  0.00000000000E+00  0.00000000000E+00  0.74505805969E-08  0.10566000000E+00  0.10566000000E+00 0.  1.
     999900   -1    0    0    0    0 -0.00000000000E+00 -0.00000000000E+00 -0.74505805969E-08  0.93827000000E+00  0.93827000000E+00 0.  1.
     999902    2    1    2    0    0  0.63973475221E-02 -0.13505119740E-01  0.55373753261E-02  0.10279933492E+01  0.10278698113E+01 0.  0.
     999903    2    3    3    0    0  0.58527988180E-01 -0.10779056731E+00 -0.56191878146E-01  0.13927638069E+00  0.34583973822E-01 0.  0.
         14    1    1    2    0    0 -0.63973475221E-02  0.13505119740E-01 -0.55373753261E-02  0.15936650840E-01  0.00000000000E+00 0. -1.
     999901    1    3    3    0    0 -0.52130640658E-01  0.94285447573E-01  0.61729253472E-01  0.88871696847E+00  0.88000000000E+00 0. -1.
        -11    1    4    4    0    0  0.32285802186E-01 -0.68294220250E-01 -0.16241694832E-01  0.77269187354E-01  0.51100000000E-03 0. -1.
         11    1    4    4    0    0  0.26242185994E-01 -0.39496347063E-01 -0.39950183314E-01  0.62007193332E-01  0.51100000000E-03 0.  1.
</event>
<event>
 8    1  0.2190295E+004  0.1043930E+01  0.7957747E-01            NaN
         13   -1    0    0    0    0  0.00000000000E+00  0.00000000000E+00  0.74505805969E-08  0.10566000000E+00  0.10566000000E+00 0.  1.
     999900   -1    0    0    0    0 -0.00000000000E+00 -0.00000000000E+00 -0.74505805969E-08  0.93827000000E+00  0.93827000000E+00 0.  1.
     999902    2    1    2    0    0 -0.16642784132E-03 -0.78183146315E-02  0.97618833563E-02  0.10314220782E+01  0.10313462344E+01 0.  0.
     999903    2    3    3    0    0  0.27553563464E-01  0.10117108518E+00 -0.80377459903E-01  0.13969779993E+00  0.45388896332E-01 0.  0.
         14    1    1    2    0    0  0.16642784132E-03  0.78183146315E-02 -0.97618833563E-02  0.12507921832E-01  0.00000000000E+00 0. -1.
     999901    1    3    3    0    0 -0.27719991306E-01 -0.10898939981E+00  0.90139343259E-01  0.89172427823E+00  0.88000000000E+00 0. -1.
        -11    1    4    4    0    0  0.29233655817E-01  0.77771887653E-01 -0.38232168172E-01  0.91460554042E-01  0.51100000000E-03 0. -1.
         11    1    4    4    0    0 -0.16800923524E-02  0.23399197524E-01 -0.42145291731E-01  0.48237245891E-01  0.51100000000E-03 0.  1.
</event>
<event>
 8    1  0.2190295E+004  0.1043930E+01  0.7957747E-01            NaN
         13   -1    0    0    0    0  0.00000000000E+00  0.00000000000E+00  0.74505805969E-08  0.10566000000E+00  0.10566000000E+00 0. -1.
     999900   -1    0    0    0    0 -0.00000000000E+00 -0.00000000000E+00 -0.74505805969E-08  0.93827000000E+00  0.93827000000E+00 0. -1.
     999902    2    1    2    0    0 -0.52189317144E-02  0.10524810505E-02 -0.11607620108E-01  0.10311596512E+01  0.10310805712E+01 0.  0.
     999903    2    3    3    0    0  0.10364093495E+00 -0.15741781661E-01 -0.83679099907E-01  0.14136932979E+00  0.44652531338E-01 0.  0.
         14    1    1    2    0    0  0.52189317144E-02 -0.10524810505E-02  0.11607620108E-01  0.12770348828E-01  0.00000000000E+00 0. -1.
     999901    1    3    3    0    0 -0.10885986667E+00  0.16794262711E-01  0.72071479799E-01  0.88979032139E+00  0.88000000000E+00 0. -1.
        -11    1    4    4    0    0  0.95981333754E-01 -0.95516677875E-02 -0.88032639450E-01  0.13058965317E+00  0.51100000000E-03 0.  1.
         11    1    4    4    0    0  0.76596012006E-02 -0.61901138731E-02  0.43535395425E-02  0.10779676612E-01  0.51100000000E-03 0. -1.
</event>
<event>
 8    1  0.2190295E+004  0.1043930E+01  0.7957747E-01            NaN
         13   -1    0    0    0    0  0.00000000000E+00  0.00000000000E+00  0.74505805969E-08  0.10566000000E+00  0.10566000000E+00 0. -1.
     999900   -1    0    0    0    0 -0.00000000000E+00 -0.00000000000E+00 -0.74505805969E-08  0.93827000000E+00  0.93827000000E+00 0. -1.
     999902    2    1    2    0    0 -0.10333346014E-01 -0.64857327899E-02  0.72075027054E-02  0.10297599307E+01  0.10296624320E+01 0.  0.
     999903    2    3    3    0    0  0.72805486184E-01 -0.16669535103E-01  0.10896854597E+00  0.13994473346E+00  0.46172201520E-01 0.  0.
         14    1    1    2    0    0  0.10333346014E-01  0.64857327899E-02 -0.72075027054E-02  0.14170069334E-01  0.00000000000E+00 0.  1.
     999901    1    3    3    0    0 -0.83138832198E-01  0.10183802313E-01 -0.10176104327E+00  0.88981519720E+00  0.88000000000E+00 0. -1.
        -11    1    4    4    0    0  0.47332172007E-01  0.12551803036E-01  0.58056280914E-01  0.75951794850E-01  0.51100000000E-03 0. -1.
         11    1    4    4    0    0  0.25473314177E-01 -0.29221338139E-01  0.50912265058E-01  0.63992938612E-01  0.51100000000E-03 0.  1.
</event>
<event>
 8    1  0.2190295E+004  0.1043930E+01  0.7957747E-01            NaN
         13   -1    0    0    0    0  0.00000000000E+00  0.00000000000E+00  0.74505805969E-08  0.10566000000E+00  0.10566000000E+00 0. -1.
     999900   -1    0    0    0    0 -0.00000000000E+00 -0.00000000000E+00 -0.74505805969E-08  0.93827000000E+00  0.93827000000E+00 0.  1.
     999902    2    1    2    0    0 -0.14884237222E-01 -0.17564785486E-02 -0.93840403539E-02  0.10262470719E+01  0.10260947162E+01 0.  0.
     999903    2    3    3    0    0  0.74346166361E-01  0.56310361215E-03  0.10296183368E+00  0.13462549248E+00  0.44667823916E-01 0.  0.
         14    1    1    2    0    0  0.14884237222E-01  0.17564785486E-02  0.93840403539E-02  0.17682928150E-01  0.00000000000E+00 0.  1.
     999901    1    3    3    0    0 -0.89230403583E-01 -0.23195821607E-02 -0.11234587403E+00  0.89162157937E+00  0.88000000000E+00 0.  1.
        -11    1    4    4    0    0  0.65959575207E-01  0.14242314349E-01  0.95465861745E-01  0.11690808766E+00  0.51100000000E-03 0.  1.
         11    1    4    4    0    0  0.83865911540E-02 -0.13679210736E-01  0.74959719316E-02  0.17717404826E-01  0.51100000000E-03 0. -1.
</event>
<event>
 8    1  0.2190295E+004  0.1043930E+01  0.7957747E-01            NaN
         13   -1    0    0    0    0  0.00000000000E+00  0.00000000000E+00  0.74505805969E-08  0.10566000000E+00  0.10566000000E+00 0. -1.
     999900   -1    0    0    0    0 -0.00000000000E+00 -0.00000000000E+00 -0.74505805969E-08  0.93827000000E+00  0.93827000000E+00 0. -1.
     999902    2    1    2    0    0 -0.60638465493E-02 -0.56345163221E-02  0.11106675271E-01  0.10300780599E+01  0.10299849189E+01 0.  0.
     999903    2    3    3    0    0 -0.13343996845E+00 -0.67601809920E-02 -0.17799729652E-02  0.14081318976E+00  0.44421401128E-01 0.  0.
         14    1    1    2    0    0  0.60638465493E-02  0.56345163221E-02 -0.11106675271E-01  0.13851940107E-01  0.00000000000E+00 0. -1.
     999901    1    3    3    0    0  0.12737612190E+00  0.11256646699E-02  0.12886648236E-01  0.88926487013E+00  0.88000000000E+00 0. -1.
        -11    1    4    4    0    0 -0.11325858700E+00 -0.14044671997E-01 -0.15744457987E-01  0.11520811352E+00  0.51100000000E-03 0. -1.
         11    1    4    4    0    0 -0.20181381450E-01  0.72844910054E-02  0.13964485022E-01  0.25605076242E-01  0.51100000000E-03 0.  1.
</event>
<event>
 8    1  0.2190295E+004  0.1043930E+01  0.7957747E-01            NaN
         13   -1    0    0    0    0  0.00000000000E+00  0.00000000000E+00  0.74505805969E-08  0.10566000000E+00  0.10566000000E+00 0. -1.
     999900   -1    0    0    0    0 -0.00000000000E+00 -0.00000000000E+00 -0.74505805969E-08  0.93827000000E+00  0.93827000000E+00 0. -1.
     999902    2    1    2    0    0  0.75518610164E-03  0.85524669483E-02 -0.10245192995E-01  0.10305629144E+01  0.10304762208E+01 0.  0.
     999903    2    3    3    0    0  0.57425452389E-01  0.12130718011E+00 -0.65899423502E-02  0.14155306900E+00  0.44505387032E-01 0.  0.
         14    1    1    2    0    0 -0.75518610164E-03 -0.85524669483E-02  0.10245192995E-01  0.13367085563E-01  0.00000000000E+00 0. -1.
     999901    1    3    3    0    0 -0.56670266288E-01 -0.11275471316E+00 -0.36552506447E-02  0.88900984543E+00  0.88000000000E+00 0.  1.
        -11    1    4    4    0    0  0.51396730670E-02  0.52667278692E-01  0.95348358116E-02  0.53772043842E-01  0.51100000000E-03 0.  1.
         11    1    4    4    0    0  0.52285779322E-01  0.68639901421E-01 -0.16124778162E-01  0.87781025160E-01  0.51100000000E-03 0. -1.
</event>
<event>
 8    1  0.2190295E+004  0.1043930E+01  0.7957747E-01            NaN
         13   -1    0    0    0    0  0.00000000000E+00  0.00000000000E+00  0.74505805969E-08  0.10566000000E+00  0.10566000000E+00 0. -1.
     999900   -1    0    0    0    0 -0.00000000000E+00 -0.00000000000E+00 -0.74505805969E-08  0.93827000000E+00  0.93827000000E+00 0.  1.
     999902    2    1    2    0    0 -0.78741607896E-02 -0.35108622648E-02 -0.11697051340E-01  0.10293990134E+01  0.10292964486E+01 0.  0.
     999903    2    3    3    0    0  0.12747989529E+00 -0.27530511045E-01 -0.13178225002E-01  0.13872519099E+00  0.45408812564E-01 0.  0.
         14    1    1    2    0    0  0.78741607896E-02  0.35108622648E-02  0.11697051340E-01  0.14530986616E-01  0.00000000000E+00 0. -1.
     999901    1    3    3    0    0 -0.13535405608E+00  0.24019648780E-01  0.14811736626E-02  0.89067382240E+00  0.88000000000E+00 0.  1.
        -11    1    4    4    0    0  0.77392135707E-01  0.53274100996E-02 -0.94228216949E-03  0.77582684823E-01  0.51100000000E-03 0.  1.
         11    1    4    4    0    0  0.50087759585E-01 -0.32857921144E-01 -0.12235942833E-01  0.61142506165E-01  0.51100000000E-03 0. -1.
</event>
<event>
 8    1  0.2190295E+004  0.1043930E+01  0.7957747E-01            NaN
         13   -1    0    0    0    0  0.00000000000E+00  0.00000000000E+00  0.74505805969E-08  0.10566000000E+00  0.10566000000E+00 0.  1.
     999900   -1    0    0    0    0 -0.00000000000E+00 -0.00000000000E+00 -0.74505805969E-08  0.93827000000E+00  0.93827000000E+00 0. -1.
     999902    2    1    2    0    0  0.19019575670E-02  0.13438495973E-01  0.38036957832E-02  0.10298346562E+01  0.10297381902E+01 0.  0.
     999903    2    3    3    0    0  0.10229680074E+00  0.82401536262E-01  0.25283985786E-01  0.14118600324E+00  0.45161476442E-01 0.  0.
         14    1    1    2    0    0 -0.19019575670E-02 -0.13438495973E-01 -0.38036957832E-02  0.14095343849E-01  0.00000000000E+00 0. -1.
     999901    1    3    3    0    0 -0.10039484317E+00 -0.68963040289E-01 -0.21480290003E-01  0.88864865291E+00  0.88000000000E+00 0. -1.
        -11    1    4    4    0    0  0.39628019704E-01  0.52580727182E-01  0.28410860972E-01  0.71711581762E-01  0.51100000000E-03 0.  1.
         11    1    4    4    0    0  0.62668781033E-01  0.29820809081E-01 -0.31268751857E-02  0.69474421479E-01  0.51100000000E-03 0. -1.
</event>
<event>
 8    1  0.2190295E+004  0.1043930E+01  0.7957747E-01            NaN
         13   -1    0    0    0    0  0.00000000000E+00  0.00000000000E+00  0.74505805969E-08  0.10566000000E+00  0.10566000000E+00 0.  1.
     999900   -1    0    0    0    0 -0.00000000000E+00 -0.00000000000E+00 -0.74505805969E-08  0.93827000000E+00  0.93827000000E+00 0. -1.
     999902    2    1    2    0    0  0.66220288522E-02  0.10180300336E-01 -0.65419745405E-02  0.10301355369E+01  0.10300431725E+01 0.  0.
     999903    2    3    3    0    0 -0.23902764435E-01 -0.12848526063E+00  0.13007340373E-01  0.13854029437E+00  0.44095554373E-01 0.  0.
         14    1    1    2    0    0 -0.66220288522E-02 -0.10180300336E-01  0.65419745405E-02  0.13794463090E-01  0.00000000000E+00 0.  1.
     999901    1    3    3    0    0  0.30524793287E-01  0.13866556096E+00 -0.19549314913E-01  0.89159524254E+00  0.88000000000E+00 0. -1.
        -11    1    4    4    0    0  0.62525641152E-02 -0.35289464070E-01 -0.11361248216E-01  0.37600264818E-01  0.51100000000E-03 0.  1.
         11    1    4    4    0    0 -0.30155328550E-01 -0.93195796556E-01  0.24368588588E-01  0.10094002955E+00  0.51100000000E-03 0. -1.
</event>
<event>
 8    1  0.2190295E+004  0.1043930E+01  0.7957747E-01            NaN
         13   -1    0    0    0    0  0.00000000000E+00  0.00000000000E+00  0.74505805969E-08  0.10566000000E+00  0.10566000000E+00 0. -1.
     999900   -1    0    0    0    0 -0.00000000000E+00 -0.00000000000E+00 -0.74505805969E-08  0.93827000000E+00  0.93827000000E+00 0.  1.
     999902    2    1    2    0    0 -0.62641020949E-02 -0.14690317023E-01 -0.12618922541E-01  0.10235760914E+01  0.10233737017E+01 0.  0.
     999903    2    3    3    0    0 -0.26110990740E-01 -0.80089752096E-01 -0.97879386160E-01  0.13681776369E+00  0.45194844825E-01 0.  0.
         14    1    1    2    0    0  0.62641020949E-02  0.14690317023E-01  0.12618922541E-01  0.20353908602E-01  0.00000000000E+00 0. -1.
     999901    1    3    3    0    0  0.19846888645E-01  0.65399435073E-01  0.85260463620E-01  0.88675832770E+00  0.88000000000E+00 0. -1.
        -11    1    4    4    0    0 -0.30828317705E-01 -0.26133829239E-01 -0.51813333942E-01  0.65713354034E-01  0.51100000000E-03 0. -1.
         11    1    4    4    0    0  0.47173269648E-02 -0.53955922857E-01 -0.46066052218E-01  0.71104409659E-01  0.51100000000E-03 0.  1.
</event>
<event>
 8    1  0.2190295E+004  0.1043930E+01  0.7957747E-01            NaN
         13   -1    0    0    0    0  0.00000000000E+00  0.00000000000E+00  0.74505805969E-08  0.10566000000E+00  0.10566000000E+00 0.  1.
     999900   -1    0    0    0    0 -0.00000000000E+00 -0.00000000000E+00 -0.74505805969E-08  0.93827000000E+00  0.93827000000E+00 0.  1.
     999902    2    1    2    0    0  0.11611346396E-02  0.38934341638E-02  0.13351286210E-01  0.10299742160E+01  0.10298796637E+01 0.  0.
     999903    2    3    3    0    0  0.11133851478E+00 -0.56435906126E-01 -0.40355129236E-01  0.13943333348E+00  0.47242371409E-01 0.  0.
         14    1    1    2    0    0 -0.11611346396E-02 -0.38934341638E-02 -0.13351286210E-01  0.13955783988E-01  0.00000000000E+00 0. -1.
     999901    1    3    3    0    0 -0.11017738014E+00  0.60329340290E-01  0.53706415446E-01  0.89054088253E+00  0.88000000000E+00 0. -1.
        -11    1    4    4    0    0  0.33387197082E-01 -0.24126561074E-01 -0.36374622162E-01  0.54956074612E-01  0.51100000000E-03 0. -1.
         11    1    4    4    0    0  0.77951317700E-01 -0.32309345052E-01 -0.39805070734E-02  0.84477258872E-01  0.51100000000E-03 0.  1.
</event>
<event>
 8    1  0.2190295E+004  0.1043930E+01  0.7957747E-01            NaN
         13   -1    0    0    0    0  0.00000000000E+00  0.00000000000E+00  0.74505805969E-08  0.10566000000E+00  0.10566000000E+00 0.  1.
     999900   -1    0    0    0    0 -0.00000000000E+00 -0.00000000000E+00 -0.74505805969E-08  0.93827000000E+00  0.93827000000E+00 0.  1.
     999902    2    1    2    0    0  0.94131326560E-02  0.79997608715E-02  0.74334104371E-02  0.10295126899E+01  0.10294117348E+01 0.  0.
     999903    2    3    3    0    0 -0.96317077739E-01  0.50886824367E-01  0.75219782535E-01  0.13956147220E+00  0.44192086167E-01 0.  0.
         14    1    1    2    0    0 -0.94131326560E-02 -0.79997608715E-02 -0.74334104371E-02  0.14417310121E-01  0.00000000000E+00 0.  1.
     999901    1    3    3    0    0  0.10573021039E+00 -0.42887063495E-01 -0.67786372098E-01  0.88995121768E+00  0.88000000000E+00 0.  1.
        -11    1    4    4    0    0 -0.84555103509E-01  0.32688587871E-01  0.75358341115E-01  0.11788659806E+00  0.51100000000E-03 0.  1.
         11    1    4    4    0    0 -0.11761974230E-01  0.18198236496E-01 -0.13855858031E-03  0.21674874136E-01  0.51100000000E-03 0. -1.
</event>
<event>
 8    1  0.2190295E+004  0.1043930E+01  0.7957747E-01            NaN
         13   -1    0    0    0    0  0.00000000000E+00  0.00000000000E+00  0.74505805969E-08  0.10566000000E+00  0.10566000000E+00 0.  1.
     999900   -1    0    0    0    0 -0.00000000000E+00 -0.00000000000E+00 -0.74505805969E-08  0.93827000000E+00  0.93827000000E+00 0.  1.
     999902    2    1    2    0    0 -0.11163404377E-03 -0.58318663886E-02  0.13089893302E-01  0.10295993184E+01  0.10294995814E+01 0.  0.
     999903    2    3    3    0    0  0.93755724211E-01 -0.78706276283E-01 -0.50099275649E-01  0.13936640978E+00  0.43911786639E-01 0.  0.
         14    1    1    2    0    0  0.11163404377E-03  0.58318663886E-02 -0.13089893302E-01  0.14330681574E-01  0.00000000000E+00 0. -1.
     999901    1    3    3    0    0 -0.93867358254E-01  0.72874409894E-01  0.63189168951E-01  0.89023290865E+00  0.88000000000E+00 0. -1.
        -11    1    4    4    0    0  0.23819924062E-01  0.38491758449E-03 -0.14767247452E-01  0.28033366943E-01  0.51100000000E-03 0.  1.
         11    1    4    4    0    0  0.69935800149E-01 -0.79091193867E-01 -0.35332028197E-01  0.11133304284E+00  0.51100000000E-03 0. -1.
</event>
<event>
 8    1  0.2190295E+004  0.1043930E+01  0.7957747E-01            NaN
         13   -1    0    0    0    0  0.00000000000E+00  0.00000000000E+00  0.74505805969E-08  0.10566000000E+00  0.10566000000E+00 0.  1.
     999900   -1    0    0    0    0 -0.00000000000E+00 -0.00000000000E+00 -0.74505805969E-08  0.93827000000E+00  0.93827000000E+00 0.  1.
     999902    2    1    2    0    0  0.29824584175E-02 -0.11206573051E-01 -0.16378806446E-03  0.10323321914E+01  0.10322670411E+01 0.  0.
     999903    2    3    3    0    0 -0.12663665067E+00 -0.13884974068E-01  0.43035365431E-01  0.14178491352E+00  0.44958705813E-01 0.  0.
         14    1    1    2    0    0 -0.29824584175E-02  0.11206573051E-01  0.16378806446E-03  0.11597808598E-01  0.00000000000E+00 0. -1.
     999901    1    3    3    0    0  0.12961910908E+00  0.26784010167E-02 -0.43199153496E-01  0.89054727788E+00  0.88000000000E+00 0.  1.
        -11    1    4    4    0    0 -0.41549761919E-01  0.13953414803E-01  0.24994751725E-01  0.50458688400E-01  0.51100000000E-03 0.  1.
         11    1    4    4    0    0 -0.85086888747E-01 -0.27838388871E-01  0.18040613706E-01  0.91326225125E-01  0.51100000000E-03 0. -1.
</event>
<event>
 8    1  0.2190295E+004  0.1043930E+01  0.7957747E-01            NaN
         13   -1    0    0    0    0  0.00000000000E+00  0.00000000000E+00  0.74505805969E-08  0.10566000000E+00  0.10566000000E+00 0.  1.
     999900   -1    0    0    0    0 -0.00000000000E+00 -0.00000000000E+00 -0.74505805969E-08  0.93827000000E+00  0.93827000000E+00 0.  1.
     999902    2    1    2    0    0 -0.94349615119E-02 -0.93160748192E-02 -0.36949025190E-02  0.10301655511E+01  0.10300735909E+01 0.  0.
     999903    2    3    3    0    0  0.63514066770E-01  0.19325361097E-01 -0.11473241760E+00  0.13973238554E+00  0.44205267347E-01 0.  0.
         14    1    1    2    0    0  0.94349615119E-02  0.93160748192E-02  0.36949025190E-02  0.13764448895E-01  0.00000000000E+00 0. -1.
     999901    1    3    3    0    0 -0.72949028282E-01 -0.28641435916E-01  0.11103751508E+00  0.89043316556E+00  0.88000000000E+00 0. -1.
        -11    1    4    4    0    0  0.84308406953E-02  0.23045285642E-01 -0.35980579472E-01  0.43554879007E-01  0.51100000000E-03 0.  1.
         11    1    4    4    0    0  0.55083226075E-01 -0.37199245454E-02 -0.78751838129E-01  0.96177506534E-01  0.51100000000E-03 0. -1.
</event>
<event>
 8    1  0.2190295E+004  0.1043930E+01  0.7957747E-01            NaN
         13   -1    0    0    0    0  0.00000000000E+00  0.00000000000E+00  0.74505805969E-08  0.10566000000E+00  0.10566000000E+00 0.  1.
     999900   -1    0    0    0    0 -0.00000000000E+00 -0.00000000000E+00 -0.74505805969E-08  0.93827000000E+00  0.93827000000E+00 0. -1.
     999902    2    1    2    0    0 -0.60207136005E-03  0.68857008512E-02  0.12058173339E-01  0.10300312623E+01  0.10299374866E+01 0.  0.
     999903    2    3    3    0    0 -0.67436244318E-01  0.67180620232E-01  0.94426288457E-01  0.14161312290E+00  0.45574881716E-01 0.  0.
         14    1    1    2    0    0  0.60207136005E-03 -0.68857008512E-02 -0.12058173339E-01  0.13898737727E-01  0.00000000000E+00 0. -1.
     999901    1    3    3    0    0  0.66834172958E-01 -0.60294919381E-01 -0.82368115118E-01  0.88841813937E+00  0.88000000000E+00 0. -1.
        -11    1    4    4    0    0 -0.46452427599E-01  0.18811190657E-01  0.61955049513E-01  0.79689260286E-01  0.51100000000E-03 0.  1.
         11    1    4    4    0    0 -0.20983816719E-01  0.48369429576E-01  0.32471238944E-01  0.61923862615E-01  0.51100000000E-03 0. -1.
</event>
<event>
 8    1  0.2190295E+004  0.1043930E+01  0.7957747E-01            NaN
         13   -1    0    0    0    0  0.00000000000E+00  0.00000000000E+00  0.74505805969E-08  0.10566000000E+00  0.10566000000E+00 0. -1.
     999900   -1    0    0    0    0 -0.00000000000E+00 -0.00000000000E+00 -0.74505805969E-08  0.93827000000E+00  0.93827000000E+00 0.  1.
     999902    2    1    2    0    0 -0.11943641187E-01  0.34519060670E-02 -0.42593510070E-02  0.10307881473E+01  0.10307043691E+01 0.  0.
     999903    2    3    3    0    0 -0.13372453732E+00  0.16494882246E-01 -0.49367454538E-02  0.14230564062E+00  0.45521323296E-01 0.  0.
         14    1    1    2    0    0  0.11943641187E-01 -0.34519060670E-02  0.42593510070E-02  0.13141852659E-01  0.00000000000E+00 0. -1.
     999901    1    3    3    0    0  0.12178089613E+00 -0.13042976179E-01  0.67739444686E-03  0.88848250672E+00  0.88000000000E+00 0. -1.
        -11    1    4    4    0    0 -0.38959735720E-01  0.25977520116E-02 -0.22294585836E-01  0.44965753652E-01  0.51100000000E-03 0.  1.
         11    1    4    4    0    0 -0.94764801599E-01  0.13897130235E-01  0.17357840383E-01  0.97339886966E-01  0.51100000000E-03 0. -1.
</event>
<event>
 8    1  0.2190295E+004  0.1043930E+01  0.7957747E-01            NaN
         13   -1    0    0    0    0  0.00000000000E+00  0.00000000000E+00  0.74505805969E-08  0.10566000000E+00  0.10566000000E+00 0. -1.
     999900   -1    0    0    0    0 -0.00000000000E+00 -0.00000000000E+00 -0.74505805969E-08  0.93827000000E+00  0.93827000000E+00 0.  1.
     999902    2    1    2    0    0 -0.74606432835E-02 -0.12587861943E-01 -0.41660922389E-02  0.10287158030E+01  0.10286032916E+01 0.  0.
     999903    2    3    3    0    0 -0.32474603387E-01  0.42221978174E-01  0.11911634041E+00  0.13808211005E+00  0.45173789505E-01 0.  0.
         14    1    1    2    0    0  0.74606432835E-02  0.12587861943E-01  0.41660922389E-02  0.15214197023E-01  0.00000000000E+00 0.  1.
     999901    1    3    3    0    0  0.25013960104E-01 -0.54809840118E-01 -0.12328243265E+00  0.89063369292E+00  0.88000000000E+00 0.  1.
        -11    1    4    4    0    0  0.14873789696E-02  0.18067818269E-01  0.75922920065E-01  0.78059011430E-01  0.51100000000E-03 0. -1.
         11    1    4    4    0    0 -0.33961982357E-01  0.24154159905E-01  0.43193420342E-01  0.60023098622E-01  0.51100000000E-03 0.  1.
</event>
<event>
 8    1  0.2190295E+004  0.1043930E+01  0.7957747E-01            NaN
         13   -1    0    0    0    0  0.00000000000E+00  0.00000000000E+00  0.74505805969E-08  0.10566000000E+00  0.10566000000E+00 0. -1.
     999900   -1    0    0    0    0 -0.00000000000E+00 -0.00000000000E+00 -0.74505805969E-08  0.93827000000E+00  0.93827000000E+00 0.  1.
     999902    2    1    2    0    0  0.40707151149E-02  0.13296234806E-01 -0.33894642377E-02  0.10296174513E+01  0.10295179683E+01 0.  0.
     999903    2    3    3    0    0 -0.72218203833E-03 -0.49860345645E-02 -0.13232193389E+00  0.14002159086E+00  0.45514499119E-01 0.  0.
         14    1    1    2    0    0 -0.40707151149E-02 -0.13296234806E-01  0.33894642377E-02  0.14312548668E-01  0.00000000000E+00 0. -1.
     999901    1    3    3    0    0  0.47928971532E-02  0.18282269370E-01  0.12893246966E+00  0.88959586047E+00  0.88000000000E+00 0.  1.
        -11    1    4    4    0    0 -0.70752957000E-02  0.90223076058E-02 -0.11933071251E+00  0.11988136600E+00  0.51100000000E-03 0.  1.
         11    1    4    4    0    0  0.63531136617E-02 -0.14008342170E-01 -0.12991221384E-01  0.20140224865E-01  0.51100000000E-03 0. -1.
</event>
<event>
 8    1  0.2190295E+004  0.1043930E+01  0.7957747E-01            NaN
         13   -1    0    0    0    0  0.00000000000E+00  0.00000000000E+00  0.74505805969E-08  0.10566000000E+00  0.10566000000E+00 0. -1.
     999900   -1    0    0    0    0 -0.00000000000E+00 -0.00000000000E+00 -0.74505805969E-08  0.93827000000E+00  0.93827000000E+00 0. -1.
     999902    2    1    2    0    0  0.12245547457E-01  0.45854239282E-02 -0.72026812423E-02  0.10290015653E+01  0.10288932711E+01 0.  0.
     999903    2    3    3    0    0  0.12107906698E+00 -0.50110834113E-01 -0.22157528769E-01  0.14048591375E+00  0.45542285011E-01 0.  0.
         14    1    1    2    0    0 -0.12245547457E-01 -0.45854239282E-02  0.72026812423E-02  0.14928434687E-01  0.00000000000E+00 0. -1.
     999901    1    3    3    0    0 -0.10883351952E+00  0.54696258041E-01  0.14954847526E-01  0.88851565157E+00  0.88000000000E+00 0.  1.
        -11    1    4    4    0    0  0.40416384812E-01 -0.40427552089E-01 -0.13830993174E-01  0.58816907624E-01  0.51100000000E-03 0. -1.
         11    1    4    4    0    0  0.80662682166E-01 -0.96832820234E-02 -0.83265355943E-02  0.81669006122E-01  0.51100000000E-03 0.  1.
</event>
<event>
 8    1  0.2190295E+004  0.1043930E+01  0.7957747E-01            NaN
         13   -1    0    0    0    0  0.00000000000E+00  0.00000000000E+00  0.74505805969E-08  0.10566000000E+00  0.10566000000E+00 0. -1.
     999900   -1    0    0    0    0 -0.00000000000E+00 -0.00000000000E+00 -0.74505805969E-08  0.93827000000E+00  0.93827000000E+00 0. -1.
     999902    2    1    2    0    0  0.15782628255E-02 -0.12771017418E-01 -0.65423017160E-02  0.10294942281E+01  0.10293930125E+01 0.  0.
     999903    2    3    3    0    0 -0.27762232441E-01 -0.61068810592E-01  0.11454236567E+00  0.13940713224E+00  0.42594058392E-01 0.  0.
         14    1    1    2    0    0 -0.15782628255E-02  0.12771017418E-01  0.65423017160E-02  0.14435771929E-01  0.00000000000E+00 0.  1.
     999901    1    3    3    0    0  0.29340495266E-01  0.48297793174E-01 -0.12108466738E+00  0.89008709583E+00  0.88000000000E+00 0. -1.
        -11    1    4    4    0    0 -0.20756017855E-01 -0.21463585253E-01  0.83253538684E-01  0.88447219253E-01  0.51100000000E-03 0. -1.
         11    1    4    4    0    0 -0.70062145864E-02 -0.39605225338E-01  0.31288826981E-01  0.50959912988E-01  0.51100000000E-03 0.  1.
</event>
<event>
 8    1  0.3591604E+004  0.1043930E+01  0.7957747E-01            NaN
         13   -1    0    0    0    0  0.00000000000E+00  0.00000000000E+00  0.74505805969E-08  0.10566000000E+00  0.10566000000E+00 0. -1.
     999900   -1    0    0    0    0 -0.00000000000E+00 -0.00000000000E+00 -0.74505805969E-08  0.93827000000E+00  0.93827000000E+00 0.  1.
     999902    2    1    2    0    0 -0.67406480779E-02 -0.32540981502E-02 -0.11199141257E-01  0.10304598012E+01  0.10303717560E+01 0.  0.
     999903    2    3    3    0    0 -0.10861832605E+00  0.68629079043E-01  0.34956117995E-01  0.14047296960E+00  0.44753030736E-01 0.  0.
         14    1    1    2    0    0  0.67406480779E-02  0.32540981502E-02  0.11199141257E-01  0.13470198817E-01  0.00000000000E+00 0. -1.
     999901    1    3    3    0    0  0.10187767797E+00 -0.71883177193E-01 -0.46155259251E-01  0.88998683158E+00  0.88000000000E+00 0.  1.
        -11    1    4    4    0    0 -0.51867126690E-01  0.44284985370E-01  0.39036243810E-01  0.78584020081E-01  0.51100000000E-03 0.  1.
         11    1    4    4    0    0 -0.56751199356E-01  0.24344093673E-01 -0.40801258151E-02  0.61888949521E-01  0.51100000000E-03 0. -1.
</event>
<event>
 8    1  0.2190295E+004  0.1043930E+01  0.7957747E-01            NaN
         13   -1    0    0    0    0  0.00000000000E+00  0.00000000000E+00  0.74505805969E-08  0.10566000000E+00  0.10566000000E+00 0.  1.
     999900   -1    0    0    0    0 -0.00000000000E+00 -0.00000000000E+00 -0.74505805969E-08  0.93827000000E+00  0.93827000000E+00 0. -1.
     999902    2    1    2    0    0 -0.10979391849E-01  0.49130125180E-02 -0.66056315878E-02  0.10302070591E+01  0.10301156564E+01 0.  0.
     999903    2    3    3    0    0  0.99161690560E-02  0.77001842647E-01  0.10868888636E+00  0.13951842119E+00  0.40305107038E-01 0.  0.
         14    1    1    2    0    0  0.10979391849E-01 -0.49130125180E-02  0.66056315878E-02  0.13722940868E-01  0.00000000000E+00 0.  1.
     999901    1    3    3    0    0 -0.20895560905E-01 -0.72088830129E-01 -0.11529451795E+00  0.89068863794E+00  0.88000000000E+00 0. -1.
        -11    1    4    4    0    0  0.23600293527E-01  0.32787815037E-01  0.60048119009E-01  0.72374390409E-01  0.51100000000E-03 0. -1.
         11    1    4    4    0    0 -0.13684124471E-01  0.44214027610E-01  0.48640767348E-01  0.67144030779E-01  0.51100000000E-03 0.  1.
</event>
<event>
 8    1  0.2190295E+004  0.1043930E+01  0.7957747E-01            NaN
         13   -1    0    0    0    0  0.00000000000E+00  0.00000000000E+00  0.74505805969E-08  0.10566000000E+00  0.10566000000E+00 0.  1.
     999900   -1    0    0    0    0 -0.00000000000E+00 -0.00000000000E+00 -0.74505805969E-08  0.93827000000E+00  0.93827000000E+00 0.  1.
     999902    2    1    2    0    0  0.69685855402E-02  0.50400921848E-02  0.11981071720E-01  0.10291817868E+01  0.10290761101E+01 0.  0.
     999903    2    3    3    0    0 -0.70216327280E-02  0.12544508475E+00 -0.39328593589E-01  0.13939205308E+00  0.45799929848E-01 0.  0.
         14    1    1    2    0    0 -0.69685855402E-02 -0.50400921848E-02 -0.11981071720E-01  0.14748213221E-01  0.00000000000E+00 0. -1.
     999901    1    3    3    0    0  0.13990218268E-01 -0.12040499257E+00  0.51309665309E-01  0.88978973370E+00  0.88000000000E+00 0. -1.
        -11    1    4    4    0    0 -0.24808850405E-01  0.59881695434E-01 -0.27604248391E-01  0.70452481551E-01  0.51100000000E-03 0.  1.
         11    1    4    4    0    0  0.17787217677E-01  0.65563389316E-01 -0.11724345198E-01  0.68939571529E-01  0.51100000000E-03 0. -1.
</event>
<event>
 8    1  0.2190295E+004  0.1043930E+01  0.7957747E-01            NaN
         13   -1    0    0    0    0  0.00000000000E+00  0.00000000000E+00  0.74505805969E-08  0.10566000000E+00  0.10566000000E+00 0. -1.
     999900   -1    0    0    0    0 -0.00000000000E+00 -0.00000000000E+00 -0.74505805969E-08  0.93827000000E+00  0.93827000000E+00 0.  1.
     999902    2    1    2    0    0 -0.63591979451E-02  0.10034930546E-01  0.44587808259E-02  0.10312406361E+01  0.10311625622E+01 0.  0.
     999903    2    3    3    0    0 -0.53492009424E-01  0.70542793382E-01  0.10223139519E+00  0.14250997527E+00  0.44946124626E-01 0.  0.
         14    1    1    2    0    0  0.63591979451E-02 -0.10034930546E-01 -0.44587808259E-02  0.12689363893E-01  0.00000000000E+00 0.  1.
     999901    1    3    3    0    0  0.47132811479E-01 -0.60507862836E-01 -0.97772614369E-01  0.88873066083E+00  0.88000000000E+00 0.  1.
        -11    1    4    4    0    0 -0.39378167244E-01  0.15804286837E-01  0.38213342234E-01  0.57104607376E-01  0.51100000000E-03 0.  1.
         11    1    4    4    0    0 -0.14113842180E-01  0.54738506546E-01  0.64018052961E-01  0.85405367898E-01  0.51100000000E-03 0. -1.
</event>
<event>
 8    1  0.2190295E+004  0.1043930E+01  0.7957747E-01            NaN
         13   -1    0    0    0    0  0.00000000000E+00  0.00000000000E+00  0.74505805969E-08  0.10566000000E+00  0.10566000000E+00 0.  1.
     999900   -1    0    0    0    0 -0.00000000000E+00 -0.00000000000E+00 -0.74505805969E-08  0.93827000000E+00  0.93827000000E+00 0.  1.
     999902    2    1    2    0    0  0.96932501794E-02 -0.88354217979E-02 -0.36286672209E-02  0.10303215099E+01  0.10302316355E+01 0.  0.
     999903    2    3    3    0    0  0.18386547101E-01  0.56760248080E-02 -0.13247352968E+00  0.14077828211E+00  0.43577589171E-01 0.  0.
         14    1    1    2    0    0 -0.96932501794E-02  0.88354217979E-02  0.36286672209E-02  0.13608490114E-01  0.00000000000E+00 0.  1.
     999901    1    3    3    0    0 -0.86932969216E-02 -0.14511446606E-01  0.12884486246E+00  0.88954322777E+00  0.88000000000E+00 0. -1.
        -11    1    4    4    0    0  0.24905492789E-01 -0.26194608272E-03 -0.35306802503E-01  0.43210920042E-01  0.51100000000E-03 0. -1.
         11    1    4    4    0    0 -0.65189456881E-02  0.59379708907E-02 -0.97166727173E-01  0.97567362072E-01  0.51100000000E-03 0.  1.
</event>
<event>
 8    1  0.2190295E+004  0.1043930E+01  0.7957747E-01            NaN
         13   -1    0    0    0    0  0.00000000000E+00  0.00000000000E+00  0.74505805969E-08  0.10566000000E+00  0.10566000000E+00 0.  1.
     999900   -1    0    0    0    0 -0.00000000000E+00 -0.00000000000E+00 -0.74505805969E-08  0.93827000000E+00  0.93827000000E+00 0. -1.
     999902    2    1    2    0    0 -0.35319724193E-02  0.12569207209E-01  0.97750929773E-03  0.10308374325E+01  0.10307542854E+01 0.  0.
     999903    2    3    3    0    0 -0.13862782511E-01  0.13427726061E+00 -0.15962338273E-02  0.14239711372E+00  0.45297136514E-01 0.  0.
         14    1    1    2    0    0  0.35319724193E-02 -0.12569207209E-01 -0.97750929773E-03  0.13092567489E-01  0.00000000000E+00 0.  1.
     999901    1    3    3    0    0  0.10330810091E-01 -0.12170805340E+00  0.25737431250E-02  0.88844031879E+00  0.88000000000E+00 0.  1.
        -11    1    4    4    0    0  0.29124484218E-02  0.12030507828E+00 -0.41334152504E-02  0.12041237668E+00  0.51100000000E-03 0.  1.
         11    1    4    4    0    0 -0.16775230932E-01  0.13972182334E-01  0.25371814231E-02  0.21984737037E-01  0.51100000000E-03 0. -1.
</event>
<event>
 8    1  0.2190295E+004  0.1043930E+01  0.7957747E-01            NaN
         13   -1    0    0    0    0  0.00000000000E+00  0.00000000000E+00  0.74505805969E-08  0.10566000000E+00  0.10566000000E+00 0. -1.
     999900   -1    0    0    0    0 -0.00000000000E+00 -0.00000000000E+00 -0.74505805969E-08  0.93827000000E+00  0.93827000000E+00 0.  1.
     999902    2    1    2    0    0  0.60504024515E-02 -0.87042598419E-02  0.90520910171E-02  0.10299904211E+01  0.10298960897E+01 0.  0.
     999903    2    3    3    0    0 -0.12550574223E-01  0.13029592403E+00 -0.21112847005E-02  0.13881610118E+00  0.46161755727E-01 0.  0.
         14    1    1    2    0    0 -0.60504024515E-02  0.87042598419E-02 -0.90520910171E-02  0.13939578939E-01  0.00000000000E+00 0.  1.
     999901    1    3    3    0    0  0.18600976674E-01 -0.13900018388E+00  0.11163375718E-01  0.89117431988E+00  0.88000000000E+00 0.  1.
        -11    1    4    4    0    0 -0.24753301223E-01  0.35857609561E-01 -0.84160309836E-03  0.43582834943E-01  0.51100000000E-03 0.  1.
         11    1    4    4    0    0  0.12202727000E-01  0.94438314472E-01 -0.12696816021E-02  0.95233266241E-01  0.51100000000E-03 0. -1.
</event>
<event>
 8    1  0.2190295E+004  0.1043930E+01  0.7957747E-01            NaN
         13   -1    0    0    0    0  0.00000000000E+00  0.00000000000E+00  0.74505805969E-08  0.10566000000E+00  0.10566000000E+00 0.  1.
     999900   -1    0    0    0    0 -0.00000000000E+00 -0.00000000000E+00 -0.74505805969E-08  0.93827000000E+00  0.93827000000E+00 0.  1.
     999902    2    1    2    0    0 -0.79106433894E-02 -0.76804528254E-02 -0.85461605377E-02  0.10299799285E+01  0.10298854541E+01 0.  0.
     999903    2    3    3    0    0  0.73842137311E-01 -0.13004167088E-01 -0.10943006347E+00  0.14043542656E+00  0.46102067606E-01 0.  0.
         14    1    1    2    0    0  0.79106433894E-02  0.76804528254E-02  0.85461605377E-02  0.13950071483E-01  0.00000000000E+00 0. -1.
     999901    1    3    3    0    0 -0.81752780701E-01  0.53237142627E-02  0.10088390294E+00  0.88954450195E+00  0.88000000000E+00 0. -1.
        -11    1    4    4    0    0  0.31687082689E-01 -0.22164607606E-02 -0.12416308185E-01  0.34108792673E-01  0.51100000000E-03 0. -1.
         11    1    4    4    0    0  0.42155054622E-01 -0.10787706328E-01 -0.97013755289E-01  0.10632663389E+00  0.51100000000E-03 0.  1.
</event>
<event>
 8    1  0.2190295E+004  0.1043930E+01  0.7957747E-01            NaN
         13   -1    0    0    0    0  0.00000000000E+00  0.00000000000E+00  0.74505805969E-08  0.10566000000E+00  0.10566000000E+00 0.  1.
     999900   -1    0    0    0    0 -0.00000000000E+00 -0.00000000000E+00 -0.74505805969E-08  0.93827000000E+00  0.93827000000E+00 0.  1.
     999902    2    1    2    0    0  0.28122752155E-02 -0.12989018234E-01  0.61092776087E-03  0.10306259886E+01  0.10305401165E+01 0.  0.
     999903    2    3    3    0    0 -0.51312569084E-01 -0.16788451540E-01  0.12201620751E+00  0.14063544010E+00  0.44447050140E-01 0.  0.
         14    1    1    2    0    0 -0.28122752155E-02  0.12989018234E-01 -0.61092776087E-03  0.13304011399E-01  0.00000000000E+00 0.  1.
     999901    1    3    3    0    0  0.54124844300E-01  0.37994333065E-02 -0.12140527975E+00  0.88999054850E+00  0.88000000000E+00 0.  1.
        -11    1    4    4    0    0 -0.35801235277E-02 -0.19005611922E-01  0.55179026848E-01  0.58472358375E-01  0.51100000000E-03 0.  1.
         11    1    4    4    0    0 -0.47732445557E-01  0.22171603815E-02  0.66837180665E-01  0.82163081729E-01  0.51100000000E-03 0. -1.
</event>
<event>
 8    1  0.2190295E+004  0.1043930E+01  0.7957747E-01            NaN
         13   -1    0    0    0    0  0.00000000000E+00  0.00000000000E+00  0.74505805969E-08  0.10566000000E+00  0.10566000000E+00 0.  1.
     999900   -1    0    0    0    0 -0.00000000000E+00 -0.00000000000E+00 -0.74505805969E-08  0.93827000000E+00  0.93827000000E+00 0.  1.
     999902    2    1    2    0    0  0.87975016064E-02  0.78431183483E-02  0.83908780612E-02  0.10294621952E+01  0.10293605268E+01 0.  0.
     999903    2    3    3    0    0  0.96360880576E-01  0.32969915071E-01 -0.84998205304E-01  0.13984417488E+00  0.44263571241E-01 0.  0.
         14    1    1    2    0    0 -0.87975016064E-02 -0.78431183483E-02 -0.83908780612E-02  0.14467804760E-01  0.00000000000E+00 0. -1.
     999901    1    3    3    0    0 -0.87563378970E-01 -0.25126796723E-01  0.93389083365E-01  0.88961802036E+00  0.88000000000E+00 0. -1.
        -11    1    4    4    0    0  0.63123548058E-01  0.66626967423E-02 -0.70914955068E-01  0.95174396875E-01  0.51100000000E-03 0. -1.
         11    1    4    4    0    0  0.33237332518E-01  0.26307218329E-01 -0.14083250235E-01  0.44669778009E-01  0.51100000000E-03 0.  1.
</event>
<event>
 8    1  0.2190295E+004  0.1043930E+01  0.7957747E-01            NaN
         13   -1    0    0    0    0  0.00000000000E+00  0.00000000000E+00  0.74505805969E-08  0.10566000000E+00  0.10566000000E+00 0.  1.
     999900   -1    0    0    0    0 -0.00000000000E+00 -0.00000000000E+00 -0.74505805969E-08  0.93827000000E+00  0.93827000000E+00 0. -1.
     999902    2    1    2    0    0 -0.11767033938E-01 -0.32636635886E-02  0.67303706418E-02  0.10299868125E+01  0.10298924320E+01 0.  0.
     999903    2    3    3    0    0  0.10061737067E+00  0.16737193894E-01 -0.75180228994E-01  0.13884168685E+00  0.56753486549E-01 0.  0.
         14    1    1    2    0    0  0.11767033938E-01  0.32636635886E-02 -0.67303706418E-02  0.13943187465E-01  0.00000000000E+00 0.  1.
     999901    1    3    3    0    0 -0.11238440461E+00 -0.20000857482E-01  0.81910599635E-01  0.89114512568E+00  0.88000000000E+00 0.  1.
        -11    1    4    4    0    0  0.42906527540E-01 -0.20081927632E-01 -0.22428069293E-01  0.52416918415E-01  0.51100000000E-03 0. -1.
         11    1    4    4    0    0  0.57710843131E-01  0.36819121526E-01 -0.52752159701E-01  0.86424768434E-01  0.51100000000E-03 0.  1.
</event>
<event>
 8    1  0.2190295E+004  0.1043930E+01  0.7957747E-01            NaN
         13   -1    0    0    0    0  0.00000000000E+00  0.00000000000E+00  0.74505805969E-08  0.10566000000E+00  0.10566000000E+00 0. -1.
     999900   -1    0    0    0    0 -0.00000000000E+00 -0.00000000000E+00 -0.74505805969E-08  0.93827000000E+00  0.93827000000E+00 0.  1.
     999902    2    1    2    0    0  0.49108492720E-02 -0.10405350214E-01  0.93783988106E-02  0.10290860747E+01  0.10289790120E+01 0.  0.
     999903    2    3    3    0    0  0.54371976403E-01  0.11569687924E+00 -0.26642011364E-01  0.13799368595E+00  0.44613685205E-01 0.  0.
         14    1    1    2    0    0 -0.49108492720E-02  0.10405350214E-01 -0.93783988106E-02  0.14843925286E-01  0.00000000000E+00 0. -1.
     999901    1    3    3    0    0 -0.49461127131E-01 -0.12610222945E+00  0.36020410174E-01  0.89109238877E+00  0.88000000000E+00 0.  1.
        -11    1    4    4    0    0 -0.42968116092E-02  0.32910798815E-01 -0.44028280234E-03  0.33196961285E-01  0.51100000000E-03 0.  1.
         11    1    4    4    0    0  0.58668788012E-01  0.82786080426E-01 -0.26201728562E-01  0.10479672466E+00  0.51100000000E-03 0. -1.
</event>
<event>
 8    1  0.2190295E+004  0.1043930E+01  0.7957747E-01            NaN
         13   -1    0    0    0    0  0.00000000000E+00  0.00000000000E+00  0.74505805969E-08  0.10566000000E+00  0.10566000000E+00 0.  1.
     999900   -1    0    0    0    0 -0.00000000000E+00 -0.00000000000E+00 -0.74505805969E-08  0.93827000000E+00  0.93827000000E+00 0.  1.
     999902    2    1    2    0    0  0.99803541742E-02 -0.83085233003E-02 -0.72393025400E-02  0.10290623664E+01  0.10289549588E+01 0.  0.
     999903    2    3    3    0    0 -0.46477760450E-01 -0.15577603779E-01  0.12096110140E+00  0.13795311278E+00  0.44683658296E-01 0.  0.
         14    1    1    2    0    0 -0.99803541742E-02  0.83085233003E-02  0.72393025400E-02  0.14867633643E-01  0.00000000000E+00 0.  1.
     999901    1    3    3    0    0  0.56458114624E-01  0.72690804785E-02 -0.12820040394E+00  0.89110925358E+00  0.88000000000E+00 0. -1.
        -11    1    4    4    0    0 -0.45553783780E-01  0.25537743245E-03  0.62277138646E-01  0.77161619691E-01  0.51100000000E-03 0.  1.
         11    1    4    4    0    0 -0.92397666944E-03 -0.15832981211E-01  0.58683962752E-01  0.60791493091E-01  0.51100000000E-03 0. -1.
</event>
<event>
 8    1  0.2190295E+004  0.1043930E+01  0.7957747E-01            NaN
         13   -1    0    0    0    0  0.00000000000E+00  0.00000000000E+00  0.74505805969E-08  0.10566000000E+00  0.10566000000E+00 0.  1.
     999900   -1    0    0    0    0 -0.00000000000E+00 -0.00000000000E+00 -0.74505805969E-08  0.93827000000E+00  0.93827000000E+00 0.  1.
     999902    2    1    2    0    0 -0.78955162373E-02  0.96447429898E-02  0.11000269677E-01  0.10273057353E+01  0.10271712163E+01 0.  0.
     999903    2    3    3    0    0 -0.93498428507E-03 -0.12239513155E-01  0.13133368157E+00  0.13881966355E+00  0.43262954065E-01 0.  0.
         14    1    1    2    0    0  0.78955162373E-02 -0.96447429898E-02 -0.11000269677E-01  0.16624264704E-01  0.00000000000E+00 0. -1.
     999901    1    3    3    0    0 -0.69605319523E-02  0.21884256145E-01 -0.12033341189E+00  0.88848607175E+00  0.88000000000E+00 0.  1.
        -11    1    4    4    0    0  0.18626153043E-01  0.45238456538E-02  0.53548683602E-01  0.56878127546E-01  0.51100000000E-03 0. -1.
         11    1    4    4    0    0 -0.19561137328E-01 -0.16763358809E-01  0.77784997969E-01  0.81941536001E-01  0.51100000000E-03 0.  1.
</event>
<event>
 8    1  0.2190295E+004  0.1043930E+01  0.7957747E-01            NaN
         13   -1    0    0    0    0  0.00000000000E+00  0.00000000000E+00  0.74505805969E-08  0.10566000000E+00  0.10566000000E+00 0.  1.
     999900   -1    0    0    0    0 -0.00000000000E+00 -0.00000000000E+00 -0.74505805969E-08  0.93827000000E+00  0.93827000000E+00 0.  1.
     999902    2    1    2    0    0 -0.29164660757E-02  0.93476862504E-02  0.10491899141E-01  0.10295785206E+01  0.10294784918E+01 0.  0.
     999903    2    3    3    0    0 -0.47435733985E-01  0.12343308504E+00 -0.16800826492E-01  0.14067901207E+00  0.44971561298E-01 0.  0.
         14    1    1    2    0    0  0.29164660757E-02 -0.93476862504E-02 -0.10491899141E-01  0.14351479373E-01  0.00000000000E+00 0. -1.
     999901    1    3    3    0    0  0.44519267909E-01 -0.11408539879E+00  0.27292725633E-01  0.88889950855E+00  0.88000000000E+00 0.  1.
        -11    1    4    4    0    0 -0.28347755208E-01  0.36430206862E-01  0.10833663756E-01  0.47417133915E-01  0.51100000000E-03 0. -1.
         11    1    4    4    0    0 -0.19087978777E-01  0.87002878181E-01 -0.27634490248E-01  0.93261878159E-01  0.51100000000E-03 0.  1.
</event>
<event>
 8    1  0.2190295E+004  0.1043930E+01  0.7957747E-01            NaN
         13   -1    0    0    0    0  0.00000000000E+00  0.00000000000E+00  0.74505805969E-08  0.10566000000E+00  0.10566000000E+00 0.  1.
     999900   -1    0    0    0    0 -0.00000000000E+00 -0.00000000000E+00 -0.74505805969E-08  0.93827000000E+00  0.93827000000E+00 0.  1.
     999902    2    1    2    0    0 -0.32349440605E-03  0.33580865257E-02  0.13030822667E-01  0.10304695493E+01  0.10303816324E+01 0.  0.
     999903    2    3    3    0    0  0.22636489936E-01  0.85890511766E-01  0.10119120767E+00  0.14192522537E+00  0.44872245311E-01 0.  0.
         14    1    1    2    0    0  0.32349440605E-03 -0.33580865257E-02 -0.13030822667E-01  0.13460450703E-01  0.00000000000E+00 0. -1.
     999901    1    3    3    0    0 -0.22959984342E-01 -0.82532425240E-01 -0.88160385003E-01  0.88854432393E+00  0.88000000000E+00 0.  1.
        -11    1    4    4    0    0  0.16041791361E-01  0.68490742309E-02  0.70406572480E-02  0.18817036519E-01  0.51100000000E-03 0. -1.
         11    1    4    4    0    0  0.65946985751E-02  0.79041437535E-01  0.94150550421E-01  0.12310818885E+00  0.51100000000E-03 0.  1.
</event>
<event>
 8    1  0.2190295E+004  0.1043930E+01  0.7957747E-01            NaN
         13   -1    0    0    0    0  0.00000000000E+00  0.00000000000E+00  0.74505805969E-08  0.10566000000E+00  0.10566000000E+00 0. -1.
     999900   -1    0    0    0    0 -0.00000000000E+00 -0.00000000000E+00 -0.74505805969E-08  0.93827000000E+00  0.93827000000E+00 0. -1.
     999902    2    1    2    0    0 -0.11075024812E-01  0.85302969967E-02  0.75337946472E-03  0.10299303671E+01  0.10298352156E+01 0.  0.
     999903    2    3    3    0    0 -0.31953793667E-01 -0.12782287233E+00  0.45274519521E-02  0.13917655518E+00  0.44608116667E-01 0.  0.
         14    1    1    2    0    0  0.11075024812E-01 -0.85302969967E-02 -0.75337946472E-03  0.13999632926E-01  0.00000000000E+00 0. -1.
     999901    1    3    3    0    0  0.20878768855E-01  0.13635316932E+00 -0.37740724873E-02  0.89075381189E+00  0.88000000000E+00 0. -1.
        -11    1    4    4    0    0 -0.98912302230E-02 -0.97626434315E-01 -0.10874506654E-01  0.98728279274E-01  0.51100000000E-03 0.  1.
         11    1    4    4    0    0 -0.22062563444E-01 -0.30196438011E-01  0.15401958606E-01  0.40448275911E-01  0.51100000000E-03 0. -1.
</event>
<event>
 8    1  0.2190295E+004  0.1043930E+01  0.7957747E-01            NaN
         13   -1    0    0    0    0  0.00000000000E+00  0.00000000000E+00  0.74505805969E-08  0.10566000000E+00  0.10566000000E+00 0.  1.
     999900   -1    0    0    0    0 -0.00000000000E+00 -0.00000000000E+00 -0.74505805969E-08  0.93827000000E+00  0.93827000000E+00 0.  1.
     999902    2    1    2    0    0 -0.66009245012E-02  0.98578557153E-04  0.12279678444E-01  0.10299882489E+01  0.10298938879E+01 0.  0.
     999903    2    3    3    0    0 -0.11817472322E+00  0.15860853126E-01 -0.58336683747E-01  0.13999733179E+00  0.44488789261E-01 0.  0.
         14    1    1    2    0    0  0.66009245012E-02 -0.98578557153E-04 -0.12279678444E-01  0.13941751135E-01  0.00000000000E+00 0. -1.
     999901    1    3    3    0    0  0.11157379872E+00 -0.15762274569E-01  0.70616362191E-01  0.88999091707E+00  0.88000000000E+00 0. -1.
        -11    1    4    4    0    0 -0.74946703598E-02 -0.14046742218E-02 -0.20308208876E-01  0.21698563598E-01  0.51100000000E-03 0.  1.
         11    1    4    4    0    0 -0.11068005286E+00  0.17265527348E-01 -0.38028474871E-01  0.11829876820E+00  0.51100000000E-03 0. -1.
</event>
<event>
 8    1  0.2190295E+004  0.1043930E+01  0.7957747E-01            NaN
         13   -1    0    0    0    0  0.00000000000E+00  0.00000000000E+00  0.74505805969E-08  0.10566000000E+00  0.10566000000E+00 0. -1.
     999900   -1    0    0    0    0 -0.00000000000E+00 -0.00000000000E+00 -0.74505805969E-08  0.93827000000E+00  0.93827000000E+00 0.  1.
     999902    2    1    2    0    0 -0.13526020142E-01  0.32799502409E-02 -0.16435956600E-02  0.10299152684E+01  0.10298199102E+01 0.  0.
     999903    2    3    3    0    0 -0.10560325707E-01  0.14563189245E-01  0.13114029775E+00  0.13987725284E+00  0.45213506933E-01 0.  0.
         14    1    1    2    0    0  0.13526020142E-01 -0.32799502409E-02  0.16435956600E-02  0.14014731577E-01  0.00000000000E+00 0. -1.
     999901    1    3    3    0    0 -0.29656944353E-02 -0.11283239004E-01 -0.13278389341E+00  0.89003801558E+00  0.88000000000E+00 0.  1.
        -11    1    4    4    0    0 -0.25626026760E-01  0.29697201647E-03  0.50816479545E-01  0.56915350778E-01  0.51100000000E-03 0.  1.
         11    1    4    4    0    0  0.15065701053E-01  0.14266217229E-01  0.80323818206E-01  0.82961902066E-01  0.51100000000E-03 0. -1.
</event>
<event>
 8    1  0.2190295E+004  0.1043930E+01  0.7957747E-01            NaN
         13   -1    0    0    0    0  0.00000000000E+00  0.00000000000E+00  0.74505805969E-08  0.10566000000E+00  0.10566000000E+00 0.  1.
     999900   -1    0    0    0    0 -0.00000000000E+00 -0.00000000000E+00 -0.74505805969E-08  0.93827000000E+00  0.93827000000E+00 0. -1.
     999902    2    1    2    0    0 -0.11339665995E-01 -0.35831675201E-02 -0.39500400783E-02  0.10313988416E+01  0.10313227140E+01 0.  0.
     999903    2    3    3    0    0  0.12275971495E+00  0.46653182872E-01 -0.22704952604E-01  0.13962640335E+00  0.41635928614E-01 0.  0.
         14    1    1    2    0    0  0.11339665995E-01  0.35831675201E-02  0.39500400783E-02  0.12531158405E-01  0.00000000000E+00 0.  1.
     999901    1    3    3    0    0 -0.13409938095E+00 -0.50236350392E-01  0.18754912526E-01  0.89177243825E+00  0.88000000000E+00 0. -1.
        -11    1    4    4    0    0  0.35552435933E-01  0.22215340198E-01 -0.25397545686E-01  0.49018297490E-01  0.51100000000E-03 0. -1.
         11    1    4    4    0    0  0.87207279021E-01  0.24437842674E-01  0.26925930820E-02  0.90608105859E-01  0.51100000000E-03 0.  1.
</event>
<event>
 8    1  0.2190295E+004  0.1043930E+01  0.7957747E-01            NaN
         13   -1    0    0    0    0  0.00000000000E+00  0.00000000000E+00  0.74505805969E-08  0.10566000000E+00  0.10566000000E+00 0. -1.
     999900   -1    0    0    0    0 -0.00000000000E+00 -0.00000000000E+00 -0.74505805969E-08  0.93827000000E+00  0.93827000000E+00 0.  1.
     999902    2    1    2    0    0  0.98723310469E-02 -0.45371971883E-02  0.98639171014E-02  0.10292553300E+01  0.10291507122E+01 0.  0.
     999903    2    3    3    0    0 -0.12541336611E+00 -0.36705167295E-01  0.72873081804E-02  0.13833241692E+00  0.44799229981E-01 0.  0.
         14    1    1    2    0    0 -0.98723310469E-02  0.45371971883E-02 -0.98639171014E-02  0.14674669986E-01  0.00000000000E+00 0.  1.
     999901    1    3    3    0    0  0.13528569715E+00  0.32167970107E-01  0.25766089210E-02  0.89092291309E+00  0.88000000000E+00 0. -1.
        -11    1    4    4    0    0 -0.31056878998E-01  0.97823896669E-02  0.61362482186E-02  0.33138188603E-01  0.51100000000E-03 0.  1.
         11    1    4    4    0    0 -0.94356487109E-01 -0.46487556962E-01  0.11510599618E-02  0.10519422832E+00  0.51100000000E-03 0. -1.
</event>
<event>
 8    1  0.2190295E+004  0.1043930E+01  0.7957747E-01            NaN
         13   -1    0    0    0    0  0.00000000000E+00  0.00000000000E+00  0.74505805969E-08  0.10566000000E+00  0.10566000000E+00 0. -1.
     999900   -1    0    0    0    0 -0.00000000000E+00 -0.00000000000E+00 -0.74505805969E-08  0.93827000000E+00  0.93827000000E+00 0. -1.
     999902    2    1    2    0    0 -0.51883369207E-02  0.84053157438E-02  0.87020467515E-02  0.10307658901E+01  0.10306818259E+01 0.  0.
     999903    2    3    3    0    0  0.11773878890E+00  0.59927244265E-01  0.18723535670E-01  0.14067262662E+00  0.44547952561E-01 0.  0.
         14    1    1    2    0    0  0.51883369207E-02 -0.84053157438E-02 -0.87020467515E-02  0.13164109937E-01  0.00000000000E+00 0.  1.
     999901    1    3    3    0    0 -0.12292712582E+00 -0.51521928521E-01 -0.10021488918E-01  0.89009326344E+00  0.88000000000E+00 0.  1.
        -11    1    4    4    0    0  0.10402004038E+00  0.32994257156E-01  0.12921874240E-01  0.10989097216E+00  0.51100000000E-03 0.  1.
         11    1    4    4    0    0  0.13718748512E-01  0.26932987109E-01  0.58016614300E-02  0.30781654466E-01  0.51100000000E-03 0. -1.
</event>
<event>
 8    1  0.2190295E+004  0.1043930E+01  0.7957747E-01            NaN
         13   -1    0    0    0    0  0.00000000000E+00  0.00000000000E+00  0.74505805969E-08  0.10566000000E+00  0.10566000000E+00 0.  1.
     999900   -1    0    0    0    0 -0.00000000000E+00 -0.00000000000E+00 -0.74505805969E-08  0.93827000000E+00  0.93827000000E+00 0. -1.
     999902    2    1    2    0    0 -0.12495021311E-01 -0.26551427865E-02  0.40341002791E-02  0.10305341310E+01  0.10304470612E+01 0.  0.
     999903    2    3    3    0    0  0.14791681786E-02  0.10164805848E+00  0.85527632518E-01  0.14052534928E+00  0.45802643318E-01 0.  0.
         14    1    1    2    0    0  0.12495021311E-01  0.26551427865E-02 -0.40341002791E-02  0.13395868984E-01  0.00000000000E+00 0. -1.
     999901    1    3    3    0    0 -0.13974189490E-01 -0.10430320127E+00 -0.81493532239E-01  0.89000878173E+00  0.88000000000E+00 0. -1.
        -11    1    4    4    0    0  0.12190980347E-01  0.89392060759E-01  0.85414585635E-01  0.12423957940E+00  0.51100000000E-03 0.  1.
         11    1    4    4    0    0 -0.10711812169E-01  0.12255997724E-01  0.11304688241E-03  0.16285769885E-01  0.51100000000E-03 0. -1.
</event>
<event>
 8    1  0.2190295E+004  0.1043930E+01  0.7957747E-01            NaN
         13   -1    0    0    0    0  0.00000000000E+00  0.00000000000E+00  0.74505805969E-08  0.10566000000E+00  0.10566000000E+00 0. -1.
     999900   -1    0    0    0    0 -0.00000000000E+00 -0.00000000000E+00 -0.74505805969E-08  0.93827000000E+00  0.93827000000E+00 0. -1.
     999902    2    1    2    0    0  0.11763150755E-01  0.74697803427E-02 -0.14978688622E-02  0.10299152597E+01  0.10298199014E+01 0.  0.
     999903    2    3    3    0    0 -0.51588409179E-01  0.68391408471E-01 -0.10095942171E+00  0.13996162867E+00  0.45361921837E-01 0.  0.
         14    1    1    2    0    0 -0.11763150755E-01 -0.74697803427E-02  0.14978688622E-02  0.14014740283E-01  0.00000000000E+00 0.  1.
     999901    1    3    3    0    0  0.63351559934E-01 -0.60921628128E-01  0.99461552852E-01  0.88995363105E+00  0.88000000000E+00 0.  1.
        -11    1    4    4    0    0 -0.32602558247E-01  0.42829153104E-01 -0.28713036740E-01  0.61007890963E-01  0.51100000000E-03 0. -1.
         11    1    4    4    0    0 -0.18985850931E-01  0.25562255366E-01 -0.72246384974E-01  0.78953737707E-01  0.51100000000E-03 0.  1.
</event>
<event>
 8    1  0.2190295E+004  0.1043930E+01  0.7957747E-01            NaN
         13   -1    0    0    0    0  0.00000000000E+00  0.00000000000E+00  0.74505805969E-08  0.10566000000E+00  0.10566000000E+00 0.  1.
     999900   -1    0    0    0    0 -0.00000000000E+00 -0.00000000000E+00 -0.74505805969E-08  0.93827000000E+00  0.93827000000E+00 0.  1.
     999902    2    1    2    0    0 -0.13638514962E-01  0.20991038639E-02  0.22417210702E-02  0.10299499914E+01  0.10298551083E+01 0.  0.
     999903    2    3    3    0    0  0.12360739843E+00  0.32054085926E-01 -0.28569349859E-01  0.13827568774E+00  0.44695689925E-01 0.  0.
         14    1    1    2    0    0  0.13638514962E-01 -0.20991038639E-02 -0.22417210702E-02  0.13980008611E-01  0.00000000000E+00 0. -1.
     999901    1    3    3    0    0 -0.13724591339E+00 -0.29954982062E-01  0.30811070929E-01  0.89167430365E+00  0.88000000000E+00 0. -1.
        -11    1    4    4    0    0  0.55104820276E-01  0.22488798188E-01 -0.34597771478E-01  0.68844420063E-01  0.51100000000E-03 0. -1.
         11    1    4    4    0    0  0.68502578154E-01  0.95652877383E-02  0.60284216184E-02  0.69431267679E-01  0.51100000000E-03 0.  1.
</event>
<event>
 8    1  0.2190295E+004  0.1043930E+01  0.7957747E-01            NaN
         13   -1    0    0    0    0  0.00000000000E+00  0.00000000000E+00  0.74505805969E-08  0.10566000000E+00  0.10566000000E+00 0. -1.
     999900   -1    0    0    0    0 -0.00000000000E+00 -0.00000000000E+00 -0.74505805969E-08  0.93827000000E+00  0.93827000000E+00 0. -1.
     999902    2    1    2    0    0  0.26840682479E-03 -0.14418708397E-01  0.19260305804E-03  0.10295075075E+01  0.10294064793E+01 0.  0.
     999903    2    3    3    0    0  0.17050619589E-01 -0.98452465075E-02 -0.13070613265E+00  0.13965525109E+00  0.45075975179E-01 0.  0.
         14    1    1    2    0    0 -0.26840682479E-03  0.14418708397E-01 -0.19260305804E-03  0.14422492503E-01  0.00000000000E+00 0.  1.
     999901    1    3    3    0    0 -0.16782212764E-01 -0.45734618898E-02  0.13089873571E+00  0.88985225640E+00  0.88000000000E+00 0.  1.
        -11    1    4    4    0    0  0.23701706460E-01  0.76256906070E-03 -0.12226944875E+00  0.12454891256E+00  0.51100000000E-03 0. -1.
         11    1    4    4    0    0 -0.66510868708E-02 -0.10607815568E-01 -0.84366838981E-02  0.15106338533E-01  0.51100000000E-03 0.  1.
</event>
<event>
 8    1  0.2190295E+004  0.1043930E+01  0.7957747E-01            NaN
         13   -1    0    0    0    0  0.00000000000E+00  0.00000000000E+00  0.74505805969E-08  0.10566000000E+00  0.10566000000E+00 0.  1.
     999900   -1    0    0    0    0 -0.00000000000E+00 -0.00000000000E+00 -0.74505805969E-08  0.93827000000E+00  0.93827000000E+00 0. -1.
     999902    2    1    2    0    0 -0.12616586396E-01 -0.13878949309E-02 -0.48103778459E-02  0.10303563402E+01  0.10302669283E+01 0.  0.
     999903    2    3    3    0    0 -0.81806750830E-01 -0.10028399671E+00 -0.35594629792E-01  0.14158449776E+00  0.45055164600E-01 0.  0.
         14    1    1    2    0    0  0.12616586396E-01  0.13878949309E-02  0.48103778459E-02  0.13573659773E-01  0.00000000000E+00 0.  1.
     999901    1    3    3    0    0  0.69190164434E-01  0.98896101780E-01  0.30784251946E-01  0.88877184247E+00  0.88000000000E+00 0.  1.
        -11    1    4    4    0    0 -0.68292405243E-01 -0.49790843202E-01 -0.17851777473E-01  0.86382450536E-01  0.51100000000E-03 0. -1.
         11    1    4    4    0    0 -0.13514345587E-01 -0.50493153508E-01 -0.17742852318E-01  0.55202047220E-01  0.51100000000E-03 0.  1.
</event>
<event>
 8    1  0.2190295E+004  0.1043930E+01  0.7957747E-01            NaN
         13   -1    0    0    0    0  0.00000000000E+00  0.00000000000E+00  0.74505805969E-08  0.10566000000E+00  0.10566000000E+00 0.  1.
     999900   -1    0    0    0    0 -0.00000000000E+00 -0.00000000000E+00 -0.74505805969E-08  0.93827000000E+00  0.93827000000E+00 0. -1.
     999902    2    1    2    0    0  0.10333432621E-01 -0.15160647231E-01 -0.38168628040E-02  0.10251898427E+01  0.10250185462E+01 0.  0.
     999903    2    3    3    0    0 -0.10455267691E+00  0.56995376072E-01  0.40291022855E-01  0.13370186440E+00  0.45531163834E-01 0.  0.
         14    1    1    2    0    0 -0.10333432621E-01  0.15160647231E-01  0.38168628040E-02  0.18740157306E-01  0.00000000000E+00 0.  1.
     999901    1    3    3    0    0  0.11488610953E+00 -0.72156023303E-01 -0.44107885659E-01  0.89148797829E+00  0.88000000000E+00 0. -1.
        -11    1    4    4    0    0 -0.80895676720E-01  0.24937893786E-01  0.40531084918E-01  0.93856480991E-01  0.51100000000E-03 0.  1.
         11    1    4    4    0    0 -0.23657000187E-01  0.32057482286E-01 -0.24006206337E-03  0.39845383411E-01  0.51100000000E-03 0. -1.
</event>
<event>
 8    1  0.2190295E+004  0.1043930E+01  0.7957747E-01            NaN
         13   -1    0    0    0    0  0.00000000000E+00  0.00000000000E+00  0.74505805969E-08  0.10566000000E+00  0.10566000000E+00 0. -1.
     999900   -1    0    0    0    0 -0.00000000000E+00 -0.00000000000E+00 -0.74505805969E-08  0.93827000000E+00  0.93827000000E+00 0.  1.
     999902    2    1    2    0    0  0.34718848415E-02  0.10885728028E-01 -0.97565885639E-02  0.10289052178E+01  0.10287955109E+01 0.  0.
     999903    2    3    3    0    0 -0.95806776009E-01 -0.38737896313E-01 -0.81703669439E-01  0.13902031569E+00  0.44402653477E-01 0.  0.
         14    1    1    2    0    0 -0.34718848415E-02 -0.10885728028E-01  0.97565885639E-02  0.15024782177E-01  0.00000000000E+00 0. -1.
     999901    1    3    3    0    0  0.99278660850E-01  0.49623624340E-01  0.71947080875E-01  0.88988490213E+00  0.88000000000E+00 0. -1.
        -11    1    4    4    0    0 -0.52419922189E-01 -0.67179459348E-02 -0.18633787356E-01  0.56039791150E-01  0.51100000000E-03 0.  1.
         11    1    4    4    0    0 -0.43386853820E-01 -0.32019950378E-01 -0.63069882083E-01  0.82980524543E-01  0.51100000000E-03 0. -1.
</event>
<event>
 8    1  0.2190295E+004  0.1043930E+01  0.7957747E-01            NaN
         13   -1    0    0    0    0  0.00000000000E+00  0.00000000000E+00  0.74505805969E-08  0.10566000000E+00  0.10566000000E+00 0. -1.
     999900   -1    0    0    0    0 -0.00000000000E+00 -0.00000000000E+00 -0.74505805969E-08  0.93827000000E+00  0.93827000000E+00 0. -1.
     999902    2    1    2    0    0  0.10168931882E-01 -0.69712464526E-02  0.11828386970E-02  0.10315443405E+01  0.10314699811E+01 0.  0.
     999903    2    3    3    0    0 -0.62614385020E-01 -0.59508516589E-01  0.10221972433E+00  0.14122640395E+00  0.45102110506E-01 0.  0.
         14    1    1    2    0    0 -0.10168931882E-01  0.69712464526E-02 -0.11828386970E-02  0.12385659454E-01  0.00000000000E+00 0.  1.
     999901    1    3    3    0    0  0.72783316902E-01  0.52537270137E-01 -0.10103688563E+00  0.89031793660E+00  0.88000000000E+00 0. -1.
        -11    1    4    4    0    0 -0.10000419459E-01 -0.37476759919E-01  0.54264823991E-01  0.66704184030E-01  0.51100000000E-03 0.  1.
         11    1    4    4    0    0 -0.52613965561E-01 -0.22031756671E-01  0.47954900336E-01  0.74522219917E-01  0.51100000000E-03 0. -1.
</event>
<event>
 8    1  0.2190295E+004  0.1043930E+01  0.7957747E-01            NaN
         13   -1    0    0    0    0  0.00000000000E+00  0.00000000000E+00  0.74505805969E-08  0.10566000000E+00  0.10566000000E+00 0.  1.
     999900   -1    0    0    0    0 -0.00000000000E+00 -0.00000000000E+00 -0.74505805969E-08  0.93827000000E+00  0.93827000000E+00 0. -1.
     999902    2    1    2    0    0  0.61223369129E-02 -0.39372187914E-02 -0.11972694109E-01  0.10299182155E+01  0.10298228976E+01 0.  0.
     999903    2    3    3    0    0  0.39563202824E-01 -0.56672606174E-01 -0.11489617252E+00  0.14172197872E+00  0.45901606552E-01 0.  0.
         14    1    1    2    0    0 -0.61223369129E-02  0.39372187914E-02  0.11972694109E-01  0.14011784515E-01  0.00000000000E+00 0.  1.
     999901    1    3    3    0    0 -0.33440865911E-01  0.52735387383E-01  0.10292347841E+00  0.88819623677E+00  0.88000000000E+00 0. -1.
        -11    1    4    4    0    0  0.11742114998E-01 -0.52644067341E-01 -0.85098746930E-01  0.10075382346E+00  0.51100000000E-03 0. -1.
         11    1    4    4    0    0  0.27821087825E-01 -0.40285388332E-02 -0.29797425590E-01  0.40968155264E-01  0.51100000000E-03 0.  1.
</event>
<event>
 8    1  0.2190295E+004  0.1043930E+01  0.7957747E-01            NaN
         13   -1    0    0    0    0  0.00000000000E+00  0.00000000000E+00  0.74505805969E-08  0.10566000000E+00  0.10566000000E+00 0. -1.
     999900   -1    0    0    0    0 -0.00000000000E+00 -0.00000000000E+00 -0.74505805969E-08  0.93827000000E+00  0.93827000000E+00 0. -1.
     999902    2    1    2    0    0  0.81086020823E-02  0.11500566692E-01  0.18291162099E-02  0.10297399285E+01  0.10296421525E+01 0.  0.
     999903    2    3    3    0    0 -0.57366737330E-01 -0.11132161465E+00 -0.36658052335E-01  0.13797001963E+00  0.44815946656E-01 0.  0.
         14    1    1    2    0    0 -0.81086020823E-02 -0.11500566692E-01 -0.18291162099E-02  0.14190071461E-01  0.00000000000E+00 0.  1.
     999901    1    3    3    0    0  0.65475339412E-01  0.12282218134E+00  0.38487168545E-01  0.89176990891E+00  0.88000000000E+00 0. -1.
        -11    1    4    4    0    0 -0.16332384418E-01 -0.33191225918E-01  0.97514180890E-02  0.38259058201E-01  0.51100000000E-03 0. -1.
         11    1    4    4    0    0 -0.41034352912E-01 -0.78130388731E-01 -0.46409470424E-01  0.99710961424E-01  0.51100000000E-03 0.  1.
</event>
<event>
 8    1  0.2190295E+004  0.1043930E+01  0.7957747E-01            NaN
         13   -1    0    0    0    0  0.00000000000E+00  0.00000000000E+00  0.74505805969E-08  0.10566000000E+00  0.10566000000E+00 0. -1.
     999900   -1    0    0    0    0 -0.00000000000E+00 -0.00000000000E+00 -0.74505805969E-08  0.93827000000E+00  0.93827000000E+00 0.  1.
     999902    2    1    2    0    0 -0.36314558264E-02 -0.12775572929E-01 -0.90768147217E-03  0.10306173511E+01  0.10305313667E+01 0.  0.
     999903    2    3    3    0    0 -0.22682165324E-01  0.87286253430E-01 -0.97117143455E-01  0.13953286622E+00  0.43638406706E-01 0.  0.
         14    1    1    2    0    0  0.36314558264E-02  0.12775572929E-01  0.90768147217E-03  0.13312648900E-01  0.00000000000E+00 0.  1.
     999901    1    3    3    0    0  0.19050709498E-01 -0.10006182636E+00  0.96209461983E-01  0.89108448488E+00  0.88000000000E+00 0. -1.
        -11    1    4    4    0    0 -0.19573778147E-01  0.74718922195E-01 -0.53316134561E-01  0.93855854642E-01  0.51100000000E-03 0. -1.
         11    1    4    4    0    0 -0.31083871773E-02  0.12567331235E-01 -0.43801008894E-01  0.45677011574E-01  0.51100000000E-03 0.  1.
</event>
<event>
 8    1  0.2190295E+004  0.1043930E+01  0.7957747E-01            NaN
         13   -1    0    0    0    0  0.00000000000E+00  0.00000000000E+00  0.74505805969E-08  0.10566000000E+00  0.10566000000E+00 0. -1.
     999900   -1    0    0    0    0 -0.00000000000E+00 -0.00000000000E+00 -0.74505805969E-08  0.93827000000E+00  0.93827000000E+00 0.  1.
     999902    2    1    2    0    0  0.82596926909E-02 -0.11976769685E-02 -0.13194214269E-01  0.10283176894E+01  0.10281991665E+01 0.  0.
     999903    2    3    3    0    0  0.11845103947E+00  0.41627788056E-01 -0.41266723810E-01  0.13996853550E+00  0.46094760503E-01 0.  0.
         14    1    1    2    0    0 -0.82596926909E-02  0.11976769685E-02  0.13194214269E-01  0.15612310644E-01  0.00000000000E+00 0. -1.
     999901    1    3    3    0    0 -0.11019134678E+00 -0.42825465024E-01  0.28072509541E-01  0.88834915385E+00  0.88000000000E+00 0.  1.
        -11    1    4    4    0    0  0.82399839320E-01  0.42981414626E-01 -0.12398888234E-01  0.93761021078E-01  0.51100000000E-03 0.  1.
         11    1    4    4    0    0  0.36051200154E-01 -0.13536265704E-02 -0.28867835575E-01  0.46207514424E-01  0.51100000000E-03 0. -1.
</event>
<event>
 8    1  0.2190295E+004  0.1043930E+01  0.7957747E-01            NaN
         13   -1    0    0    0    0  0.00000000000E+00  0.00000000000E+00  0.74505805969E-08  0.10566000000E+00  0.10566000000E+00 0. -1.
     999900   -1    0    0    0    0 -0.00000000000E+00 -0.00000000000E+00 -0.74505805969E-08  0.93827000000E+00  0.93827000000E+00 0.  1.
     999902    2    1    2    0    0  0.87550903981E-02  0.10428587158E-01 -0.30869967461E-02  0.10299680307E+01  0.10298733940E+01 0.  0.
     999903    2    3    3    0    0 -0.62220552549E-01 -0.10925625471E+00 -0.36270284782E-01  0.13841705971E+00  0.45115656999E-01 0.  0.
         14    1    1    2    0    0 -0.87550903981E-02 -0.10428587158E-01  0.30869967461E-02  0.13961969306E-01  0.00000000000E+00 0. -1.
     999901    1    3    3    0    0  0.70975642947E-01  0.11968484187E+00  0.33183288036E-01  0.89155097099E+00  0.88000000000E+00 0. -1.
        -11    1    4    4    0    0 -0.49076345078E-01 -0.58025329789E-01 -0.32582176650E-02  0.76067756945E-01  0.51100000000E-03 0. -1.
         11    1    4    4    0    0 -0.13144207471E-01 -0.51230924922E-01 -0.33012067117E-01  0.62349302760E-01  0.51100000000E-03 0.  1.
</event>
<event>
 8    1  0.2747808E+004  0.1043930E+01  0.7957747E-01            NaN
         13   -1    0    0    0    0  0.00000000000E+00  0.00000000000E+00  0.74505805969E-08  0.10566000000E+00  0.10566000000E+00 0. -1.
     999900   -1    0    0    0    0 -0.00000000000E+00 -0.00000000000E+00 -0.74505805969E-08  0.93827000000E+00  0.93827000000E+00 0. -1.
     999902    2    1    2    0    0 -0.37994929406E-02  0.18119621630E-01 -0.32856385428E-03  0.10254133915E+01  0.10252461942E+01 0.  0.
     999903    2    3    3    0    0  0.22310877310E-02 -0.94260970454E-01  0.84379315629E-01  0.13421128751E+00  0.44751452335E-01 0.  0.
         14    1    1    2    0    0  0.37994929406E-02 -0.18119621630E-01  0.32856385428E-03  0.18516608459E-01  0.00000000000E+00 0.  1.
     999901    1    3    3    0    0 -0.60305806716E-02  0.11238059208E+00 -0.84707879483E-01  0.89120210403E+00  0.88000000000E+00 0. -1.
        -11    1    4    4    0    0 -0.14548045112E-01 -0.35322113713E-01  0.53077515863E-01  0.65397103490E-01  0.51100000000E-03 0.  1.
         11    1    4    4    0    0  0.16779132843E-01 -0.58938856742E-01  0.31301799765E-01  0.68814184021E-01  0.51100000000E-03 0. -1.
</event>
<event>
 8    1  0.2190295E+004  0.1043930E+01  0.7957747E-01            NaN
         13   -1    0    0    0    0  0.00000000000E+00  0.00000000000E+00  0.74505805969E-08  0.10566000000E+00  0.10566000000E+00 0. -1.
     999900   -1    0    0    0    0 -0.00000000000E+00 -0.00000000000E+00 -0.74505805969E-08  0.93827000000E+00  0.93827000000E+00 0.  1.
     999902    2    1    2    0    0  0.12269970543E-01 -0.75184399521E-02 -0.26584501752E-02  0.10292962556E+01  0.10291922247E+01 0.  0.
     999903    2    3    3    0    0 -0.56446691349E-01  0.10200534231E+00  0.57724130115E-01  0.13780116620E+00  0.45450713792E-01 0.  0.
         14    1    1    2    0    0 -0.12269970543E-01  0.75184399521E-02  0.26584501752E-02  0.14633744352E-01  0.00000000000E+00 0. -1.
     999901    1    3    3    0    0  0.68716661892E-01 -0.10952378227E+00 -0.60382580290E-01  0.89149508945E+00  0.88000000000E+00 0.  1.
        -11    1    4    4    0    0 -0.29833626336E-01  0.68726009018E-01  0.13032717310E-01  0.76048816016E-01  0.51100000000E-03 0. -1.
         11    1    4    4    0    0 -0.26613065013E-01  0.33279333296E-01  0.44691412805E-01  0.61752350186E-01  0.51100000000E-03 0.  1.
</event>
<event>
 8    1  0.2190295E+004  0.1043930E+01  0.7957747E-01            NaN
         13   -1    0    0    0    0  0.00000000000E+00  0.00000000000E+00  0.74505805969E-08  0.10566000000E+00  0.10566000000E+00 0.  1.
     999900   -1    0    0    0    0 -0.00000000000E+00 -0.00000000000E+00 -0.74505805969E-08  0.93827000000E+00  0.93827000000E+00 0. -1.
     999902    2    1    2    0    0  0.67112320362E-02  0.17501074809E-02 -0.10734263696E-01  0.10311500184E+01  0.10310708184E+01 0.  0.
     999903    2    3    3    0    0 -0.72859940034E-01  0.11165903431E+00 -0.33125857662E-02  0.14071943444E+00  0.44885133388E-01 0.  0.
         14    1    1    2    0    0 -0.67112320362E-02 -0.17501074809E-02  0.10734263696E-01  0.12779981562E-01  0.00000000000E+00 0.  1.
     999901    1    3    3    0    0  0.79571172070E-01 -0.10990892683E+00 -0.74216779297E-02  0.89043058400E+00  0.88000000000E+00 0. -1.
        -11    1    4    4    0    0 -0.28111806845E-01  0.29760790423E-01  0.18420751723E-01  0.44895028073E-01  0.51100000000E-03 0.  1.
         11    1    4    4    0    0 -0.44748133189E-01  0.81898243886E-01 -0.21733337489E-01  0.95824406364E-01  0.51100000000E-03 0. -1.
</event>
<event>
 8    1  0.2190295E+004  0.1043930E+01  0.7957747E-01            NaN
         13   -1    0    0    0    0  0.00000000000E+00  0.00000000000E+00  0.74505805969E-08  0.10566000000E+00  0.10566000000E+00 0.  1.
     999900   -1    0    0    0    0 -0.00000000000E+00 -0.00000000000E+00 -0.74505805969E-08  0.93827000000E+00  0.93827000000E+00 0.  1.
     999902    2    1    2    0    0 -0.10875177279E-01  0.26596913977E-02  0.72926484724E-02  0.10305686318E+01  0.10304820128E+01 0.  0.
     999903    2    3    3    0    0  0.56169647912E-01 -0.10048635052E+00  0.66405678606E-01  0.14004717505E+00  0.44169685322E-01 0.  0.
         14    1    1    2    0    0  0.10875177279E-01 -0.26596913977E-02 -0.72926484724E-02  0.13361368228E-01  0.00000000000E+00 0. -1.
     999901    1    3    3    0    0 -0.67044825191E-01  0.10314604192E+00 -0.59113030133E-01  0.89052145672E+00  0.88000000000E+00 0. -1.
        -11    1    4    4    0    0  0.28971129065E-01 -0.16828484766E-01  0.79862336719E-02  0.34446556694E-01  0.51100000000E-03 0. -1.
         11    1    4    4    0    0  0.27198518847E-01 -0.83657865755E-01  0.58419444934E-01  0.10560061836E+00  0.51100000000E-03 0.  1.
</event>
<event>
 8    1  0.2190295E+004  0.1043930E+01  0.7957747E-01            NaN
         13   -1    0    0    0    0  0.00000000000E+00  0.00000000000E+00  0.74505805969E-08  0.10566000000E+00  0.10566000000E+00 0. -1.
     999900   -1    0    0    0    0 -0.00000000000E+00 -0.00000000000E+00 -0.74505805969E-08  0.93827000000E+00  0.93827000000E+00 0.  1.
     999902    2    1    2    0    0 -0.59644523980E-02 -0.91369172400E-02 -0.83105480393E-02  0.10302142004E+01  0.10301228935E+01 0.  0.
     999903    2    3    3    0    0  0.30392534665E-01 -0.13787038711E-01  0.12718366321E+00  0.13909011512E+00  0.45349612304E-01 0.  0.
         14    1    1    2    0    0  0.59644523980E-02  0.91369172400E-02  0.83105480393E-02  0.13715799567E-01  0.00000000000E+00 0.  1.
     999901    1    3    3    0    0 -0.36356987063E-01  0.46501214705E-02 -0.13549421125E+00  0.89112408531E+00  0.88000000000E+00 0.  1.
        -11    1    4    4    0    0 -0.66219637718E-02 -0.97631624313E-02  0.69058209399E-01  0.70060453547E-01  0.51100000000E-03 0.  1.
         11    1    4    4    0    0  0.37014498437E-01 -0.40238762792E-02  0.58125453816E-01  0.69029661575E-01  0.51100000000E-03 0. -1.
</event>
<event>
 8    1  0.2190295E+004  0.1043930E+01  0.7957747E-01            NaN
         13   -1    0    0    0    0  0.00000000000E+00  0.00000000000E+00  0.74505805969E-08  0.10566000000E+00  0.10566000000E+00 0.  1.
     999900   -1    0    0    0    0 -0.00000000000E+00 -0.00000000000E+00 -0.74505805969E-08  0.93827000000E+00  0.93827000000E+00 0. -1.
     999902    2    1    2    0    0  0.47025973371E-02  0.96738258628E-02 -0.45635101894E-02  0.10322456963E+01  0.10321795650E+01 0.  0.
     999903    2    3    3    0    0 -0.54632736977E-01 -0.11253917446E+00  0.45968671860E-01  0.14038797175E+00  0.44111926752E-01 0.  0.
         14    1    1    2    0    0 -0.47025973371E-02 -0.96738258628E-02  0.45635101894E-02  0.11684303736E-01  0.00000000000E+00 0.  1.
     999901    1    3    3    0    0  0.59335334314E-01  0.12221300033E+00 -0.50532182049E-01  0.89185772451E+00  0.88000000000E+00 0. -1.
        -11    1    4    4    0    0 -0.15235965617E-01 -0.74962215788E-01  0.37820663742E-01  0.85335409831E-01  0.51100000000E-03 0.  1.
         11    1    4    4    0    0 -0.39396771360E-01 -0.37576958676E-01  0.81480081183E-02  0.55052561923E-01  0.51100000000E-03 0. -1.
</event>
<event>
 8    1  0.2190295E+004  0.1043930E+01  0.7957747E-01            NaN
         13   -1    0    0    0    0  0.00000000000E+00  0.00000000000E+00  0.74505805969E-08  0.10566000000E+00  0.10566000000E+00 0.  1.
     999900   -1    0    0    0    0 -0.00000000000E+00 -0.00000000000E+00 -0.74505805969E-08  0.93827000000E+00  0.93827000000E+00 0. -1.
     999902    2    1    2    0    0 -0.11656025449E-01 -0.10474698776E-01 -0.17966768319E-03  0.10282579062E+01  0.10281384669E+01 0.  0.
     999903    2    3    3    0    0  0.75796237268E-01 -0.82097749067E-01  0.67720592300E-01  0.13843308923E+00  0.45744197293E-01 0.  0.
         14    1    1    2    0    0  0.11656025449E-01  0.10474698776E-01  0.17966768319E-03  0.15672093804E-01  0.00000000000E+00 0.  1.
     999901    1    3    3    0    0 -0.87452262717E-01  0.71623050291E-01 -0.67900259983E-01  0.88982481697E+00  0.88000000000E+00 0. -1.
        -11    1    4    4    0    0  0.11796419465E-01 -0.45455473687E-01  0.27724993927E-01  0.54537070049E-01  0.51100000000E-03 0. -1.
         11    1    4    4    0    0  0.63999817803E-01 -0.36642275380E-01  0.39995598373E-01  0.83896019179E-01  0.51100000000E-03 0.  1.
</event>
<event>
 8    1  0.2190295E+004  0.1043930E+01  0.7957747E-01            NaN
         13   -1    0    0    0    0  0.00000000000E+00  0.00000000000E+00  0.74505805969E-08  0.10566000000E+00  0.10566000000E+00 0.  1.
     999900   -1    0    0    0    0 -0.00000000000E+00 -0.00000000000E+00 -0.74505805969E-08  0.93827000000E+00  0.93827000000E+00 0. -1.
     999902    2    1    2    0    0 -0.95348877364E-03  0.10504420130E-02  0.11030598669E-01  0.10328085488E+01  0.10327486683E+01 0.  0.
     999903    2    3    3    0    0 -0.40481552663E-01 -0.75155245646E-01  0.10568997256E+00  0.14357844827E+00  0.46447103823E-01 0.  0.
         14    1    1    2    0    0  0.95348877364E-03 -0.10504420130E-02 -0.11030598669E-01  0.11121451176E-01  0.00000000000E+00 0. -1.
     999901    1    3    3    0    0  0.39528063889E-01  0.76205687659E-01 -0.94659373893E-01  0.88923010055E+00  0.88000000000E+00 0. -1.
        -11    1    4    4    0    0 -0.14982971949E-01  0.15108191917E-02  0.89091680157E-02  0.17504468538E-01  0.51100000000E-03 0.  1.
         11    1    4    4    0    0 -0.25498580714E-01 -0.76666064837E-01  0.96780804545E-01  0.12607397973E+00  0.51100000000E-03 0. -1.
</event>
<event>
 8    1  0.2190295E+004  0.1043930E+01  0.7957747E-01            NaN
         13   -1    0    0    0    0  0.00000000000E+00  0.00000000000E+00  0.74505805969E-08  0.10566000000E+00  0.10566000000E+00 0. -1.
     999900   -1    0    0    0    0 -0.00000000000E+00 -0.00000000000E+00 -0.74505805969E-08  0.93827000000E+00  0.93827000000E+00 0.  1.
     999902    2    1    2    0    0 -0.95573008727E-02 -0.23866516763E-02  0.90348222287E-02  0.10305633954E+01  0.10304767080E+01 0.  0.
     999903    2    3    3    0    0  0.58800729466E-01 -0.21802640150E-01 -0.11557504517E+00  0.13894833272E+00  0.44901750485E-01 0.  0.
         14    1    1    2    0    0  0.95573008727E-02  0.23866516763E-02 -0.90348222287E-02  0.13366604614E-01  0.00000000000E+00 0.  1.
     999901    1    3    3    0    0 -0.68358030338E-01  0.19415988474E-01  0.12460986740E+00  0.89161506267E+00  0.88000000000E+00 0. -1.
        -11    1    4    4    0    0  0.38738932047E-01 -0.38615599764E-03 -0.31614904005E-01  0.50006172108E-01  0.51100000000E-03 0. -1.
         11    1    4    4    0    0  0.20061797418E-01 -0.21416484153E-01 -0.83960141164E-01  0.88942160612E-01  0.51100000000E-03 0.  1.
</event>
<event>
 8    1  0.2190295E+004  0.1043930E+01  0.7957747E-01            NaN
         13   -1    0    0    0    0  0.00000000000E+00  0.00000000000E+00  0.74505805969E-08  0.10566000000E+00  0.10566000000E+00 0. -1.
     999900   -1    0    0    0    0 -0.00000000000E+00 -0.00000000000E+00 -0.74505805969E-08  0.93827000000E+00  0.93827000000E+00 0. -1.
     999902    2    1    2    0    0  0.10782140355E-01  0.77939091992E-02 -0.58947883943E-02  0.10293784330E+01  0.10292755755E+01 0.  0.
     999903    2    3    3    0    0 -0.41943882450E-01  0.15329260442E-01  0.12318086216E+00  0.13836926440E+00  0.44477556467E-01 0.  0.
         14    1    1    2    0    0 -0.10782140355E-01 -0.77939091992E-02  0.58947883943E-02  0.14551566976E-01  0.00000000000E+00 0. -1.
     999901    1    3    3    0    0  0.52726022805E-01 -0.75353512426E-02 -0.12907565055E+00  0.89100916862E+00  0.88000000000E+00 0. -1.
        -11    1    4    4    0    0 -0.30151377012E-01  0.26298264137E-01  0.53257341732E-01  0.66613135354E-01  0.51100000000E-03 0.  1.
         11    1    4    4    0    0 -0.11792505438E-01 -0.10969003695E-01  0.69923520426E-01  0.71756129050E-01  0.51100000000E-03 0. -1.
</event>
<event>
 8    1  0.2190295E+004  0.1043930E+01  0.7957747E-01            NaN
         13   -1    0    0    0    0  0.00000000000E+00  0.00000000000E+00  0.74505805969E-08  0.10566000000E+00  0.10566000000E+00 0. -1.
     999900   -1    0    0    0    0 -0.00000000000E+00 -0.00000000000E+00 -0.74505805969E-08  0.93827000000E+00  0.93827000000E+00 0.  1.
     999902    2    1    2    0    0  0.68173048727E-02 -0.11834723605E-01 -0.11051890187E-03  0.10302717225E+01  0.10301811849E+01 0.  0.
     999903    2    3    3    0    0 -0.10957020802E+00 -0.38975797733E-01  0.66830375491E-01  0.13967429699E+00  0.38959810803E-01 0.  0.
         14    1    1    2    0    0 -0.68173048727E-02  0.11834723605E-01  0.11051890187E-03  0.13658277452E-01  0.00000000000E+00 0.  1.
     999901    1    3    3    0    0  0.11638751289E+00  0.27141074128E-01 -0.66940894393E-01  0.89059742555E+00  0.88000000000E+00 0. -1.
        -11    1    4    4    0    0 -0.60161520439E-01 -0.38670137198E-01  0.50806244360E-01  0.87728693364E-01  0.51100000000E-03 0. -1.
         11    1    4    4    0    0 -0.49408687581E-01 -0.30566053474E-03  0.16024131131E-01  0.51945603629E-01  0.51100000000E-03 0.  1.
</event>
<event>
 8    1  0.2190295E+004  0.1043930E+01  0.7957747E-01            NaN
         13   -1    0    0    0    0  0.00000000000E+00  0.00000000000E+00  0.74505805969E-08  0.10566000000E+00  0.10566000000E+00 0.  1.
     999900   -1    0    0    0    0 -0.00000000000E+00 -0.00000000000E+00 -0.74505805969E-08  0.93827000000E+00  0.93827000000E+00 0. -1.
     999902    2    1    2    0    0 -0.71323647955E-02  0.98515838211E-02  0.85006802340E-02  0.10290913378E+01  0.10289843515E+01 0.  0.
     999903    2    3    3    0    0  0.94546436517E-01 -0.66325072915E-01  0.60282157121E-01  0.13846078420E+00  0.46897828714E-01 0.  0.
         14    1    1    2    0    0  0.71323647955E-02 -0.98515838211E-02 -0.85006802340E-02  0.14838662197E-01  0.00000000000E+00 0. -1.
     999901    1    3    3    0    0 -0.10167880131E+00  0.76176656736E-01 -0.51781476887E-01  0.89063055361E+00  0.88000000000E+00 0.  1.
        -11    1    4    4    0    0  0.29285237810E-01 -0.46077965931E-02  0.33484115932E-01  0.44724759181E-01  0.51100000000E-03 0.  1.
         11    1    4    4    0    0  0.65261198708E-01 -0.61717276322E-01  0.26798041189E-01  0.93736025016E-01  0.51100000000E-03 0. -1.
</event>
<event>
 8    1  0.2190295E+004  0.1043930E+01  0.7957747E-01            NaN
         13   -1    0    0    0    0  0.00000000000E+00  0.00000000000E+00  0.74505805969E-08  0.10566000000E+00  0.10566000000E+00 0. -1.
     999900   -1    0    0    0    0 -0.00000000000E+00 -0.00000000000E+00 -0.74505805969E-08  0.93827000000E+00  0.93827000000E+00 0.  1.
     999902    2    1    2    0    0  0.13846017433E-02 -0.35733301117E-03  0.13457055698E-01  0.10303971822E+01  0.10303083111E+01 0.  0.
     999903    2    3    3    0    0 -0.10535620408E+00  0.76130053365E-01 -0.24852229403E-01  0.13982909318E+00  0.45153374520E-01 0.  0.
         14    1    1    2    0    0 -0.13846017433E-02  0.35733301117E-03 -0.13457055698E-01  0.13532817775E-01  0.00000000000E+00 0.  1.
     999901    1    3    3    0    0  0.10674080582E+00 -0.76487386376E-01  0.38309285102E-01  0.89056808905E+00  0.88000000000E+00 0. -1.
        -11    1    4    4    0    0  0.25521178763E-02  0.10189793801E-01 -0.55851917534E-02  0.11908009543E-01  0.51100000000E-03 0.  1.
         11    1    4    4    0    0 -0.10790832195E+00  0.65940259564E-01 -0.19267037650E-01  0.12792108364E+00  0.51100000000E-03 0. -1.
</event>
<event>
 8    1  0.2190295E+004  0.1043930E+01  0.7957747E-01            NaN
         13   -1    0    0    0    0  0.00000000000E+00  0.00000000000E+00  0.74505805969E-08  0.10566000000E+00  0.10566000000E+00 0. -1.
     999900   -1    0    0    0    0 -0.00000000000E+00 -0.00000000000E+00 -0.74505805969E-08  0.93827000000E+00  0.93827000000E+00 0. -1.
     999902    2    1    2    0    0  0.12258294137E-03  0.51724789849E-03  0.13273780252E-01  0.10306455800E+01  0.10305599623E+01 0.  0.
     999903    2    3    3    0    0  0.10141306897E+00 -0.11007143096E-01  0.88359076822E-01  0.14158406589E+00  0.42813006216E-01 0.  0.
         14    1    1    2    0    0 -0.12258294137E-03 -0.51724789849E-03 -0.13273780252E-01  0.13284419978E-01  0.00000000000E+00 0.  1.
     999901    1    3    3    0    0 -0.10129048603E+00  0.11524390994E-01 -0.75085296570E-01  0.88906151413E+00  0.88000000000E+00 0. -1.
        -11    1    4    4    0    0  0.68050373230E-01 -0.67954602240E-02  0.82970186637E-01  0.10752369305E+00  0.51100000000E-03 0.  1.
         11    1    4    4    0    0  0.33362695736E-01 -0.42116828717E-02  0.53888901849E-02  0.34060372837E-01  0.51100000000E-03 0. -1.
</event>
<event>
 8    1  0.2190295E+004  0.1043930E+01  0.7957747E-01            NaN
         13   -1    0    0    0    0  0.00000000000E+00  0.00000000000E+00  0.74505805969E-08  0.10566000000E+00  0.10566000000E+00 0. -1.
     999900   -1    0    0    0    0 -0.00000000000E+00 -0.00000000000E+00 -0.74505805969E-08  0.93827000000E+00  0.93827000000E+00 0. -1.
     999902    2    1    2    0    0  0.12176336744E-02  0.12217847416E-02  0.12939999886E-01  0.10308755377E+01  0.10307928770E+01 0.  0.
     999903    2    3    3    0    0 -0.40955235233E-01  0.97748043651E-01 -0.79189610753E-01  0.13981788819E+00  0.45233130303E-01 0.  0.
         14    1    1    2    0    0 -0.12176336744E-02 -0.12217847416E-02 -0.12939999886E-01  0.13054462332E-01  0.00000000000E+00 0.  1.
     999901    1    3    3    0    0  0.42172868908E-01 -0.96526258910E-01  0.92129610639E-01  0.89105764947E+00  0.88000000000E+00 0. -1.
        -11    1    4    4    0    0 -0.24794538097E-01  0.20305902985E-01 -0.71932196737E-02  0.32849693237E-01  0.51100000000E-03 0.  1.
         11    1    4    4    0    0 -0.16160697136E-01  0.77442140666E-01 -0.71996391079E-01  0.10696819496E+00  0.51100000000E-03 0. -1.
</event>
<event>
 8    1  0.2190295E+004  0.1043930E+01  0.7957747E-01            NaN
         13   -1    0    0    0    0  0.00000000000E+00  0.00000000000E+00  0.74505805969E-08  0.10566000000E+00  0.10566000000E+00 0. -1.
     999900   -1    0    0    0    0 -0.00000000000E+00 -0.00000000000E+00 -0.74505805969E-08  0.93827000000E+00  0.93827000000E+00 0. -1.
     999902    2    1    2    0    0  0.82686327001E-02  0.44495725165E-02  0.10370971848E-01  0.10299397877E+01  0.10298447652E+01 0.  0.
     999903    2    3    3    0    0  0.65412379394E-02  0.10830915668E+00  0.83504503626E-01  0.14081757420E+00  0.32907838939E-01 0.  0.
         14    1    1    2    0    0 -0.82686327001E-02 -0.44495725165E-02 -0.10370971848E-01  0.13990212271E-01  0.00000000000E+00 0.  1.
     999901    1    3    3    0    0  0.17273947607E-02 -0.10385958417E+00 -0.73133531777E-01  0.88912221353E+00  0.88000000000E+00 0. -1.
        -11    1    4    4    0    0 -0.12354962880E-01  0.51957440534E-01  0.46399819654E-01  0.70749029107E-01  0.51100000000E-03 0.  1.
         11    1    4    4    0    0  0.18896200820E-01  0.56351716148E-01  0.37104683971E-01  0.70068545096E-01  0.51100000000E-03 0. -1.
</event>
<event>
 8    1  0.2190295E+004  0.1043930E+01  0.7957747E-01            NaN
         13   -1    0    0    0    0  0.00000000000E+00  0.00000000000E+00  0.74505805969E-08  0.10566000000E+00  0.10566000000E+00 0.  1.
     999900   -1    0    0    0    0 -0.00000000000E+00 -0.00000000000E+00 -0.74505805969E-08  0.93827000000E+00  0.93827000000E+00 0.  1.
     999902    2    1    2    0    0 -0.10213651534E-01  0.91382978765E-02 -0.25672104536E-02  0.10299866240E+01  0.10298922409E+01 0.  0.
     999903    2    3    3    0    0  0.97208292152E-01 -0.78758548359E-01  0.35860840532E-01  0.13827924782E+00  0.46720332750E-01 0.  0.
         14    1    1    2    0    0  0.10213651534E-01 -0.91382978765E-02  0.25672104536E-02  0.13943376035E-01  0.00000000000E+00 0.  1.
     999901    1    3    3    0    0 -0.10742194369E+00  0.87896846235E-01 -0.38428050986E-01  0.89170737614E+00  0.88000000000E+00 0.  1.
        -11    1    4    4    0    0  0.46593994968E-01 -0.91863171228E-02  0.13831975239E-01  0.49466892458E-01  0.51100000000E-03 0.  1.
         11    1    4    4    0    0  0.50614297184E-01 -0.69572231236E-01  0.22028865293E-01  0.88812355366E-01  0.51100000000E-03 0. -1.
</event>
<event>
 8    1  0.2190295E+004  0.1043930E+01  0.7957747E-01            NaN
         13   -1    0    0    0    0  0.00000000000E+00  0.00000000000E+00  0.74505805969E-08  0.10566000000E+00  0.10566000000E+00 0.  1.
     999900   -1    0    0    0    0 -0.00000000000E+00 -0.00000000000E+00 -0.74505805969E-08  0.93827000000E+00  0.93827000000E+00 0.  1.
     999902    2    1    2    0    0  0.22871930593E-02 -0.15200247316E-02  0.13083273497E-01  0.10305616129E+01  0.10304749023E+01 0.  0.
     999903    2    3    3    0    0 -0.88260518830E-01 -0.80725028626E-01 -0.55968293457E-01  0.13969661774E+00  0.45565839227E-01 0.  0.
         14    1    1    2    0    0 -0.22871930593E-02  0.15200247316E-02 -0.13083273497E-01  0.13368387063E-01  0.00000000000E+00 0. -1.
     999901    1    3    3    0    0  0.90547711889E-01  0.79205003894E-01  0.69051566954E-01  0.89086499520E+00  0.88000000000E+00 0. -1.
        -11    1    4    4    0    0 -0.19834256919E-01 -0.23017736299E-02 -0.23126808834E-01  0.30558244668E-01  0.51100000000E-03 0.  1.
         11    1    4    4    0    0 -0.68426261910E-01 -0.78423254996E-01 -0.32841484623E-01  0.10913837307E+00  0.51100000000E-03 0. -1.
</event>
<event>
 8    1  0.2190295E+004  0.1043930E+01  0.7957747E-01            NaN
         13   -1    0    0    0    0  0.00000000000E+00  0.00000000000E+00  0.74505805969E-08  0.10566000000E+00  0.10566000000E+00 0. -1.
     999900   -1    0    0    0    0 -0.00000000000E+00 -0.00000000000E+00 -0.74505805969E-08  0.93827000000E+00  0.93827000000E+00 0. -1.
     999902    2    1    2    0    0 -0.10844935426E-01  0.89083705930E-02 -0.40983467991E-02  0.10293091882E+01  0.10292053424E+01 0.  0.
     999903    2    3    3    0    0 -0.18216472733E-01 -0.11321603430E+00  0.62833602057E-01  0.13832737267E+00  0.45129703997E-01 0.  0.
         14    1    1    2    0    0  0.10844935426E-01 -0.89083705930E-02  0.40983467991E-02  0.14620811793E-01  0.00000000000E+00 0. -1.
     999901    1    3    3    0    0  0.73715373073E-02  0.12212440489E+00 -0.66931948856E-01  0.89098181553E+00  0.88000000000E+00 0. -1.
        -11    1    4    4    0    0 -0.15784546639E-01 -0.20709332105E-01 -0.73947046196E-03  0.26054486876E-01  0.51100000000E-03 0.  1.
         11    1    4    4    0    0 -0.24319260941E-02 -0.92506702192E-01  0.63573072519E-01  0.11227288580E+00  0.51100000000E-03 0. -1.
</event>
<event>
 8    1  0.2190295E+004  0.1043930E+01  0.7957747E-01            NaN
         13   -1    0    0    0    0  0.00000000000E+00  0.00000000000E+00  0.74505805969E-08  0.10566000000E+00  0.10566000000E+00 0. -1.
     999900   -1    0    0    0    0 -0.00000000000E+00 -0.00000000000E+00 -0.74505805969E-08  0.93827000000E+00  0.93827000000E+00 0.  1.
     999902    2    1    2    0    0 -0.12241008071E-01  0.41114953929E-02 -0.57839875839E-02  0.10297807532E+01  0.10296835429E+01 0.  0.
     999903    2    3    3    0    0 -0.71809795687E-01  0.11192965933E+00 -0.10439239335E-01  0.14118924507E+00  0.46265860088E-01 0.  0.
         14    1    1    2    0    0  0.12241008071E-01 -0.41114953929E-02  0.57839875839E-02  0.14149246812E-01  0.00000000000E+00 0. -1.
     999901    1    3    3    0    0  0.59568787616E-01 -0.10781816394E+00  0.46552517514E-02  0.88859150812E+00  0.88000000000E+00 0.  1.
        -11    1    4    4    0    0 -0.33779171144E-01  0.85813943422E-01  0.54698253831E-02  0.92386391852E-01  0.51100000000E-03 0.  1.
         11    1    4    4    0    0 -0.38030624544E-01  0.26115715913E-01 -0.15909064718E-01  0.48802853216E-01  0.51100000000E-03 0. -1.
</event>
<event>
 8    1  0.2190295E+004  0.1043930E+01  0.7957747E-01            NaN
         13   -1    0    0    0    0  0.00000000000E+00  0.00000000000E+00  0.74505805969E-08  0.10566000000E+00  0.10566000000E+00 0.  1.
     999900   -1    0    0    0    0 -0.00000000000E+00 -0.00000000000E+00 -0.74505805969E-08  0.93827000000E+00  0.93827000000E+00 0. -1.
     999902    2    1    2    0    0 -0.35060663561E-02  0.12125329586E-01  0.69955809096E-02  0.10294989823E+01  0.10293978339E+01 0.  0.
     999903    2    3    3    0    0  0.31787576708E-01 -0.40356053109E-01 -0.12000693101E+00  0.13813509771E+00  0.45172786842E-01 0.  0.
         14    1    1    2    0    0  0.35060663561E-02 -0.12125329586E-01 -0.69955809096E-02  0.14431017675E-01  0.00000000000E+00 0.  1.
     999901    1    3    3    0    0 -0.35293643064E-01  0.52481382695E-01  0.12700251192E+00  0.89136388462E+00  0.88000000000E+00 0.  1.
        -11    1    4    4    0    0  0.66914465253E-02  0.98798049039E-02 -0.26377585542E-01  0.28955554589E-01  0.51100000000E-03 0. -1.
         11    1    4    4    0    0  0.25096130183E-01 -0.50235858013E-01 -0.93629345472E-01  0.10917954312E+00  0.51100000000E-03 0.  1.
</event>
<event>
 8    1  0.2190295E+004  0.1043930E+01  0.7957747E-01            NaN
         13   -1    0    0    0    0  0.00000000000E+00  0.00000000000E+00  0.74505805969E-08  0.10566000000E+00  0.10566000000E+00 0. -1.
     999900   -1    0    0    0    0 -0.00000000000E+00 -0.00000000000E+00 -0.74505805969E-08  0.93827000000E+00  0.93827000000E+00 0.  1.
     999902    2    1    2    0    0 -0.48398378798E-02  0.63084605067E-02 -0.11744647591E-01  0.10297470013E+01  0.10296493234E+01 0.  0.
     999903    2    3    3    0    0 -0.86077650167E-01 -0.97003785584E-01 -0.23895263473E-01  0.13990395909E+00  0.46722990867E-01 0.  0.
         14    1    1    2    0    0  0.48398378798E-02 -0.63084605067E-02  0.11744647591E-01  0.14182998685E-01  0.00000000000E+00 0. -1.
     999901    1    3    3    0    0  0.81237812287E-01  0.10331224609E+00  0.12150615883E-01  0.88984304223E+00  0.88000000000E+00 0. -1.
        -11    1    4    4    0    0 -0.37600628560E-01 -0.58127219807E-01  0.86269183665E-02  0.69765792421E-01  0.51100000000E-03 0. -1.
         11    1    4    4    0    0 -0.48477021607E-01 -0.38876565777E-01 -0.32522181840E-01  0.70138166665E-01  0.51100000000E-03 0.  1.
</event>
<event>
 8    1  0.2190295E+004  0.1043930E+01  0.7957747E-01            NaN
         13   -1    0    0    0    0  0.00000000000E+00  0.00000000000E+00  0.74505805969E-08  0.10566000000E+00  0.10566000000E+00 0. -1.
     999900   -1    0    0    0    0 -0.00000000000E+00 -0.00000000000E+00 -0.74505805969E-08  0.93827000000E+00  0.93827000000E+00 0. -1.
     999902    2    1    2    0    0  0.45910428118E-02  0.69924694951E-02 -0.10889626670E-01  0.10301984206E+01  0.10301069020E+01 0.  0.
     999903    2    3    3    0    0  0.13035471671E+00  0.15939717651E-01  0.21836705604E-01  0.14060999456E+00  0.45253752224E-01 0.  0.
         14    1    1    2    0    0 -0.45910428118E-02 -0.69924694951E-02  0.10889626670E-01  0.13731579398E-01  0.00000000000E+00 0. -1.
     999901    1    3    3    0    0 -0.12576367390E+00 -0.89472481558E-02 -0.32726332274E-01  0.88958842604E+00  0.88000000000E+00 0. -1.
        -11    1    4    4    0    0  0.26807501416E-01 -0.11462957317E-01 -0.63651298337E-02  0.29846566325E-01  0.51100000000E-03 0.  1.
         11    1    4    4    0    0  0.10354721530E+00  0.27402674968E-01  0.28201835438E-01  0.11076342824E+00  0.51100000000E-03 0. -1.
</event>
<event>
 8    1  0.2190295E+004  0.1043930E+01  0.7957747E-01            NaN
         13   -1    0    0    0    0  0.00000000000E+00  0.00000000000E+00  0.74505805969E-08  0.10566000000E+00  0.10566000000E+00 0.  1.
     999900   -1    0    0    0    0 -0.00000000000E+00 -0.00000000000E+00 -0.74505805969E-08  0.93827000000E+00  0.93827000000E+00 0.  1.
     999902    2    1    2    0    0 -0.12342020336E-01 -0.48776333170E-02  0.75804580637E-03  0.10306374680E+01  0.10305517450E+01 0.  0.
     999903    2    3    3    0    0 -0.90407842358E-01 -0.92876437476E-01  0.36928401915E-01  0.14207325720E+00  0.44961015848E-01 0.  0.
         14    1    1    2    0    0  0.12342020336E-01  0.48776333170E-02 -0.75804580637E-03  0.13292531971E-01  0.00000000000E+00 0. -1.
     999901    1    3    3    0    0  0.78065822022E-01  0.87998804159E-01 -0.36170356109E-01  0.88856421083E+00  0.88000000000E+00 0. -1.
        -11    1    4    4    0    0 -0.48456552360E-01 -0.19767075880E-01  0.79333012549E-02  0.52933667408E-01  0.51100000000E-03 0.  1.
         11    1    4    4    0    0 -0.41951289998E-01 -0.73109361596E-01  0.28995100660E-01  0.89139589795E-01  0.51100000000E-03 0. -1.
</event>
<event>
 8    1  0.2190295E+004  0.1043930E+01  0.7957747E-01            NaN
         13   -1    0    0    0    0  0.00000000000E+00  0.00000000000E+00  0.74505805969E-08  0.10566000000E+00  0.10566000000E+00 0.  1.
     999900   -1    0    0    0    0 -0.00000000000E+00 -0.00000000000E+00 -0.74505805969E-08  0.93827000000E+00  0.93827000000E+00 0.  1.
     999902    2    1    2    0    0 -0.50020654354E-02 -0.15121132721E-02  0.18146339018E-01  0.10250462301E+01  0.10248722736E+01 0.  0.
     999903    2    3    3    0    0  0.15243378973E-01  0.76087300790E-01  0.10625567148E+00  0.13701762610E+00  0.38235117330E-01 0.  0.
         14    1    1    2    0    0  0.50020654354E-02  0.15121132721E-02 -0.18146339018E-01  0.18883769881E-01  0.00000000000E+00 0. -1.
     999901    1    3    3    0    0 -0.20245444408E-01 -0.77599414062E-01 -0.88109332464E-01  0.88802860402E+00  0.88000000000E+00 0.  1.
        -11    1    4    4    0    0  0.89933525142E-02  0.58724352893E-01  0.49483803971E-01  0.77319712807E-01  0.51100000000E-03 0.  1.
         11    1    4    4    0    0  0.62500264584E-02  0.17362947897E-01  0.56771867510E-01  0.59697913297E-01  0.51100000000E-03 0. -1.
</event>
<event>
 8    1  0.2190295E+004  0.1043930E+01  0.7957747E-01            NaN
         13   -1    0    0    0    0  0.00000000000E+00  0.00000000000E+00  0.74505805969E-08  0.10566000000E+00  0.10566000000E+00 0.  1.
     999900   -1    0    0    0    0 -0.00000000000E+00 -0.00000000000E+00 -0.74505805969E-08  0.93827000000E+00  0.93827000000E+00 0. -1.
     999902    2    1    2    0    0 -0.15287829980E-01  0.62305439011E-02 -0.19858643202E-01  0.10181055323E+01  0.10177779580E+01 0.  0.
     999903    2    3    3    0    0  0.80708027684E-01 -0.28776191745E-01  0.80937895223E-01  0.12647746051E+00  0.45866656616E-01 0.  0.
         14    1    1    2    0    0  0.15287829980E-01 -0.62305439011E-02  0.19858643202E-01  0.25824467712E-01  0.00000000000E+00 0.  1.
     999901    1    3    3    0    0 -0.95995857664E-01  0.35006735646E-01 -0.10079653843E+00  0.89162807178E+00  0.88000000000E+00 0.  1.
        -11    1    4    4    0    0  0.49979898207E-01  0.19376569352E-02  0.25812688132E-01  0.56287660538E-01  0.51100000000E-03 0. -1.
         11    1    4    4    0    0  0.30728129477E-01 -0.30713848680E-01  0.55125207091E-01  0.70189799969E-01  0.51100000000E-03 0.  1.
</event>
<event>
 8    1  0.2190295E+004  0.1043930E+01  0.7957747E-01            NaN
         13   -1    0    0    0    0  0.00000000000E+00  0.00000000000E+00  0.74505805969E-08  0.10566000000E+00  0.10566000000E+00 0. -1.
     999900   -1    0    0    0    0 -0.00000000000E+00 -0.00000000000E+00 -0.74505805969E-08  0.93827000000E+00  0.93827000000E+00 0.  1.
     999902    2    1    2    0    0 -0.11138473696E-01 -0.64366746227E-02  0.58204884645E-02  0.10298099978E+01  0.10297131917E+01 0.  0.
     999903    2    3    3    0    0 -0.26379757662E-01  0.55622009083E-01  0.11812286041E+00  0.14037455904E+00  0.44297936365E-01 0.  0.
         14    1    1    2    0    0  0.11138473696E-01  0.64366746227E-02 -0.58204884645E-02  0.14120002211E-01  0.00000000000E+00 0.  1.
     999901    1    3    3    0    0  0.15241283966E-01 -0.62058683706E-01 -0.11230237194E+00  0.88943543875E+00  0.88000000000E+00 0.  1.
        -11    1    4    4    0    0 -0.56624801728E-02  0.43291903264E-01  0.10309676834E+00  0.11196185660E+00  0.51100000000E-03 0. -1.
         11    1    4    4    0    0 -0.20717277489E-01  0.12330105819E-01  0.15026092062E-01  0.28412702436E-01  0.51100000000E-03 0.  1.
</event>
<event>
 7    1  0.2190295E+004  0.1043930E+01  0.7957747E-01            NaN
         13   -1    0    0    0    0  0.00000000000E+00  0.00000000000E+00  0.74505805969E-08  0.10566000000E+00  0.10566000000E+00 0. -1.
     999900   -1    0    0    0    0 -0.00000000000E+00 -0.00000000000E+00 -0.74505805969E-08  0.93827000000E+00  0.93827000000E+00 0. -1.
     999902    2    1    2    0    0  0.71430238059E-02 -0.10566808789E-01  0.87690751006E-02  0.10284517276E+01  0.10283352465E+01 0.  0.
         14    1    1    2    0    0 -0.71430238059E-02  0.10566808789E-01 -0.87690751006E-02  0.15478272358E-01  0.00000000000E+00 0. -1.
     999901    1    3    3    0    0 -0.46191066290E-01  0.45449402790E-01  0.84410125697E-01  0.88641092736E+00  0.88000000000E+00 0.  1.
        -11    1    3    3    0    0  0.48573990025E-01 -0.34838710875E-01 -0.95467390288E-01  0.11263859024E+00  0.51100000000E-03 0. -1.
         11    1    3    3    0    0  0.47601000709E-02 -0.21177500705E-01  0.19826339691E-01  0.29402210042E-01  0.51100000000E-03 0.  1.
</event>
<event>
 8    1  0.2190295E+004  0.1043930E+01  0.7957747E-01            NaN
         13   -1    0    0    0    0  0.00000000000E+00  0.00000000000E+00  0.74505805969E-08  0.10566000000E+00  0.10566000000E+00 0.  1.
     999900   -1    0    0    0    0 -0.00000000000E+00 -0.00000000000E+00 -0.74505805969E-08  0.93827000000E+00  0.93827000000E+00 0. -1.
     999902    2    1    2    0    0 -0.39392545490E-02 -0.46444661327E-02  0.14828342290E-01  0.10278997621E+01  0.10277747576E+01 0.  0.
     999903    2    3    3    0    0  0.83840531074E-01 -0.20722844387E-01 -0.95514886524E-01  0.13653034757E+00  0.45373685435E-01 0.  0.
         14    1    1    2    0    0  0.39392545490E-02  0.46444661327E-02 -0.14828342290E-01  0.16030237900E-01  0.00000000000E+00 0. -1.
     999901    1    3    3    0    0 -0.87779785623E-01  0.16078378254E-01  0.11034322881E+00  0.89136941453E+00  0.88000000000E+00 0.  1.
        -11    1    4    4    0    0  0.34030881545E-01  0.17631053948E-02 -0.66331333640E-01  0.74574234042E-01  0.51100000000E-03 0. -1.
         11    1    4    4    0    0  0.49809649529E-01 -0.22485949782E-01 -0.29183552883E-01  0.61956113530E-01  0.51100000000E-03 0.  1.
</event>
<event>
 8    1  0.2190295E+004  0.1043930E+01  0.7957747E-01            NaN
         13   -1    0    0    0    0  0.00000000000E+00  0.00000000000E+00  0.74505805969E-08  0.10566000000E+00  0.10566000000E+00 0.  1.
     999900   -1    0    0    0    0 -0.00000000000E+00 -0.00000000000E+00 -0.74505805969E-08  0.93827000000E+00  0.93827000000E+00 0.  1.
     999902    2    1    2    0    0  0.17219239704E-02 -0.10433144021E-01 -0.90474581938E-02  0.10300133906E+01  0.10299193720E+01 0.  0.
     999903    2    3    3    0    0  0.25599135127E-01  0.54199101843E-01  0.11625713678E+00  0.13847052014E+00  0.45447824313E-01 0.  0.
         14    1    1    2    0    0 -0.17219239704E-02  0.10433144021E-01  0.90474581938E-02  0.13916609361E-01  0.00000000000E+00 0.  1.
     999901    1    3    3    0    0 -0.23877211156E-01 -0.64632245864E-01 -0.12530459498E+00  0.89154287050E+00  0.88000000000E+00 0.  1.
        -11    1    4    4    0    0  0.26966709932E-01  0.56670669185E-01  0.78042377085E-01  0.10014809999E+00  0.51100000000E-03 0.  1.
         11    1    4    4    0    0 -0.13675748051E-02 -0.24715673419E-02  0.38214759698E-01  0.38322420145E-01  0.51100000000E-03 0. -1.
</event>
<event>
 8    1  0.2190295E+004  0.1043930E+01  0.7957747E-01            NaN
         13   -1    0    0    0    0  0.00000000000E+00  0.00000000000E+00  0.74505805969E-08  0.10566000000E+00  0.10566000000E+00 0. -1.
     999900   -1    0    0    0    0 -0.00000000000E+00 -0.00000000000E+00 -0.74505805969E-08  0.93827000000E+00  0.93827000000E+00 0.  1.
     999902    2    1    2    0    0  0.11784250254E-01  0.76805067085E-02 -0.61791965943E-02  0.10285663674E+01  0.10284516181E+01 0.  0.
     999903    2    3    3    0    0 -0.55254221785E-01 -0.93878119588E-01 -0.71457484626E-01  0.13779728045E+00  0.44897528077E-01 0.  0.
         14    1    1    2    0    0 -0.11784250254E-01 -0.76805067085E-02  0.61791965943E-02  0.15363632640E-01  0.00000000000E+00 0. -1.
     999901    1    3    3    0    0  0.67038472039E-01  0.10155862630E+00  0.65278288032E-01  0.89076908691E+00  0.88000000000E+00 0. -1.
        -11    1    4    4    0    0 -0.15778917101E-01 -0.53093017917E-01 -0.56444834513E-01  0.79083014868E-01  0.51100000000E-03 0. -1.
         11    1    4    4    0    0 -0.39475304684E-01 -0.40785101671E-01 -0.15012650113E-01  0.58714265580E-01  0.51100000000E-03 0.  1.
</event>
<event>
 8    1  0.2190295E+004  0.1043930E+01  0.7957747E-01            NaN
         13   -1    0    0    0    0  0.00000000000E+00  0.00000000000E+00  0.74505805969E-08  0.10566000000E+00  0.10566000000E+00 0.  1.
     999900   -1    0    0    0    0 -0.00000000000E+00 -0.00000000000E+00 -0.74505805969E-08  0.93827000000E+00  0.93827000000E+00 0. -1.
     999902    2    1    2    0    0  0.99091950222E-02  0.29368514491E-03 -0.10126939998E-01  0.10297584330E+01  0.10296609136E+01 0.  0.
     999903    2    3    3    0    0 -0.72082185659E-01  0.89029145631E-01  0.63084886909E-01  0.13849161548E+00  0.45587216849E-01 0.  0.
         14    1    1    2    0    0 -0.99091950222E-02 -0.29368514491E-03  0.10126939998E-01  0.14171566980E-01  0.00000000000E+00 0.  1.
     999901    1    3    3    0    0  0.81991380681E-01 -0.88735460486E-01 -0.73211826907E-01  0.89126681754E+00  0.88000000000E+00 0. -1.
        -11    1    4    4    0    0 -0.24515577788E-01  0.65068759596E-01  0.29572469512E-01  0.75562881785E-01  0.51100000000E-03 0.  1.
         11    1    4    4    0    0 -0.47566607871E-01  0.23960386035E-01  0.33512417397E-01  0.62928733692E-01  0.51100000000E-03 0. -1.
</event>
<event>
 7    1  0.2190295E+004  0.1043930E+01  0.7957747E-01            NaN
         13   -1    0    0    0    0  0.00000000000E+00  0.00000000000E+00  0.74505805969E-08  0.10566000000E+00  0.10566000000E+00 0.  1.
     999900   -1    0    0    0    0 -0.00000000000E+00 -0.00000000000E+00 -0.74505805969E-08  0.93827000000E+00  0.93827000000E+00 0. -1.
     999903    2    1    2    0    0  0.94325823121E-01  0.56285255851E-01  0.21392762415E-02  0.11897571386E+00  0.45664571079E-01 0.  0.
         14    1    1    2    0    0 -0.12273436478E-01  0.10578186895E-01 -0.34399769263E-01  0.38024720989E-01  0.00000000000E+00 0. -1.
     999901    1    1    2    0    0 -0.82052386642E-01 -0.66863442746E-01  0.32260493022E-01  0.88692956515E+00  0.88000000000E+00 0.  1.
        -11    1    3    3    0    0  0.47821524650E-01  0.10224995514E-01 -0.15289288716E-01  0.51239362053E-01  0.51100000000E-03 0.  1.
         11    1    3    3    0    0  0.46504298471E-01  0.46060260337E-01  0.17428564958E-01  0.67736351807E-01  0.51100000000E-03 0. -1.
</event>
<event>
 7    1  0.2190295E+004  0.1043930E+01  0.7957747E-01            NaN
         13   -1    0    0    0    0  0.00000000000E+00  0.00000000000E+00  0.74505805969E-08  0.10566000000E+00  0.10566000000E+00 0. -1.
     999900   -1    0    0    0    0 -0.00000000000E+00 -0.00000000000E+00 -0.74505805969E-08  0.93827000000E+00  0.93827000000E+00 0.  1.
     999902    2    1    2    0    0 -0.78409592858E-02 -0.97826757368E-02 -0.52375858175E-02  0.10303427379E+01  0.10302531455E+01 0.  0.
         14    1    1    2    0    0  0.78409592858E-02  0.97826757368E-02  0.52375858175E-02  0.13587262134E-01  0.00000000000E+00 0.  1.
     999901    1    3    3    0    0  0.53902398429E-01 -0.13046228132E-01  0.78870961981E-01  0.88526623186E+00  0.88000000000E+00 0. -1.
        -11    1    3    3    0    0 -0.55310498152E-01  0.26102224201E-01 -0.37395540419E-02  0.61276608094E-01  0.51100000000E-03 0. -1.
         11    1    3    3    0    0 -0.64328595629E-02 -0.22838671806E-01 -0.80368993756E-01  0.83799897914E-01  0.51100000000E-03 0.  1.
</event>
<event>
 8    1  0.2190295E+004  0.1043930E+01  0.7957747E-01            NaN
         13   -1    0    0    0    0  0.00000000000E+00  0.00000000000E+00  0.74505805969E-08  0.10566000000E+00  0.10566000000E+00 0. -1.
     999900   -1    0    0    0    0 -0.00000000000E+00 -0.00000000000E+00 -0.74505805969E-08  0.93827000000E+00  0.93827000000E+00 0.  1.
     999902    2    1    2    0    0  0.85383485495E-02  0.32583121230E-02 -0.39419398091E-02  0.10339771671E+01  0.10339292641E+01 0.  0.
     999903    2    3    3    0    0 -0.10019719022E+00  0.58622083430E-01 -0.70392089430E-01  0.14307639429E+00  0.45163954144E-01 0.  0.
         14    1    1    2    0    0 -0.85383485495E-02 -0.32583121230E-02  0.39419398091E-02  0.99528329285E-02  0.00000000000E+00 0. -1.
     999901    1    3    3    0    0  0.10873553877E+00 -0.55363771307E-01  0.66450149621E-01  0.89090077279E+00  0.88000000000E+00 0.  1.
        -11    1    4    4    0    0 -0.13051924097E-01  0.26410670879E-01 -0.60933949768E-02  0.30087652655E-01  0.51100000000E-03 0.  1.
         11    1    4    4    0    0 -0.87145266123E-01  0.32211412551E-01 -0.64298694453E-01  0.11298874163E+00  0.51100000000E-03 0. -1.
</event>
<event>
 8    1  0.2190295E+004  0.1043930E+01  0.7957747E-01            NaN
         13   -1    0    0    0    0  0.00000000000E+00  0.00000000000E+00  0.74505805969E-08  0.10566000000E+00  0.10566000000E+00 0.  1.
     999900   -1    0    0    0    0 -0.00000000000E+00 -0.00000000000E+00 -0.74505805969E-08  0.93827000000E+00  0.93827000000E+00 0.  1.
     999902    2    1    2    0    0 -0.10412344095E-01  0.17441661497E-02 -0.11430935401E-01  0.10283696237E+01  0.10282518941E+01 0.  0.
     999903    2    3    3    0    0  0.72094202148E-01  0.78746202278E-01 -0.76299024223E-01  0.13879415607E+00  0.45207723952E-01 0.  0.
         14    1    1    2    0    0  0.10412344095E-01 -0.17441661497E-02  0.11430935401E-01  0.15560376257E-01  0.00000000000E+00 0.  1.
     999901    1    3    3    0    0 -0.82506546243E-01 -0.77002036128E-01  0.64868088822E-01  0.88957546767E+00  0.88000000000E+00 0. -1.
        -11    1    4    4    0    0  0.15907107278E-01  0.41528529817E-01 -0.13005949001E-01  0.46336494053E-01  0.51100000000E-03 0.  1.
         11    1    4    4    0    0  0.56187094869E-01  0.37217672460E-01 -0.63293075222E-01  0.92457662015E-01  0.51100000000E-03 0. -1.
</event>
<event>
 8    1  0.2190295E+004  0.1043930E+01  0.7957747E-01            NaN
         13   -1    0    0    0    0  0.00000000000E+00  0.00000000000E+00  0.74505805969E-08  0.10566000000E+00  0.10566000000E+00 0.  1.
     999900   -1    0    0    0    0 -0.00000000000E+00 -0.00000000000E+00 -0.74505805969E-08  0.93827000000E+00  0.93827000000E+00 0.  1.
     999902    2    1    2    0    0 -0.87276708407E-02  0.12858418400E-02  0.93345134660E-02  0.10310863724E+01  0.10310063766E+01 0.  0.
     999903    2    3    3    0    0 -0.12996311243E+00  0.32436999938E-01 -0.15898569005E-01  0.14187034952E+00  0.43952952334E-01 0.  0.
         14    1    1    2    0    0  0.87276708407E-02 -0.12858418400E-02 -0.93345134660E-02  0.12843627571E-01  0.00000000000E+00 0. -1.
     999901    1    3    3    0    0  0.12123544159E+00 -0.31151158098E-01  0.25233082471E-01  0.88921602291E+00  0.88000000000E+00 0.  1.
        -11    1    4    4    0    0 -0.75100845805E-01  0.87933750614E-02 -0.28509295419E-01  0.80811518560E-01  0.51100000000E-03 0. -1.
         11    1    4    4    0    0 -0.54862266624E-01  0.23643624877E-01  0.12610726414E-01  0.61058830960E-01  0.51100000000E-03 0.  1.
</event>
<event>
 8    1  0.2190295E+004  0.1043930E+01  0.7957747E-01            NaN
         13   -1    0    0    0    0  0.00000000000E+00  0.00000000000E+00  0.74505805969E-08  0.10566000000E+00  0.10566000000E+00 0. -1.
     999900   -1    0    0    0    0 -0.00000000000E+00 -0.00000000000E+00 -0.74505805969E-08  0.93827000000E+00  0.93827000000E+00 0. -1.
     999902    2    1    2    0    0 -0.47639768787E-02  0.66783323983E-02  0.90188004130E-02  0.10317384308E+01  0.10316663972E+01 0.  0.
     999903    2    3    3    0    0 -0.63044057709E-01  0.30963707029E-01 -0.11373455001E+00  0.14097767037E+00  0.44786731405E-01 0.  0.
         14    1    1    2    0    0  0.47639768787E-02 -0.66783323983E-02 -0.90188004130E-02  0.12191569227E-01  0.00000000000E+00 0.  1.
     999901    1    3    3    0    0  0.58280080831E-01 -0.24285374631E-01  0.12275335042E+00  0.89076076041E+00  0.88000000000E+00 0.  1.
        -11    1    4    4    0    0 -0.26899215706E-01  0.11646183498E-01 -0.12705671034E-01  0.31951472471E-01  0.51100000000E-03 0.  1.
         11    1    4    4    0    0 -0.36144842004E-01  0.19317523531E-01 -0.10102887898E+00  0.10902619789E+00  0.51100000000E-03 0. -1.
</event>
<event>
 8    1  0.2190295E+004  0.1043930E+01  0.7957747E-01            NaN
         13   -1    0    0    0    0  0.00000000000E+00  0.00000000000E+00  0.74505805969E-08  0.10566000000E+00  0.10566000000E+00 0. -1.
     999900   -1    0    0    0    0 -0.00000000000E+00 -0.00000000000E+00 -0.74505805969E-08  0.93827000000E+00  0.93827000000E+00 0. -1.
     999902    2    1    2    0    0  0.13542810875E-01 -0.12077662479E-02  0.92796056994E-03  0.10303018110E+01  0.10302116744E+01 0.  0.
     999903    2    3    3    0    0 -0.67764028440E-01  0.78644775933E-01 -0.81354342333E-01  0.13914660114E+00  0.44342792664E-01 0.  0.
         14    1    1    2    0    0 -0.13542810875E-01  0.12077662479E-02 -0.92796056994E-03  0.13628189040E-01  0.00000000000E+00 0.  1.
     999901    1    3    3    0    0  0.81306839315E-01 -0.79852542181E-01  0.82282302903E-01  0.89115520982E+00  0.88000000000E+00 0.  1.
        -11    1    4    4    0    0 -0.64658085307E-01  0.73680686688E-01 -0.55536273586E-01  0.11266787648E+00  0.51100000000E-03 0.  1.
         11    1    4    4    0    0 -0.31059431329E-02  0.49640892450E-02 -0.25818068747E-01  0.26478724660E-01  0.51100000000E-03 0. -1.
</event>
<event>
 8    1  0.2190295E+004  0.1043930E+01  0.7957747E-01            NaN
         13   -1    0    0    0    0  0.00000000000E+00  0.00000000000E+00  0.74505805969E-08  0.10566000000E+00  0.10566000000E+00 0.  1.
     999900   -1    0    0    0    0 -0.00000000000E+00 -0.00000000000E+00 -0.74505805969E-08  0.93827000000E+00  0.93827000000E+00 0. -1.
     999902    2    1    2    0    0  0.13365324085E-02 -0.82815556222E-02  0.10366830604E-01  0.10305942713E+01  0.10305079866E+01 0.  0.
     999903    2    3    3    0    0  0.12310435413E+00 -0.18083101949E-01  0.49749794253E-01  0.14128302630E+00  0.44767967444E-01 0.  0.
         14    1    1    2    0    0 -0.13365324085E-02  0.82815556222E-02 -0.10366830604E-01  0.13335728670E-01  0.00000000000E+00 0. -1.
     999901    1    3    3    0    0 -0.12176782172E+00  0.98015463265E-02 -0.39382963649E-01  0.88931124503E+00  0.88000000000E+00 0. -1.
        -11    1    4    4    0    0  0.60129286278E-01  0.10535085300E-01  0.35622633205E-01  0.70680635311E-01  0.51100000000E-03 0. -1.
         11    1    4    4    0    0  0.62975067853E-01 -0.28618187248E-01  0.14127161048E-01  0.70602390985E-01  0.51100000000E-03 0.  1.
</event>
<event>
 8    1  0.2190295E+004  0.1043930E+01  0.7957747E-01            NaN
         13   -1    0    0    0    0  0.00000000000E+00  0.00000000000E+00  0.74505805969E-08  0.10566000000E+00  0.10566000000E+00 0.  1.
     999900   -1    0    0    0    0 -0.00000000000E+00 -0.00000000000E+00 -0.74505805969E-08  0.93827000000E+00  0.93827000000E+00 0. -1.
     999902    2    1    2    0    0 -0.53357025243E-02 -0.62904319451E-02 -0.95573186386E-02  0.10313053576E+01  0.10312280830E+01 0.  0.
     999903    2    3    3    0    0 -0.19727040759E-01  0.26582410659E-01 -0.13125408683E+00  0.14220590437E+00  0.43578701611E-01 0.  0.
         14    1    1    2    0    0  0.53357025243E-02  0.62904319451E-02  0.95573186386E-02  0.12624642373E-01  0.00000000000E+00 0.  1.
     999901    1    3    3    0    0  0.14391338235E-01 -0.32872842604E-01  0.12169676819E+00  0.88909945326E+00  0.88000000000E+00 0.  1.
        -11    1    4    4    0    0 -0.10500727866E-01 -0.10705370757E-01 -0.52175724030E-01  0.54290308047E-01  0.51100000000E-03 0. -1.
         11    1    4    4    0    0 -0.92263128936E-02  0.37287781416E-01 -0.79078362800E-01  0.87915596322E-01  0.51100000000E-03 0.  1.
</event>
<event>
 8    1  0.2216874E+004  0.1043930E+01  0.7957747E-01            NaN
         13   -1    0    0    0    0  0.00000000000E+00  0.00000000000E+00  0.74505805969E-08  0.10566000000E+00  0.10566000000E+00 0.  1.
     999900   -1    0    0    0    0 -0.00000000000E+00 -0.00000000000E+00 -0.74505805969E-08  0.93827000000E+00  0.93827000000E+00 0.  1.
     999902    2    1    2    0    0  0.13497391140E-02 -0.15460044293E-01  0.89410472820E-02  0.10260197490E+01  0.10258634160E+01 0.  0.
     999903    2    3    3    0    0 -0.10195231552E+00  0.42499894721E-01 -0.63113551366E-01  0.13516480332E+00  0.45669333241E-01 0.  0.
         14    1    1    2    0    0 -0.13497391140E-02  0.15460044293E-01 -0.89410472820E-02  0.17910251024E-01  0.00000000000E+00 0. -1.
     999901    1    3    3    0    0  0.10330205463E+00 -0.57959939014E-01  0.72054598648E-01  0.89085494566E+00  0.88000000000E+00 0. -1.
        -11    1    4    4    0    0 -0.38874788142E-01  0.16147935545E-01  0.36361363069E-04  0.42098306601E-01  0.51100000000E-03 0.  1.
         11    1    4    4    0    0 -0.63077527375E-01  0.26351959175E-01 -0.63149912729E-01  0.93066496715E-01  0.51100000000E-03 0. -1.
</event>
<event>
 8    1  0.2190295E+004  0.1043930E+01  0.7957747E-01            NaN
         13   -1    0    0    0    0  0.00000000000E+00  0.00000000000E+00  0.74505805969E-08  0.10566000000E+00  0.10566000000E+00 0.  1.
     999900   -1    0    0    0    0 -0.00000000000E+00 -0.00000000000E+00 -0.74505805969E-08  0.93827000000E+00  0.93827000000E+00 0. -1.
     999902    2    1    2    0    0 -0.12954379934E-01  0.57234772757E-03  0.29818483796E-02  0.10306245514E+01  0.10305386606E+01 0.  0.
     999903    2    3    3    0    0  0.12814550409E+00  0.25477055112E-01  0.16309702447E-01  0.13893679589E+00  0.44351733924E-01 0.  0.
         14    1    1    2    0    0  0.12954379934E-01 -0.57234772757E-03 -0.29818483796E-02  0.13305448551E-01  0.00000000000E+00 0. -1.
     999901    1    3    3    0    0 -0.14109988402E+00 -0.24904707384E-01 -0.13327854068E-01  0.89168775556E+00  0.88000000000E+00 0. -1.
        -11    1    4    4    0    0  0.63872618254E-01  0.76555713799E-02 -0.13736273171E-01  0.65781953889E-01  0.51100000000E-03 0. -1.
         11    1    4    4    0    0  0.64272885836E-01  0.17821483732E-01  0.30045975619E-01  0.73154842000E-01  0.51100000000E-03 0.  1.
</event>
<event>
 8    1  0.2190295E+004  0.1043930E+01  0.7957747E-01            NaN
         13   -1    0    0    0    0  0.00000000000E+00  0.00000000000E+00  0.74505805969E-08  0.10566000000E+00  0.10566000000E+00 0.  1.
     999900   -1    0    0    0    0 -0.00000000000E+00 -0.00000000000E+00 -0.74505805969E-08  0.93827000000E+00  0.93827000000E+00 0.  1.
     999902    2    1    2    0    0  0.14135351754E-02 -0.52661516477E-02  0.12646338865E-01  0.10301582782E+01  0.10300662201E+01 0.  0.
     999903    2    3    3    0    0 -0.54420171092E-01 -0.72494701094E-01 -0.95580759881E-01  0.13923169002E+00  0.45085974944E-01 0.  0.
         14    1    1    2    0    0 -0.14135351754E-02  0.52661516477E-02 -0.12646338865E-01  0.13771721808E-01  0.00000000000E+00 0. -1.
     999901    1    3    3    0    0  0.55833706267E-01  0.67228549447E-01  0.10822709875E+00  0.89092658818E+00  0.88000000000E+00 0. -1.
        -11    1    4    4    0    0 -0.24860857157E-01 -0.22177788860E-01 -0.65703578641E-01  0.73669110925E-01  0.51100000000E-03 0.  1.
         11    1    4    4    0    0 -0.29559313935E-01 -0.50316912235E-01 -0.29877181241E-01  0.65562579091E-01  0.51100000000E-03 0. -1.
</event>
<event>
 8    1  0.2190295E+004  0.1043930E+01  0.7957747E-01            NaN
         13   -1    0    0    0    0  0.00000000000E+00  0.00000000000E+00  0.74505805969E-08  0.10566000000E+00  0.10566000000E+00 0.  1.
     999900   -1    0    0    0    0 -0.00000000000E+00 -0.00000000000E+00 -0.74505805969E-08  0.93827000000E+00  0.93827000000E+00 0.  1.
     999902    2    1    2    0    0 -0.39143686209E-02  0.58529561728E-02 -0.12483954352E-01  0.10295972231E+01  0.10294974567E+01 0.  0.
     999903    2    3    3    0    0  0.60234777854E-01  0.99649896918E-01 -0.64719241059E-01  0.14075443369E+00  0.45441171004E-01 0.  0.
         14    1    1    2    0    0  0.39143686209E-02 -0.58529561728E-02  0.12483954352E-01  0.14332776909E-01  0.00000000000E+00 0. -1.
     999901    1    3    3    0    0 -0.64149146475E-01 -0.93796940745E-01  0.52235286707E-01  0.88884278940E+00  0.88000000000E+00 0. -1.
        -11    1    4    4    0    0  0.15123447447E-01  0.42111441709E-01 -0.48251045646E-01  0.65806661612E-01  0.51100000000E-03 0. -1.
         11    1    4    4    0    0  0.45111330406E-01  0.57538455209E-01 -0.16468195413E-01  0.74947772082E-01  0.51100000000E-03 0.  1.
</event>
<event>
 8    1  0.2190295E+004  0.1043930E+01  0.7957747E-01            NaN
         13   -1    0    0    0    0  0.00000000000E+00  0.00000000000E+00  0.74505805969E-08  0.10566000000E+00  0.10566000000E+00 0. -1.
     999900   -1    0    0    0    0 -0.00000000000E+00 -0.00000000000E+00 -0.74505805969E-08  0.93827000000E+00  0.93827000000E+00 0. -1.
     999902    2    1    2    0    0  0.99913221837E-02  0.97318085899E-02 -0.10112371150E-02  0.10299458226E+01  0.10298508825E+01 0.  0.
     999903    2    3    3    0    0 -0.16656922584E-01  0.12477877536E+00  0.44097742248E-01  0.14091221606E+00  0.45436174056E-01 0.  0.
         14    1    1    2    0    0 -0.99913221837E-02 -0.97318085899E-02  0.10112371150E-02  0.13984177413E-01  0.00000000000E+00 0. -1.
     999901    1    3    3    0    0  0.26648244768E-01 -0.11504696677E+00 -0.45108979363E-01  0.88903360653E+00  0.88000000000E+00 0. -1.
        -11    1    4    4    0    0 -0.27394505023E-01  0.67104256683E-01  0.38244192023E-01  0.81953154392E-01  0.51100000000E-03 0.  1.
         11    1    4    4    0    0  0.10737582438E-01  0.57674518681E-01  0.58535502252E-02  0.58959061669E-01  0.51100000000E-03 0. -1.
</event>
<event>
 8    1  0.2190295E+004  0.1043930E+01  0.7957747E-01            NaN
         13   -1    0    0    0    0  0.00000000000E+00  0.00000000000E+00  0.74505805969E-08  0.10566000000E+00  0.10566000000E+00 0. -1.
     999900   -1    0    0    0    0 -0.00000000000E+00 -0.00000000000E+00 -0.74505805969E-08  0.93827000000E+00  0.93827000000E+00 0. -1.
     999902    2    1    2    0    0 -0.32321780141E-03 -0.28773926877E-02 -0.13774151860E-01  0.10298548049E+01  0.10297586164E+01 0.  0.
     999903    2    3    3    0    0 -0.37464833937E-01 -0.11568039490E+00 -0.55269478549E-01  0.14090830530E+00  0.44887277699E-01 0.  0.
         14    1    1    2    0    0  0.32321780141E-03  0.28773926877E-02  0.13774151860E-01  0.14075195128E-01  0.00000000000E+00 0. -1.
     999901    1    3    3    0    0  0.37141616136E-01  0.11280300221E+00  0.41495326689E-01  0.88894649957E+00  0.88000000000E+00 0.  1.
        -11    1    4    4    0    0 -0.22706545885E-01 -0.94420957179E-01 -0.60613041746E-01  0.11447753636E+00  0.51100000000E-03 0. -1.
         11    1    4    4    0    0 -0.14758288052E-01 -0.21259437717E-01  0.53435631962E-02  0.26430768943E-01  0.51100000000E-03 0.  1.
</event>
<event>
 8    1  0.2190295E+004  0.1043930E+01  0.7957747E-01            NaN
         13   -1    0    0    0    0  0.00000000000E+00  0.00000000000E+00  0.74505805969E-08  0.10566000000E+00  0.10566000000E+00 0. -1.
     999900   -1    0    0    0    0 -0.00000000000E+00 -0.00000000000E+00 -0.74505805969E-08  0.93827000000E+00  0.93827000000E+00 0. -1.
     999902    2    1    2    0    0 -0.84805124637E-02 -0.13038358757E-01 -0.80388035891E-05  0.10283762881E+01  0.10282586600E+01 0.  0.
     999903    2    3    3    0    0 -0.51523559796E-01 -0.41508600089E-01 -0.11400896343E+00  0.13952339281E+00  0.45728462716E-01 0.  0.
         14    1    1    2    0    0  0.84805124637E-02  0.13038358757E-01  0.80388035891E-05  0.15553711948E-01  0.00000000000E+00 0. -1.
     999901    1    3    3    0    0  0.43043047332E-01  0.28470241332E-01  0.11400092463E+00  0.88885289524E+00  0.88000000000E+00 0.  1.
        -11    1    4    4    0    0 -0.53137285474E-01 -0.44824216609E-01 -0.82896739751E-01  0.10818924200E+00  0.51100000000E-03 0. -1.
         11    1    4    4    0    0  0.16137256780E-02  0.33156165198E-02 -0.31112223683E-01  0.31334150810E-01  0.51100000000E-03 0.  1.
</event>
<event>
 8    1  0.2190295E+004  0.1043930E+01  0.7957747E-01            NaN
         13   -1    0    0    0    0  0.00000000000E+00  0.00000000000E+00  0.74505805969E-08  0.10566000000E+00  0.10566000000E+00 0.  1.
     999900   -1    0    0    0    0 -0.00000000000E+00 -0.00000000000E+00 -0.74505805969E-08  0.93827000000E+00  0.93827000000E+00 0. -1.
     999902    2    1    2    0    0 -0.12128580007E-01  0.22365307255E-02 -0.83843351472E-02  0.10290168649E+01  0.10289087941E+01 0.  0.
     999903    2    3    3    0    0 -0.12640982124E+00  0.34972768152E-01  0.21171896401E-01  0.14053195554E+00  0.45808775494E-01 0.  0.
         14    1    1    2    0    0  0.12128580007E-01 -0.22365307255E-02  0.83843351472E-02  0.14913135101E-01  0.00000000000E+00 0. -1.
     999901    1    3    3    0    0  0.11428124123E+00 -0.32736237426E-01 -0.29556231548E-01  0.88848490936E+00  0.88000000000E+00 0.  1.
        -11    1    4    4    0    0 -0.89352291009E-01  0.39558820589E-02  0.50410485663E-02  0.89583225009E-01  0.51100000000E-03 0. -1.
         11    1    4    4    0    0 -0.37057530231E-01  0.31016886093E-01  0.16130847834E-01  0.50948730529E-01  0.51100000000E-03 0.  1.
</event>
<event>
 8    1  0.2190295E+004  0.1043930E+01  0.7957747E-01            NaN
         13   -1    0    0    0    0  0.00000000000E+00  0.00000000000E+00  0.74505805969E-08  0.10566000000E+00  0.10566000000E+00 0.  1.
     999900   -1    0    0    0    0 -0.00000000000E+00 -0.00000000000E+00 -0.74505805969E-08  0.93827000000E+00  0.93827000000E+00 0.  1.
     999902    2    1    2    0    0  0.81498122640E-02  0.10719383945E-01  0.32255394751E-02  0.10300833854E+01  0.10299903165E+01 0.  0.
     999903    2    3    3    0    0 -0.46123479720E-01 -0.11173145534E+00  0.52023708928E-01  0.13861209608E+00  0.43537953503E-01 0.  0.
         14    1    1    2    0    0 -0.81498122640E-02 -0.10719383945E-01 -0.32255394751E-02  0.13846614641E-01  0.00000000000E+00 0. -1.
     999901    1    3    3    0    0  0.54273291984E-01  0.12245083929E+00 -0.48798169453E-01  0.89147128928E+00  0.88000000000E+00 0.  1.
        -11    1    4    4    0    0 -0.34797290918E-01 -0.67407042115E-01  0.10049677612E-01  0.76523316205E-01  0.51100000000E-03 0. -1.
         11    1    4    4    0    0 -0.11326188802E-01 -0.44324413227E-01  0.41974031316E-01  0.62088779877E-01  0.51100000000E-03 0.  1.
</event>
<event>
 8    1  0.2190295E+004  0.1043930E+01  0.7957747E-01            NaN
         13   -1    0    0    0    0  0.00000000000E+00  0.00000000000E+00  0.74505805969E-08  0.10566000000E+00  0.10566000000E+00 0.  1.
     999900   -1    0    0    0    0 -0.00000000000E+00 -0.00000000000E+00 -0.74505805969E-08  0.93827000000E+00  0.93827000000E+00 0. -1.
     999902    2    1    2    0    0 -0.93504518445E-02 -0.42647643091E-02  0.38283984012E-02  0.10329629676E+01  0.10329047472E+01 0.  0.
     999903    2    3    3    0    0 -0.61246672665E-01 -0.51487839500E-01  0.10981747261E+00  0.14383028890E+00  0.47171200800E-01 0.  0.
         14    1    1    2    0    0  0.93504518445E-02  0.42647643091E-02 -0.38283984012E-02  0.10967032353E-01  0.00000000000E+00 0. -1.
     999901    1    3    3    0    0  0.51896220820E-01  0.47223075191E-01 -0.10598907421E+00  0.88913267875E+00  0.88000000000E+00 0. -1.
        -11    1    4    4    0    0 -0.39018898650E-01 -0.22116472390E-01  0.93172053100E-01  0.10340650561E+00  0.51100000000E-03 0.  1.
         11    1    4    4    0    0 -0.22227774015E-01 -0.29371367110E-01  0.16645419512E-01  0.40423783288E-01  0.51100000000E-03 0. -1.
</event>
<event>
 8    1  0.2190295E+004  0.1043930E+01  0.7957747E-01            NaN
         13   -1    0    0    0    0  0.00000000000E+00  0.00000000000E+00  0.74505805969E-08  0.10566000000E+00  0.10566000000E+00 0. -1.
     999900   -1    0    0    0    0 -0.00000000000E+00 -0.00000000000E+00 -0.74505805969E-08  0.93827000000E+00  0.93827000000E+00 0.  1.
     999902    2    1    2    0    0  0.59040419241E-02  0.13773201625E-01 -0.97820742380E-04  0.10289443948E+01  0.10288352634E+01 0.  0.
     999903    2    3    3    0    0  0.11090205234E+00  0.54668333304E-01  0.48907471806E-01  0.14040710652E+00  0.45103468646E-01 0.  0.
         14    1    1    2    0    0 -0.59040419241E-02 -0.13773201625E-01  0.97820742380E-04  0.14985605191E-01  0.00000000000E+00 0. -1.
     999901    1    3    3    0    0 -0.10499801041E+00 -0.40895131679E-01 -0.49005292548E-01  0.88853728829E+00  0.88000000000E+00 0.  1.
        -11    1    4    4    0    0  0.30537628280E-01  0.21733110828E-01  0.37126170796E-01  0.52758776769E-01  0.51100000000E-03 0.  1.
         11    1    4    4    0    0  0.80364424055E-01  0.32935222476E-01  0.11781301010E-01  0.87648329749E-01  0.51100000000E-03 0. -1.
</event>
<event>
 8    1  0.2190295E+004  0.1043930E+01  0.7957747E-01            NaN
         13   -1    0    0    0    0  0.00000000000E+00  0.00000000000E+00  0.74505805969E-08  0.10566000000E+00  0.10566000000E+00 0. -1.
     999900   -1    0    0    0    0 -0.00000000000E+00 -0.00000000000E+00 -0.74505805969E-08  0.93827000000E+00  0.93827000000E+00 0.  1.
     999902    2    1    2    0    0 -0.75052293551E-02  0.45493500847E-02 -0.98001850693E-02  0.10307744430E+01  0.10306904887E+01 0.  0.
     999903    2    3    3    0    0 -0.12681038870E+00  0.22028553614E-02  0.43479949907E-01  0.14112394986E+00  0.44042433242E-01 0.  0.
         14    1    1    2    0    0  0.75052293551E-02 -0.45493500847E-02  0.98001850693E-02  0.13155557049E-01  0.00000000000E+00 0. -1.
     999901    1    3    3    0    0  0.11930515934E+00  0.23464947233E-02 -0.53280134977E-01  0.88965049310E+00  0.88000000000E+00 0. -1.
        -11    1    4    4    0    0 -0.62154217887E-01 -0.18345439639E-01  0.10371885856E-01  0.65631845120E-01  0.51100000000E-03 0.  1.
         11    1    4    4    0    0 -0.64656170809E-01  0.20548295000E-01  0.33108064052E-01  0.75492104735E-01  0.51100000000E-03 0. -1.
</event>
<event>
 8    1  0.2190295E+004  0.1043930E+01  0.7957747E-01            NaN
         13   -1    0    0    0    0  0.00000000000E+00  0.00000000000E+00  0.74505805969E-08  0.10566000000E+00  0.10566000000E+00 0. -1.
     999900   -1    0    0    0    0 -0.00000000000E+00 -0.00000000000E+00 -0.74505805969E-08  0.93827000000E+00  0.93827000000E+00 0. -1.
     999902    2    1    2    0    0 -0.56841822911E-03 -0.14305150526E-03 -0.14114666755E-01  0.10298031681E+01  0.10297062676E+01 0.  0.
     999903    2    3    3    0    0 -0.59657203405E-01  0.94691851455E-01  0.68209934172E-01  0.13892580093E+00  0.46067932379E-01 0.  0.
         14    1    1    2    0    0  0.56841822911E-03  0.14305150526E-03  0.14114666755E-01  0.14126831939E-01  0.00000000000E+00 0. -1.
     999901    1    3    3    0    0  0.59088785176E-01 -0.94834902960E-01 -0.82324600927E-01  0.89087736713E+00  0.88000000000E+00 0. -1.
        -11    1    4    4    0    0 -0.46335655959E-01  0.41589756294E-01  0.18448135768E-01  0.64940708928E-01  0.51100000000E-03 0.  1.
         11    1    4    4    0    0 -0.13321547445E-01  0.53102095160E-01  0.49761798404E-01  0.73985091999E-01  0.51100000000E-03 0. -1.
</event>
<event>
 8    1  0.2190295E+004  0.1043930E+01  0.7957747E-01            NaN
         13   -1    0    0    0    0  0.00000000000E+00  0.00000000000E+00  0.74505805969E-08  0.10566000000E+00  0.10566000000E+00 0. -1.
     999900   -1    0    0    0    0 -0.00000000000E+00 -0.00000000000E+00 -0.74505805969E-08  0.93827000000E+00  0.93827000000E+00 0. -1.
     999902    2    1    2    0    0  0.95242832157E-02 -0.54986230376E-02  0.63021812478E-02  0.10312546572E+01  0.10311767568E+01 0.  0.
     999903    2    3    3    0    0  0.11858130919E+00 -0.61154015846E-01  0.22905548181E-01  0.14262277086E+00  0.44891536917E-01 0.  0.
         14    1    1    2    0    0 -0.95242832157E-02  0.54986230376E-02 -0.63021812478E-02  0.12675342779E-01  0.00000000000E+00 0. -1.
     999901    1    3    3    0    0 -0.10905702598E+00  0.55655392808E-01 -0.16603366933E-01  0.88863188636E+00  0.88000000000E+00 0. -1.
        -11    1    4    4    0    0  0.49049361115E-01 -0.14179066132E-01  0.28584054922E-01  0.58516622074E-01  0.51100000000E-03 0.  1.
         11    1    4    4    0    0  0.69531948077E-01 -0.46974949713E-01 -0.56785067407E-02  0.84106148787E-01  0.51100000000E-03 0. -1.
</event>
<event>
 8    1  0.2190295E+004  0.1043930E+01  0.7957747E-01            NaN
         13   -1    0    0    0    0  0.00000000000E+00  0.00000000000E+00  0.74505805969E-08  0.10566000000E+00  0.10566000000E+00 0.  1.
     999900   -1    0    0    0    0 -0.00000000000E+00 -0.00000000000E+00 -0.74505805969E-08  0.93827000000E+00  0.93827000000E+00 0. -1.
     999902    2    1    2    0    0  0.29857924602E-02  0.84669119196E-02 -0.10274584871E-01  0.10302855635E+01  0.10301952105E+01 0.  0.
     999903    2    3    3    0    0 -0.57761004870E-01  0.96443074610E-01  0.68576784324E-01  0.14031504878E+00  0.48455518176E-01 0.  0.
         14    1    1    2    0    0 -0.29857924602E-02 -0.84669119196E-02  0.10274584871E-01  0.13644436535E-01  0.00000000000E+00 0.  1.
     999901    1    3    3    0    0  0.60746797330E-01 -0.87976162690E-01 -0.78851369196E-01  0.88997051469E+00  0.88000000000E+00 0. -1.
        -11    1    4    4    0    0 -0.39381051520E-01  0.84902938484E-01  0.72329763301E-01  0.11828453814E+00  0.51100000000E-03 0.  1.
         11    1    4    4    0    0 -0.18379953350E-01  0.11540136125E-01 -0.37529789763E-02  0.22030510642E-01  0.51100000000E-03 0. -1.
</event>
<event>
 8    1  0.2190295E+004  0.1043930E+01  0.7957747E-01            NaN
         13   -1    0    0    0    0  0.00000000000E+00  0.00000000000E+00  0.74505805969E-08  0.10566000000E+00  0.10566000000E+00 0. -1.
     999900   -1    0    0    0    0 -0.00000000000E+00 -0.00000000000E+00 -0.74505805969E-08  0.93827000000E+00  0.93827000000E+00 0. -1.
     999902    2    1    2    0    0  0.49794606886E-02  0.11416486480E-01 -0.59129176682E-02  0.10301425496E+01  0.10300502797E+01 0.  0.
     999903    2    3    3    0    0  0.11148361578E+00 -0.41438144777E-01 -0.59854319152E-01  0.14050980412E+00  0.44885956636E-01 0.  0.
         14    1    1    2    0    0 -0.49794606886E-02 -0.11416486480E-01  0.59129176682E-02  0.13787450368E-01  0.00000000000E+00 0. -1.
     999901    1    3    3    0    0 -0.10650415509E+00  0.52854631258E-01  0.53941401483E-01  0.88963274551E+00  0.88000000000E+00 0.  1.
        -11    1    4    4    0    0  0.61320379719E-01  0.10526928705E-02 -0.30852829982E-01  0.68654609241E-01  0.51100000000E-03 0. -1.
         11    1    4    4    0    0  0.50163236057E-01 -0.42490837648E-01 -0.29001489170E-01  0.71855194877E-01  0.51100000000E-03 0.  1.
</event>
<event>
 8    1  0.2190295E+004  0.1043930E+01  0.7957747E-01            NaN
         13   -1    0    0    0    0  0.00000000000E+00  0.00000000000E+00  0.74505805969E-08  0.10566000000E+00  0.10566000000E+00 0.  1.
     999900   -1    0    0    0    0 -0.00000000000E+00 -0.00000000000E+00 -0.74505805969E-08  0.93827000000E+00  0.93827000000E+00 0.  1.
     999902    2    1    2    0    0 -0.54407943516E-02  0.11958100413E-01 -0.30353949235E-02  0.10304462308E+01  0.10303580070E+01 0.  0.
     999903    2    3    3    0    0  0.81489594546E-01  0.10273882685E+00  0.32011407650E-01  0.14082478821E+00  0.40138138866E-01 0.  0.
         14    1    1    2    0    0  0.54407943516E-02 -0.11958100413E-01  0.30353949235E-02  0.13483769169E-01  0.00000000000E+00 0.  1.
     999901    1    3    3    0    0 -0.86930388897E-01 -0.90780726438E-01 -0.35046802574E-01  0.88962144262E+00  0.88000000000E+00 0.  1.
        -11    1    4    4    0    0  0.74663255463E-01  0.69302218961E-01  0.15978076877E-01  0.10311624184E+00  0.51100000000E-03 0.  1.
         11    1    4    4    0    0  0.68263390828E-02  0.33436607890E-01  0.16033330774E-01  0.37708546368E-01  0.51100000000E-03 0. -1.
</event>
<event>
 7    1  0.2190295E+004  0.1043930E+01  0.7957747E-01            NaN
         13   -1    0    0    0    0  0.00000000000E+00  0.00000000000E+00  0.74505805969E-08  0.10566000000E+00  0.10566000000E+00 0. -1.
     999900   -1    0    0    0    0 -0.00000000000E+00 -0.00000000000E+00 -0.74505805969E-08  0.93827000000E+00  0.93827000000E+00 0.  1.
     999903    2    1    2    0    0 -0.83702028674E-03  0.30004861566E-01 -0.88582933050E-01  0.10310020810E+00  0.43378849241E-01 0.  0.
         14    1    1    2    0    0 -0.52223577604E-02  0.43072740820E-01 -0.25679741144E-01  0.50418083339E-01  0.00000000000E+00 0. -1.
     999901    1    1    2    0    0  0.60593780472E-02 -0.73077602386E-01  0.11426267419E+00  0.89041170856E+00  0.88000000000E+00 0. -1.
        -11    1    3    3    0    0 -0.60158672086E-02  0.15912692233E-02 -0.66364278470E-01  0.66657342985E-01  0.51100000000E-03 0.  1.
         11    1    3    3    0    0  0.51788469219E-02  0.28413592343E-01 -0.22218654581E-01  0.36442865113E-01  0.51100000000E-03 0. -1.
</event>
<event>
 8    1  0.2190295E+004  0.1043930E+01  0.7957747E-01            NaN
         13   -1    0    0    0    0  0.00000000000E+00  0.00000000000E+00  0.74505805969E-08  0.10566000000E+00  0.10566000000E+00 0.  1.
     999900   -1    0    0    0    0 -0.00000000000E+00 -0.00000000000E+00 -0.74505805969E-08  0.93827000000E+00  0.93827000000E+00 0.  1.
     999902    2    1    2    0    0 -0.11795980153E-01  0.52492585536E-02 -0.24393588535E-02  0.10307903526E+01  0.10307066026E+01 0.  0.
     999903    2    3    3    0    0 -0.10985985198E-01 -0.15163609484E-01  0.13253166179E+00  0.14026549739E+00  0.41942120324E-01 0.  0.
         14    1    1    2    0    0  0.11795980153E-01 -0.52492585536E-02  0.24393588535E-02  0.13139647436E-01  0.00000000000E+00 0. -1.
     999901    1    3    3    0    0 -0.80999495472E-03  0.20412868038E-01 -0.13497102064E+00  0.89052485518E+00  0.88000000000E+00 0.  1.
        -11    1    4    4    0    0 -0.22250932295E-01 -0.23145202435E-01  0.91566788202E-01  0.97033716854E-01  0.51100000000E-03 0.  1.
         11    1    4    4    0    0  0.11264947096E-01  0.79815929507E-02  0.40964873587E-01  0.43231780534E-01  0.51100000000E-03 0. -1.
</event>
<event>
 8    1  0.2190295E+004  0.1043930E+01  0.7957747E-01            NaN
         13   -1    0    0    0    0  0.00000000000E+00  0.00000000000E+00  0.74505805969E-08  0.10566000000E+00  0.10566000000E+00 0. -1.
     999900   -1    0    0    0    0 -0.00000000000E+00 -0.00000000000E+00 -0.74505805969E-08  0.93827000000E+00  0.93827000000E+00 0. -1.
     999902    2    1    2    0    0 -0.93889763410E-03  0.28335339371E-02  0.12655317359E-01  0.10309274041E+01  0.10308454030E+01 0.  0.
     999903    2    3    3    0    0  0.61262002833E-02  0.13004608979E+00  0.33490728086E-01  0.14150789433E+00  0.44196600446E-01 0.  0.
         14    1    1    2    0    0  0.93889763410E-03 -0.28335339371E-02 -0.12655317359E-01  0.13002595925E-01  0.00000000000E+00 0.  1.
     999901    1    3    3    0    0 -0.70650979174E-02 -0.12721255585E+00 -0.20835410727E-01  0.88941950974E+00  0.88000000000E+00 0. -1.
        -11    1    4    4    0    0 -0.57968736225E-02  0.11856036363E+00  0.37463817273E-01  0.12447474561E+00  0.51100000000E-03 0.  1.
         11    1    4    4    0    0  0.11923073906E-01  0.11485726154E-01 -0.39730891873E-02  0.17033148720E-01  0.51100000000E-03 0. -1.
</event>
<event>
 8    1  0.2190295E+004  0.1043930E+01  0.7957747E-01            NaN
         13   -1    0    0    0    0  0.00000000000E+00  0.00000000000E+00  0.74505805969E-08  0.10566000000E+00  0.10566000000E+00 0.  1.
     999900   -1    0    0    0    0 -0.00000000000E+00 -0.00000000000E+00 -0.74505805969E-08  0.93827000000E+00  0.93827000000E+00 0. -1.
     999902    2    1    2    0    0  0.94273195560E-02  0.18928381983E-02  0.99122366010E-02  0.10301202344E+01  0.10300276636E+01 0.  0.
     999903    2    3    3    0    0  0.38214971965E-02 -0.13114384340E+00  0.13228620519E-01  0.14009709862E+00  0.47316901168E-01 0.  0.
         14    1    1    2    0    0 -0.94273195560E-02 -0.18928381983E-02 -0.99122366010E-02  0.13809765562E-01  0.00000000000E+00 0. -1.
     999901    1    3    3    0    0  0.56058223595E-02  0.13303668160E+00 -0.33163839177E-02  0.89002313582E+00  0.88000000000E+00 0.  1.
        -11    1    4    4    0    0  0.80036860692E-02 -0.51891963784E-01  0.27789904519E-01  0.59408541559E-01  0.51100000000E-03 0.  1.
         11    1    4    4    0    0 -0.41821888727E-02 -0.79251879620E-01 -0.14561284001E-01  0.80688557056E-01  0.51100000000E-03 0. -1.
</event>
<event>
 8    1  0.2190295E+004  0.1043930E+01  0.7957747E-01            NaN
         13   -1    0    0    0    0  0.00000000000E+00  0.00000000000E+00  0.74505805969E-08  0.10566000000E+00  0.10566000000E+00 0.  1.
     999900   -1    0    0    0    0 -0.00000000000E+00 -0.00000000000E+00 -0.74505805969E-08  0.93827000000E+00  0.93827000000E+00 0.  1.
     999902    2    1    2    0    0 -0.10011149072E-01  0.67888277407E-02 -0.69315776321E-02  0.10299887642E+01  0.10298944103E+01 0.  0.
     999903    2    3    3    0    0  0.60021634544E-01  0.11803396330E+00  0.38851601301E-02  0.14015896428E+00  0.45769287649E-01 0.  0.
         14    1    1    2    0    0  0.10011149072E-01 -0.67888277407E-02  0.69315776321E-02  0.13941235824E-01  0.00000000000E+00 0.  1.
     999901    1    3    3    0    0 -0.70032783616E-01 -0.11124513556E+00 -0.10816737762E-01  0.88982979990E+00  0.88000000000E+00 0.  1.
        -11    1    4    4    0    0  0.32442631704E-01  0.22759625696E-01  0.96958324384E-02  0.40801901933E-01  0.51100000000E-03 0. -1.
         11    1    4    4    0    0  0.27579002841E-01  0.95274337609E-01 -0.58106723083E-02  0.99357062346E-01  0.51100000000E-03 0.  1.
</event>
<event>
 8    1  0.2190295E+004  0.1043930E+01  0.7957747E-01            NaN
         13   -1    0    0    0    0  0.00000000000E+00  0.00000000000E+00  0.74505805969E-08  0.10566000000E+00  0.10566000000E+00 0.  1.
     999900   -1    0    0    0    0 -0.00000000000E+00 -0.00000000000E+00 -0.74505805969E-08  0.93827000000E+00  0.93827000000E+00 0.  1.
     999902    2    1    2    0    0  0.19552810317E-02 -0.13435156849E-01 -0.16244230480E-02  0.10302564740E+01  0.10301657327E+01 0.  0.
     999903    2    3    3    0    0 -0.10348337702E+00  0.13606862252E-01 -0.81631299203E-01  0.13994771763E+00  0.45030419055E-01 0.  0.
         14    1    1    2    0    0 -0.19552810317E-02  0.13435156849E-01  0.16244230480E-02  0.13673526016E-01  0.00000000000E+00 0.  1.
     999901    1    3    3    0    0  0.10543865805E+00 -0.27042019101E-01  0.80006876155E-01  0.89030875635E+00  0.88000000000E+00 0. -1.
        -11    1    4    4    0    0 -0.39456408872E-01  0.27010852988E-01 -0.40581738265E-01  0.62717884067E-01  0.51100000000E-03 0. -1.
         11    1    4    4    0    0 -0.64026968148E-01 -0.13403990736E-01 -0.41049560938E-01  0.77229833562E-01  0.51100000000E-03 0.  1.
</event>
<event>
 8    1  0.2190295E+004  0.1043930E+01  0.7957747E-01            NaN
         13   -1    0    0    0    0  0.00000000000E+00  0.00000000000E+00  0.74505805969E-08  0.10566000000E+00  0.10566000000E+00 0. -1.
     999900   -1    0    0    0    0 -0.00000000000E+00 -0.00000000000E+00 -0.74505805969E-08  0.93827000000E+00  0.93827000000E+00 0. -1.
     999902    2    1    2    0    0 -0.15773503149E-01  0.62325179169E-02  0.37146190472E-02  0.10265677975E+01  0.10264209647E+01 0.  0.
     999903    2    3    3    0    0  0.10010299148E+00 -0.74971343714E-01 -0.22576867177E-01  0.13487689174E+00  0.45174657873E-01 0.  0.
         14    1    1    2    0    0  0.15773503149E-01 -0.62325179169E-02 -0.37146190472E-02  0.17362202506E-01  0.00000000000E+00 0.  1.
     999901    1    3    3    0    0 -0.11587649463E+00  0.81203861631E-01  0.26291486225E-01  0.89169090575E+00  0.88000000000E+00 0.  1.
        -11    1    4    4    0    0  0.61188712323E-01 -0.18378673866E-01 -0.16105993214E-01  0.65890047103E-01  0.51100000000E-03 0.  1.
         11    1    4    4    0    0  0.38914279155E-01 -0.56592669848E-01 -0.64708739631E-02  0.68986844641E-01  0.51100000000E-03 0. -1.
</event>
<event>
 8    1  0.2190295E+004  0.1043930E+01  0.7957747E-01            NaN
         13   -1    0    0    0    0  0.00000000000E+00  0.00000000000E+00  0.74505805969E-08  0.10566000000E+00  0.10566000000E+00 0.  1.
     999900   -1    0    0    0    0 -0.00000000000E+00 -0.00000000000E+00 -0.74505805969E-08  0.93827000000E+00  0.93827000000E+00 0. -1.
     999902    2    1    2    0    0  0.87930421234E-02  0.98966932576E-02 -0.46440731780E-02  0.10299004047E+01  0.10298048428E+01 0.  0.
     999903    2    3    3    0    0  0.22993899612E-02 -0.84144576833E-01 -0.10164606526E+00  0.13956602124E+00  0.45399941584E-01 0.  0.
         14    1    1    2    0    0 -0.87930421234E-02 -0.98966932576E-02  0.46440731780E-02  0.14029595251E-01  0.00000000000E+00 0.  1.
     999901    1    3    3    0    0  0.64936521622E-02  0.94041270091E-01  0.97001992083E-01  0.89033438351E+00  0.88000000000E+00 0.  1.
        -11    1    4    4    0    0  0.23190102460E-01 -0.45219137494E-01 -0.62351759873E-01  0.80439755893E-01  0.51100000000E-03 0.  1.
         11    1    4    4    0    0 -0.20890712499E-01 -0.38925439339E-01 -0.39294305388E-01  0.59126265343E-01  0.51100000000E-03 0. -1.
</event>
<event>
 8    1  0.2190295E+004  0.1043930E+01  0.7957747E-01            NaN
         13   -1    0    0    0    0  0.00000000000E+00  0.00000000000E+00  0.74505805969E-08  0.10566000000E+00  0.10566000000E+00 0. -1.
     999900   -1    0    0    0    0 -0.00000000000E+00 -0.00000000000E+00 -0.74505805969E-08  0.93827000000E+00  0.93827000000E+00 0. -1.
     999902    2    1    2    0    0 -0.15994749519E-01  0.51076321998E-02  0.40957634181E-02  0.10266471994E+01  0.10265017179E+01 0.  0.
     999903    2    3    3    0    0 -0.56773493003E-01 -0.10275415371E+00  0.56337911516E-01  0.13758797031E+00  0.44439213406E-01 0.  0.
         14    1    1    2    0    0  0.15994749519E-01 -0.51076321998E-02 -0.40957634181E-02  0.17282800608E-01  0.00000000000E+00 0.  1.
     999901    1    3    3    0    0  0.40778743484E-01  0.10786178591E+00 -0.52242148098E-01  0.88905922908E+00  0.88000000000E+00 0. -1.
        -11    1    4    4    0    0 -0.34208690390E-01 -0.58857341684E-01  0.80777382471E-02  0.68556051115E-01  0.51100000000E-03 0.  1.
         11    1    4    4    0    0 -0.22564802613E-01 -0.43896812023E-01  0.48260173269E-01  0.69031919194E-01  0.51100000000E-03 0. -1.
</event>
<event>
 8    1  0.2190295E+004  0.1043930E+01  0.7957747E-01            NaN
         13   -1    0    0    0    0  0.00000000000E+00  0.00000000000E+00  0.74505805969E-08  0.10566000000E+00  0.10566000000E+00 0.  1.
     999900   -1    0    0    0    0 -0.00000000000E+00 -0.00000000000E+00 -0.74505805969E-08  0.93827000000E+00  0.93827000000E+00 0. -1.
     999902    2    1    2    0    0 -0.55072953126E-02  0.40542454316E-02  0.11723241154E-01  0.10303579113E+01  0.10302685203E+01 0.  0.
     999903    2    3    3    0    0  0.61926532613E-02 -0.10759847729E+00  0.78320215796E-01  0.14072968768E+00  0.45332190796E-01 0.  0.
         14    1    1    2    0    0  0.55072953126E-02 -0.40542454316E-02 -0.11723241154E-01  0.13572088669E-01  0.00000000000E+00 0. -1.
     999901    1    3    3    0    0 -0.11699948574E-01  0.11165272272E+00 -0.66596974641E-01  0.88962822365E+00  0.88000000000E+00 0. -1.
        -11    1    4    4    0    0  0.15611248117E-01 -0.10043155948E-01  0.86848236973E-02  0.20500325188E-01  0.51100000000E-03 0.  1.
         11    1    4    4    0    0 -0.94185948559E-02 -0.97555321341E-01  0.69635392098E-01  0.12022936249E+00  0.51100000000E-03 0. -1.
</event>
<event>
 8    1  0.2190295E+004  0.1043930E+01  0.7957747E-01            NaN
         13   -1    0    0    0    0  0.00000000000E+00  0.00000000000E+00  0.74505805969E-08  0.10566000000E+00  0.10566000000E+00 0. -1.
     999900   -1    0    0    0    0 -0.00000000000E+00 -0.00000000000E+00 -0.74505805969E-08  0.93827000000E+00  0.93827000000E+00 0.  1.
     999902    2    1    2    0    0  0.21145014863E-02 -0.13989247416E-01 -0.23907189801E-02  0.10295812824E+01  0.10294812924E+01 0.  0.
     999903    2    3    3    0    0 -0.96196509467E-01 -0.67372462765E-01 -0.62579801206E-01  0.14045949761E+00  0.44942427357E-01 0.  0.
         14    1    1    2    0    0 -0.21145014863E-02  0.13989247416E-01  0.23907189801E-02  0.14348717610E-01  0.00000000000E+00 0. -1.
     999901    1    3    3    0    0  0.98311010953E-01  0.53383215349E-01  0.60189082225E-01  0.88912178478E+00  0.88000000000E+00 0.  1.
        -11    1    4    4    0    0 -0.68778292831E-01 -0.21071363256E-01 -0.35728899474E-01  0.80319806354E-01  0.51100000000E-03 0.  1.
         11    1    4    4    0    0 -0.27418216636E-01 -0.46301099509E-01 -0.26850901732E-01  0.60139691254E-01  0.51100000000E-03 0. -1.
</event>
<event>
 8    1  0.2190295E+004  0.1043930E+01  0.7957747E-01            NaN
         13   -1    0    0    0    0  0.00000000000E+00  0.00000000000E+00  0.74505805969E-08  0.10566000000E+00  0.10566000000E+00 0.  1.
     999900   -1    0    0    0    0 -0.00000000000E+00 -0.00000000000E+00 -0.74505805969E-08  0.93827000000E+00  0.93827000000E+00 0. -1.
     999902    2    1    2    0    0 -0.91729539506E-02  0.10405193537E-01  0.25851786814E-02  0.10298199226E+01  0.10297232534E+01 0.  0.
     999903    2    3    3    0    0  0.11371444796E+00  0.22729767565E-01 -0.61776726390E-01  0.13886781189E+00  0.44947605573E-01 0.  0.
         14    1    1    2    0    0  0.91729539506E-02 -0.10405193537E-01 -0.25851786814E-02  0.14110077446E-01  0.00000000000E+00 0. -1.
     999901    1    3    3    0    0 -0.12288740191E+00 -0.12324574028E-01  0.64361905071E-01  0.89095211066E+00  0.88000000000E+00 0. -1.
        -11    1    4    4    0    0  0.95263203039E-01  0.15284313185E-01 -0.29400414000E-01  0.10086294437E+00  0.51100000000E-03 0.  1.
         11    1    4    4    0    0  0.18451244922E-01  0.74454543794E-02 -0.32376312390E-01  0.38004867518E-01  0.51100000000E-03 0. -1.
</event>
<event>
 8    1  0.2190295E+004  0.1043930E+01  0.7957747E-01            NaN
         13   -1    0    0    0    0  0.00000000000E+00  0.00000000000E+00  0.74505805969E-08  0.10566000000E+00  0.10566000000E+00 0.  1.
     999900   -1    0    0    0    0 -0.00000000000E+00 -0.00000000000E+00 -0.74505805969E-08  0.93827000000E+00  0.93827000000E+00 0. -1.
     999902    2    1    2    0    0  0.80238639343E-02  0.94662195799E-02 -0.60420597737E-02  0.10301278918E+01  0.10300354242E+01 0.  0.
     999903    2    3    3    0    0 -0.10106654143E+00 -0.57659553865E-01 -0.61792963310E-01  0.13910895299E+00  0.44652665516E-01 0.  0.
         14    1    1    2    0    0 -0.80238639343E-02 -0.94662195799E-02  0.60420597737E-02  0.13802108240E-01  0.00000000000E+00 0. -1.
     999901    1    3    3    0    0  0.10909040537E+00  0.67125773444E-01  0.55750903536E-01  0.89101893877E+00  0.88000000000E+00 0. -1.
        -11    1    4    4    0    0 -0.52524686696E-01 -0.42378426150E-01 -0.56356331294E-01  0.87926508593E-01  0.51100000000E-03 0. -1.
         11    1    4    4    0    0 -0.48541854738E-01 -0.15281127714E-01 -0.54366320160E-02  0.51182444395E-01  0.51100000000E-03 0.  1.
</event>
<event>
 8    1  0.2190295E+004  0.1043930E+01  0.7957747E-01            NaN
         13   -1    0    0    0    0  0.00000000000E+00  0.00000000000E+00  0.74505805969E-08  0.10566000000E+00  0.10566000000E+00 0. -1.
     999900   -1    0    0    0    0 -0.00000000000E+00 -0.00000000000E+00 -0.74505805969E-08  0.93827000000E+00  0.93827000000E+00 0.  1.
     999902    2    1    2    0    0  0.48451917388E-03  0.11312216166E-01  0.75179650467E-02  0.10303387973E+01  0.10302491526E+01 0.  0.
     999903    2    3    3    0    0 -0.12151597847E+00 -0.35342492746E-01 -0.38565133357E-01  0.13950523523E+00  0.44263035680E-01 0.  0.
         14    1    1    2    0    0 -0.48451917388E-03 -0.11312216166E-01 -0.75179650467E-02  0.13591202737E-01  0.00000000000E+00 0.  1.
     999901    1    3    3    0    0  0.12200049765E+00  0.46654708912E-01  0.46083098403E-01  0.89083356203E+00  0.88000000000E+00 0.  1.
        -11    1    4    4    0    0 -0.87847536133E-01 -0.40720797473E-01 -0.41360689961E-01  0.10529169363E+00  0.51100000000E-03 0. -1.
         11    1    4    4    0    0 -0.33668442338E-01  0.53783047265E-02  0.27955566041E-02  0.34213541602E-01  0.51100000000E-03 0.  1.
</event>
<event>
 8    1  0.2190295E+004  0.1043930E+01  0.7957747E-01            NaN
         13   -1    0    0    0    0  0.00000000000E+00  0.00000000000E+00  0.74505805969E-08  0.10566000000E+00  0.10566000000E+00 0. -1.
     999900   -1    0    0    0    0 -0.00000000000E+00 -0.00000000000E+00 -0.74505805969E-08  0.93827000000E+00  0.93827000000E+00 0.  1.
     999902    2    1    2    0    0  0.36287771880E-04  0.96417687874E-02 -0.10194629145E-01  0.10298980548E+01  0.10298024606E+01 0.  0.
     999903    2    3    3    0    0  0.51360934819E-01  0.12214648476E+00  0.94844079504E-03  0.14118229682E+00  0.48721987134E-01 0.  0.
         14    1    1    2    0    0 -0.36287771880E-04 -0.96417687874E-02  0.10194629145E-01  0.14031945181E-01  0.00000000000E+00 0. -1.
     999901    1    3    3    0    0 -0.51324647047E-01 -0.11250471597E+00 -0.11143069940E-01  0.88871575800E+00  0.88000000000E+00 0. -1.
        -11    1    4    4    0    0  0.15207931229E-01  0.20842194187E-01 -0.18661118973E-01  0.31846141259E-01  0.51100000000E-03 0.  1.
         11    1    4    4    0    0  0.36153003590E-01  0.10130429057E+00  0.19609559768E-01  0.10933615556E+00  0.51100000000E-03 0. -1.
</event>
<event>
 8    1  0.2190295E+004  0.1043930E+01  0.7957747E-01            NaN
         13   -1    0    0    0    0  0.00000000000E+00  0.00000000000E+00  0.74505805969E-08  0.10566000000E+00  0.10566000000E+00 0. -1.
     999900   -1    0    0    0    0 -0.00000000000E+00 -0.00000000000E+00 -0.74505805969E-08  0.93827000000E+00  0.93827000000E+00 0. -1.
     999902    2    1    2    0    0  0.99049456954E-02  0.25672830767E-02  0.10044653194E-01  0.10295914523E+01  0.10294916050E+01 0.  0.
     999903    2    3    3    0    0 -0.68396340108E-01  0.50673293111E-01 -0.98982951352E-01  0.13811385972E+00  0.45077395822E-01 0.  0.
         14    1    1    2    0    0 -0.99049456954E-02 -0.25672830767E-02 -0.10044653194E-01  0.14338547675E-01  0.00000000000E+00 0.  1.
     999901    1    3    3    0    0  0.78301285804E-01 -0.48106010035E-01  0.10902760455E+00  0.89147759260E+00  0.88000000000E+00 0.  1.
        -11    1    4    4    0    0 -0.51725366960E-01  0.18575721662E-01 -0.80552451442E-01  0.97516816892E-01  0.51100000000E-03 0. -1.
         11    1    4    4    0    0 -0.16670973149E-01  0.32097571449E-01 -0.18430499910E-01  0.40597042831E-01  0.51100000000E-03 0.  1.
</event>
<event>
 8    1  0.2190295E+004  0.1043930E+01  0.7957747E-01            NaN
         13   -1    0    0    0    0  0.00000000000E+00  0.00000000000E+00  0.74505805969E-08  0.10566000000E+00  0.10566000000E+00 0. -1.
     999900   -1    0    0    0    0 -0.00000000000E+00 -0.00000000000E+00 -0.74505805969E-08  0.93827000000E+00  0.93827000000E+00 0. -1.
     999902    2    1    2    0    0 -0.51175006044E-02 -0.90509770817E-02  0.88582850544E-02  0.10302706364E+01  0.10301800843E+01 0.  0.
     999903    2    3    3    0    0  0.10514457241E+00 -0.49313652322E-01 -0.63204111527E-01  0.13955643045E+00  0.44654452798E-01 0.  0.
         14    1    1    2    0    0  0.51175006044E-02  0.90509770817E-02 -0.88582850544E-02  0.13659363553E-01  0.00000000000E+00 0. -1.
     999901    1    3    3    0    0 -0.11026207301E+00  0.40262675240E-01  0.72062396582E-01  0.89071420600E+00  0.88000000000E+00 0.  1.
        -11    1    4    4    0    0  0.79167994589E-01 -0.13740636260E-01 -0.42002538344E-01  0.90668907573E-01  0.51100000000E-03 0. -1.
         11    1    4    4    0    0  0.25976577816E-01 -0.35573016061E-01 -0.21201573183E-01  0.48887522878E-01  0.51100000000E-03 0.  1.
</event>
<event>
 8    1  0.2190295E+004  0.1043930E+01  0.7957747E-01            NaN
         13   -1    0    0    0    0  0.00000000000E+00  0.00000000000E+00  0.74505805969E-08  0.10566000000E+00  0.10566000000E+00 0. -1.
     999900   -1    0    0    0    0 -0.00000000000E+00 -0.00000000000E+00 -0.74505805969E-08  0.93827000000E+00  0.93827000000E+00 0. -1.
     999902    2    1    2    0    0 -0.71693359952E-02 -0.79807890751E-02  0.78899398005E-02  0.10306129612E+01  0.10305269197E+01 0.  0.
     999903    2    3    3    0    0 -0.41899920922E-01  0.35109263269E-01 -0.12003933249E+00  0.13964221820E+00  0.45850234667E-01 0.  0.
         14    1    1    2    0    0  0.71693359952E-02  0.79807890751E-02 -0.78899398005E-02  0.13317038820E-01  0.00000000000E+00 0. -1.
     999901    1    3    3    0    0  0.34730584927E-01 -0.43090052344E-01  0.12792927229E+00  0.89097074298E+00  0.88000000000E+00 0.  1.
        -11    1    4    4    0    0 -0.36717874611E-01  0.34492278605E-02 -0.81761366577E-01  0.89695494170E-01  0.51100000000E-03 0. -1.
         11    1    4    4    0    0 -0.51820463112E-02  0.31660035409E-01 -0.38277965910E-01  0.49946724029E-01  0.51100000000E-03 0.  1.
</event>
<event>
 8    1  0.2190295E+004  0.1043930E+01  0.7957747E-01            NaN
         13   -1    0    0    0    0  0.00000000000E+00  0.00000000000E+00  0.74505805969E-08  0.10566000000E+00  0.10566000000E+00 0. -1.
     999900   -1    0    0    0    0 -0.00000000000E+00 -0.00000000000E+00 -0.74505805969E-08  0.93827000000E+00  0.93827000000E+00 0. -1.
     999902    2    1    2    0    0  0.86829888837E-02 -0.93689279000E-02  0.15065385490E-02  0.10310676221E+01  0.10309873911E+01 0.  0.
     999903    2    3    3    0    0  0.78843888692E-01  0.84677042126E-01  0.65994937914E-01  0.14094069299E+00  0.46069370112E-01 0.  0.
         14    1    1    2    0    0 -0.86829888837E-02  0.93689279000E-02 -0.15065385490E-02  0.12862377865E-01  0.00000000000E+00 0.  1.
     999901    1    3    3    0    0 -0.70160899808E-01 -0.94045970026E-01 -0.64488399365E-01  0.89012692915E+00  0.88000000000E+00 0. -1.
        -11    1    4    4    0    0  0.26046513579E-01  0.51900108190E-01  0.13570978481E-01  0.59636185975E-01  0.51100000000E-03 0. -1.
         11    1    4    4    0    0  0.52797375113E-01  0.32776933936E-01  0.52423959432E-01  0.81304507013E-01  0.51100000000E-03 0.  1.
</event>
<event>
 8    1  0.2190295E+004  0.1043930E+01  0.7957747E-01            NaN
         13   -1    0    0    0    0  0.00000000000E+00  0.00000000000E+00  0.74505805969E-08  0.10566000000E+00  0.10566000000E+00 0. -1.
     999900   -1    0    0    0    0 -0.00000000000E+00 -0.00000000000E+00 -0.74505805969E-08  0.93827000000E+00  0.93827000000E+00 0. -1.
     999902    2    1    2    0    0 -0.66834120973E-02  0.17063277136E-02 -0.25921135601E-02  0.10365612413E+01  0.10365350493E+01 0.  0.
     999903    2    3    3    0    0 -0.78045077092E-01  0.96848469615E-01 -0.62223994525E-01  0.14656097413E+00  0.46234548974E-01 0.  0.
         14    1    1    2    0    0  0.66834120973E-02 -0.17063277136E-02  0.25921135601E-02  0.73687586632E-02  0.00000000000E+00 0. -1.
     999901    1    3    3    0    0  0.71361664995E-01 -0.95142141901E-01  0.59631880965E-01  0.89000026720E+00  0.88000000000E+00 0.  1.
        -11    1    4    4    0    0 -0.11212395695E-01  0.21656197909E-01  0.58599116454E-02  0.25086020222E-01  0.51100000000E-03 0. -1.
         11    1    4    4    0    0 -0.66832681398E-01  0.75192271706E-01 -0.68083906170E-01  0.12147495391E+00  0.51100000000E-03 0.  1.
</event>
<event>
 8    1  0.2190295E+004  0.1043930E+01  0.7957747E-01            NaN
         13   -1    0    0    0    0  0.00000000000E+00  0.00000000000E+00  0.74505805969E-08  0.10566000000E+00  0.10566000000E+00 0.  1.
     999900   -1    0    0    0    0 -0.00000000000E+00 -0.00000000000E+00 -0.74505805969E-08  0.93827000000E+00  0.93827000000E+00 0. -1.
     999902    2    1    2    0    0 -0.30495253250E-02 -0.51904045646E-03 -0.10726029630E-01  0.10327668141E+01  0.10327064809E+01 0.  0.
     999903    2    3    3    0    0 -0.11889833096E+00  0.54321988285E-01 -0.37564270035E-01  0.14307654477E+00  0.44408690171E-01 0.  0.
         14    1    1    2    0    0  0.30495253250E-02  0.51904045646E-03  0.10726029630E-01  0.11163185895E-01  0.00000000000E+00 0.  1.
     999901    1    3    3    0    0  0.11584880564E+00 -0.54841028742E-01  0.26838240404E-01  0.88969026934E+00  0.88000000000E+00 0.  1.
        -11    1    4    4    0    0 -0.85925192945E-01  0.22824637058E-01 -0.39824039388E-01  0.97418263553E-01  0.51100000000E-03 0.  1.
         11    1    4    4    0    0 -0.32973138019E-01  0.31497351227E-01  0.22597693529E-02  0.45658281217E-01  0.51100000000E-03 0. -1.
</event>
<event>
 8    1  0.2190295E+004  0.1043930E+01  0.7957747E-01            NaN
         13   -1    0    0    0    0  0.00000000000E+00  0.00000000000E+00  0.74505805969E-08  0.10566000000E+00  0.10566000000E+00 0.  1.
     999900   -1    0    0    0    0 -0.00000000000E+00 -0.00000000000E+00 -0.74505805969E-08  0.93827000000E+00  0.93827000000E+00 0.  1.
     999902    2    1    2    0    0  0.76026430959E-02 -0.14804386780E-01 -0.53881529234E-02  0.10264370802E+01  0.10262880090E+01 0.  0.
     999903    2    3    3    0    0 -0.10644672644E+00  0.66607169222E-01 -0.16544250054E-01  0.13528077596E+00  0.47536886462E-01 0.  0.
         14    1    1    2    0    0 -0.76026430959E-02  0.14804386780E-01  0.53881529234E-02  0.17492919765E-01  0.00000000000E+00 0.  1.
     999901    1    3    3    0    0  0.11404936953E+00 -0.81411556003E-01  0.11156097130E-01  0.89115630427E+00  0.88000000000E+00 0.  1.
        -11    1    4    4    0    0 -0.10420665725E-01  0.15895183385E-01  0.12640798307E-01  0.22831951994E-01  0.51100000000E-03 0. -1.
         11    1    4    4    0    0 -0.96026060710E-01  0.50711985837E-01 -0.29185048361E-01  0.11244882397E+00  0.51100000000E-03 0.  1.
</event>
<event>
 8    1  0.2190295E+004  0.1043930E+01  0.7957747E-01            NaN
         13   -1    0    0    0    0  0.00000000000E+00  0.00000000000E+00  0.74505805969E-08  0.10566000000E+00  0.10566000000E+00 0. -1.
     999900   -1    0    0    0    0 -0.00000000000E+00 -0.00000000000E+00 -0.74505805969E-08  0.93827000000E+00  0.93827000000E+00 0.  1.
     999902    2    1    2    0    0  0.95368014603E-02  0.15724904428E-02 -0.10311902592E-01  0.10297964002E+01  0.10296994062E+01 0.  0.
     999903    2    3    3    0    0 -0.19150772399E-01  0.31633892887E-01  0.12556926086E+00  0.13839842208E+00  0.44933603218E-01 0.  0.
         14    1    1    2    0    0 -0.95368014603E-02 -0.15724904428E-02  0.10311902592E-01  0.14133599802E-01  0.00000000000E+00 0. -1.
     999901    1    3    3    0    0  0.28687573859E-01 -0.30061402444E-01 -0.13588116345E+00  0.89139797812E+00  0.88000000000E+00 0.  1.
        -11    1    4    4    0    0  0.95557188586E-02 -0.50160451697E-02  0.15561852471E-01  0.18944784121E-01  0.51100000000E-03 0. -1.
         11    1    4    4    0    0 -0.28706491257E-01  0.36649938057E-01  0.11000740839E+00  0.11945363796E+00  0.51100000000E-03 0.  1.
</event>
<event>
 8    1  0.2190295E+004  0.1043930E+01  0.7957747E-01            NaN
         13   -1    0    0    0    0  0.00000000000E+00  0.00000000000E+00  0.74505805969E-08  0.10566000000E+00  0.10566000000E+00 0.  1.
     999900   -1    0    0    0    0 -0.00000000000E+00 -0.00000000000E+00 -0.74505805969E-08  0.93827000000E+00  0.93827000000E+00 0.  1.
     999902    2    1    2    0    0  0.60345707828E-02  0.12585776792E-01 -0.35022141799E-02  0.10295396099E+01  0.10294390342E+01 0.  0.
     999903    2    3    3    0    0 -0.53093543164E-01  0.10460375932E+00  0.62119078497E-01  0.14034357024E+00  0.45570461972E-01 0.  0.
         14    1    1    2    0    0 -0.60345707828E-02 -0.12585776792E-01  0.35022141799E-02  0.14390390063E-01  0.00000000000E+00 0.  1.
     999901    1    3    3    0    0  0.59128113946E-01 -0.92017982526E-01 -0.65621292677E-01  0.88919603970E+00  0.88000000000E+00 0. -1.
        -11    1    4    4    0    0  0.53738030240E-02  0.23217134456E-01  0.21874883593E-01  0.32352507546E-01  0.51100000000E-03 0. -1.
         11    1    4    4    0    0 -0.58467346188E-01  0.81386624862E-01  0.40244194904E-01  0.10799106269E+00  0.51100000000E-03 0.  1.
</event>
<event>
 8    1  0.2190295E+004  0.1043930E+01  0.7957747E-01            NaN
         13   -1    0    0    0    0  0.00000000000E+00  0.00000000000E+00  0.74505805969E-08  0.10566000000E+00  0.10566000000E+00 0. -1.
     999900   -1    0    0    0    0 -0.00000000000E+00 -0.00000000000E+00 -0.74505805969E-08  0.93827000000E+00  0.93827000000E+00 0. -1.
     999902    2    1    2    0    0  0.22439893946E-03  0.34247065671E-02  0.13818394820E-01  0.10296917766E+01  0.10295933313E+01 0.  0.
     999903    2    3    3    0    0  0.69480126847E-01 -0.95929147932E-01  0.59939377229E-01  0.14020052355E+00  0.45095104068E-01 0.  0.
         14    1    1    2    0    0 -0.22439893946E-03 -0.34247065671E-02 -0.13818394820E-01  0.14238223392E-01  0.00000000000E+00 0.  1.
     999901    1    3    3    0    0 -0.69255727908E-01  0.99353854499E-01 -0.46120982409E-01  0.88949125306E+00  0.88000000000E+00 0. -1.
        -11    1    4    4    0    0  0.22167366571E-01 -0.49854366184E-01  0.59275731895E-02  0.54883943127E-01  0.51100000000E-03 0. -1.
         11    1    4    4    0    0  0.47312760276E-01 -0.46074781748E-01  0.54011804039E-01  0.85316580421E-01  0.51100000000E-03 0.  1.
</event>
<event>
 7    1  0.2190295E+004  0.1043930E+01  0.7957747E-01            NaN
         13   -1    0    0    0    0  0.00000000000E+00  0.00000000000E+00  0.74505805969E-08  0.10566000000E+00  0.10566000000E+00 0.  1.
     999900   -1    0    0    0    0 -0.00000000000E+00 -0.00000000000E+00 -0.74505805969E-08  0.93827000000E+00  0.93827000000E+00 0.  1.
     999902    2    1    2    0    0 -0.13181027288E-01  0.59164104731E-03  0.26148797350E-02  0.10304790850E+01  0.10303912934E+01 0.  0.
         14    1    1    2    0    0  0.13181027288E-01 -0.59164104731E-03 -0.26148797350E-02  0.13450915044E-01  0.00000000000E+00 0.  1.
     999901    1    3    3    0    0 -0.11498553014E+00 -0.62395991885E-01  0.41274237010E-01  0.89062814608E+00  0.88000000000E+00 0.  1.
        -11    1    3    3    0    0  0.40620456340E-01  0.59842218807E-01 -0.13289453355E-01  0.73538991810E-01  0.51100000000E-03 0. -1.
         11    1    3    3    0    0  0.61184046515E-01  0.31454141257E-02 -0.25369903920E-01  0.66311947067E-01  0.51100000000E-03 0.  1.
</event>
<event>
 8    1  0.2190295E+004  0.1043930E+01  0.7957747E-01            NaN
         13   -1    0    0    0    0  0.00000000000E+00  0.00000000000E+00  0.74505805969E-08  0.10566000000E+00  0.10566000000E+00 0. -1.
     999900   -1    0    0    0    0 -0.00000000000E+00 -0.00000000000E+00 -0.74505805969E-08  0.93827000000E+00  0.93827000000E+00 0.  1.
     999902    2    1    2    0    0  0.13963590408E-01  0.33835888613E-02 -0.24138081770E-03  0.10295602820E+01  0.10294599970E+01 0.  0.
     999903    2    3    3    0    0 -0.11895924017E+00  0.51137224451E-01 -0.14873813189E-01  0.13817764997E+00  0.45885902912E-01 0.  0.
         14    1    1    2    0    0 -0.13963590408E-01 -0.33835888613E-02  0.24138081770E-03  0.14369717999E-01  0.00000000000E+00 0.  1.
     999901    1    3    3    0    0  0.13292283058E+00 -0.47753635590E-01  0.14632432371E-01  0.89138263203E+00  0.88000000000E+00 0.  1.
        -11    1    4    4    0    0 -0.79335007210E-01  0.95643479066E-02 -0.72321246963E-02  0.80237677362E-01  0.51100000000E-03 0.  1.
         11    1    4    4    0    0 -0.39624232965E-01  0.41572876545E-01 -0.76416884924E-02  0.57939972612E-01  0.51100000000E-03 0. -1.
</event>
<event>
 8    1  0.2190295E+004  0.1043930E+01  0.7957747E-01            NaN
         13   -1    0    0    0    0  0.00000000000E+00  0.00000000000E+00  0.74505805969E-08  0.10566000000E+00  0.10566000000E+00 0.  1.
     999900   -1    0    0    0    0 -0.00000000000E+00 -0.00000000000E+00 -0.74505805969E-08  0.93827000000E+00  0.93827000000E+00 0. -1.
     999902    2    1    2    0    0  0.82055791949E-02  0.84749797096E-02 -0.67977362925E-02  0.10303150806E+01  0.10302251207E+01 0.  0.
     999903    2    3    3    0    0  0.79044091998E-01 -0.98725845822E-01 -0.40858743347E-01  0.14033178634E+00  0.45042338275E-01 0.  0.
         14    1    1    2    0    0 -0.82055791949E-02 -0.84749797096E-02  0.67977362925E-02  0.13614919379E-01  0.00000000000E+00 0.  1.
     999901    1    3    3    0    0 -0.70838512803E-01  0.10720082553E+00  0.34061007055E-01  0.88998329428E+00  0.88000000000E+00 0.  1.
        -11    1    4    4    0    0  0.36391398498E-01 -0.15127547052E-01 -0.44460358051E-02  0.39663647334E-01  0.51100000000E-03 0. -1.
         11    1    4    4    0    0  0.42652693500E-01 -0.83598298770E-01 -0.36412707542E-01  0.10066813901E+00  0.51100000000E-03 0.  1.
</event>
<event>
 8    1  0.2190295E+004  0.1043930E+01  0.7957747E-01            NaN
         13   -1    0    0    0    0  0.00000000000E+00  0.00000000000E+00  0.74505805969E-08  0.10566000000E+00  0.10566000000E+00 0. -1.
     999900   -1    0    0    0    0 -0.00000000000E+00 -0.00000000000E+00 -0.74505805969E-08  0.93827000000E+00  0.93827000000E+00 0. -1.
     999902    2    1    2    0    0  0.14204986180E-01 -0.40503453260E-02 -0.23240880532E-02  0.10289771302E+01  0.10288684786E+01 0.  0.
     999903    2    3    3    0    0  0.61118826882E-01  0.93234848701E-01  0.69812987679E-01  0.13944406443E+00  0.46287642454E-01 0.  0.
         14    1    1    2    0    0 -0.14204986180E-01  0.40503453260E-02  0.23240880532E-02  0.14952869788E-01  0.00000000000E+00 0.  1.
     999901    1    3    3    0    0 -0.46913840702E-01 -0.97285194027E-01 -0.72137075732E-01  0.88953306578E+00  0.88000000000E+00 0. -1.
        -11    1    4    4    0    0  0.35823470159E-01  0.71949263031E-01  0.69688627283E-01  0.10638037111E+00  0.51100000000E-03 0. -1.
         11    1    4    4    0    0  0.25295356723E-01  0.21285585670E-01  0.12436039613E-03  0.33063693314E-01  0.51100000000E-03 0.  1.
</event>
<event>
 8    1  0.2190295E+004  0.1043930E+01  0.7957747E-01            NaN
         13   -1    0    0    0    0  0.00000000000E+00  0.00000000000E+00  0.74505805969E-08  0.10566000000E+00  0.10566000000E+00 0. -1.
     999900   -1    0    0    0    0 -0.00000000000E+00 -0.00000000000E+00 -0.74505805969E-08  0.93827000000E+00  0.93827000000E+00 0.  1.
     999902    2    1    2    0    0 -0.15137054783E-01 -0.49934719339E-02  0.10545826024E-02  0.10279557290E+01  0.10278316027E+01 0.  0.
     999903    2    3    3    0    0  0.33223863624E-01 -0.12578032887E+00 -0.10274184435E-01  0.13831727199E+00  0.45843130551E-01 0.  0.
         14    1    1    2    0    0  0.15137054783E-01  0.49934719339E-02 -0.10545826024E-02  0.15974270998E-01  0.00000000000E+00 0. -1.
     999901    1    3    3    0    0 -0.48360918407E-01  0.12078685694E+00  0.11328767038E-01  0.88963845702E+00  0.88000000000E+00 0.  1.
        -11    1    4    4    0    0  0.36129613837E-01 -0.84848454597E-01  0.95997855137E-02  0.92720150164E-01  0.51100000000E-03 0. -1.
         11    1    4    4    0    0 -0.29057502130E-02 -0.40931874274E-01 -0.19873969949E-01  0.45597121822E-01  0.51100000000E-03 0.  1.
</event>
<event>
 8    1  0.2190295E+004  0.1043930E+01  0.7957747E-01            NaN
         13   -1    0    0    0    0  0.00000000000E+00  0.00000000000E+00  0.74505805969E-08  0.10566000000E+00  0.10566000000E+00 0. -1.
     999900   -1    0    0    0    0 -0.00000000000E+00 -0.00000000000E+00 -0.74505805969E-08  0.93827000000E+00  0.93827000000E+00 0.  1.
     999902    2    1    2    0    0 -0.51291808008E-02 -0.74486837878E-02  0.11457306055E-01  0.10293333823E+01  0.10292298823E+01 0.  0.
     999903    2    3    3    0    0 -0.44632801790E-01  0.68005165517E-02  0.12582336393E+00  0.14093979219E+00  0.44656154009E-01 0.  0.
         14    1    1    2    0    0  0.51291808008E-02  0.74486837878E-02 -0.11457306055E-01  0.14596617686E-01  0.00000000000E+00 0.  1.
     999901    1    3    3    0    0  0.39503620990E-01 -0.14249200339E-01 -0.11436605787E+00  0.88839359013E+00  0.88000000000E+00 0.  1.
        -11    1    4    4    0    0 -0.42199656208E-01  0.17145173423E-01  0.66098974295E-01  0.80275173495E-01  0.51100000000E-03 0.  1.
         11    1    4    4    0    0 -0.24331455826E-02 -0.10344656871E-01  0.59724389633E-01  0.60664618694E-01  0.51100000000E-03 0. -1.
</event>
<event>
 8    1  0.2190295E+004  0.1043930E+01  0.7957747E-01            NaN
         13   -1    0    0    0    0  0.00000000000E+00  0.00000000000E+00  0.74505805969E-08  0.10566000000E+00  0.10566000000E+00 0.  1.
     999900   -1    0    0    0    0 -0.00000000000E+00 -0.00000000000E+00 -0.74505805969E-08  0.93827000000E+00  0.93827000000E+00 0.  1.
     999902    2    1    2    0    0  0.14453383479E-01  0.23311991284E-03 -0.29417083261E-02  0.10291784480E+01  0.10290727231E+01 0.  0.
     999903    2    3    3    0    0 -0.73062390416E-01  0.12755747648E-01 -0.10794265539E+00  0.13853765296E+00  0.45169042990E-01 0.  0.
         14    1    1    2    0    0 -0.14453383479E-01 -0.23311991284E-03  0.29417083261E-02  0.14751552012E-01  0.00000000000E+00 0.  1.
     999901    1    3    3    0    0  0.87515773895E-01 -0.12522627735E-01  0.10500094706E+00  0.89064079503E+00  0.88000000000E+00 0. -1.
        -11    1    4    4    0    0 -0.24350372593E-01  0.23673047560E-03 -0.63426178205E-02  0.25169159869E-01  0.51100000000E-03 0. -1.
         11    1    4    4    0    0 -0.48712017823E-01  0.12519017172E-01 -0.10160003756E+00  0.11336849309E+00  0.51100000000E-03 0.  1.
</event>
<event>
 8    1  0.2190295E+004  0.1043930E+01  0.7957747E-01            NaN
         13   -1    0    0    0    0  0.00000000000E+00  0.00000000000E+00  0.74505805969E-08  0.10566000000E+00  0.10566000000E+00 0.  1.
     999900   -1    0    0    0    0 -0.00000000000E+00 -0.00000000000E+00 -0.74505805969E-08  0.93827000000E+00  0.93827000000E+00 0.  1.
     999902    2    1    2    0    0  0.38545136236E-02 -0.11375828446E-01 -0.77919133975E-02  0.10296128542E+01  0.10295133068E+01 0.  0.
     999903    2    3    3    0    0 -0.53711141024E-01 -0.41034124072E-01 -0.11500173322E+00  0.14074426747E+00  0.44887238410E-01 0.  0.
         14    1    1    2    0    0 -0.38545136236E-02  0.11375828446E-01  0.77919133975E-02  0.14317145753E-01  0.00000000000E+00 0.  1.
     999901    1    3    3    0    0  0.57565654648E-01  0.29658295626E-01  0.10720981983E+00  0.88886858678E+00  0.88000000000E+00 0. -1.
        -11    1    4    4    0    0 -0.30844040852E-01 -0.47946928654E-01 -0.76058989061E-01  0.95055214278E-01  0.51100000000E-03 0. -1.
         11    1    4    4    0    0 -0.22867100172E-01  0.69128045816E-02 -0.38942744164E-01  0.45689053191E-01  0.51100000000E-03 0.  1.
</event>
<event>
 8    1  0.2190295E+004  0.1043930E+01  0.7957747E-01            NaN
         13   -1    0    0    0    0  0.00000000000E+00  0.00000000000E+00  0.74505805969E-08  0.10566000000E+00  0.10566000000E+00 0. -1.
     999900   -1    0    0    0    0 -0.00000000000E+00 -0.00000000000E+00 -0.74505805969E-08  0.93827000000E+00  0.93827000000E+00 0.  1.
     999902    2    1    2    0    0 -0.65699267206E-02  0.98171494315E-02  0.77524547115E-02  0.10298005657E+01  0.10297036293E+01 0.  0.
     999903    2    3    3    0    0 -0.11370786169E+00  0.70622517906E-01  0.16053172311E-02  0.14119850782E+00  0.44915740223E-01 0.  0.
         14    1    1    2    0    0  0.65699267206E-02 -0.98171494315E-02 -0.77524547115E-02  0.14129434317E-01  0.00000000000E+00 0. -1.
     999901    1    3    3    0    0  0.10713793497E+00 -0.60805368474E-01  0.61471374803E-02  0.88860205787E+00  0.88000000000E+00 0.  1.
        -11    1    4    4    0    0 -0.63177027330E-01  0.25202997071E-01 -0.18222817211E-01  0.70419173751E-01  0.51100000000E-03 0. -1.
         11    1    4    4    0    0 -0.50530834363E-01  0.45419520835E-01  0.19828134442E-01  0.70779334065E-01  0.51100000000E-03 0.  1.
</event>
<event>
 8    1  0.2190295E+004  0.1043930E+01  0.7957747E-01            NaN
         13   -1    0    0    0    0  0.00000000000E+00  0.00000000000E+00  0.74505805969E-08  0.10566000000E+00  0.10566000000E+00 0. -1.
     999900   -1    0    0    0    0 -0.00000000000E+00 -0.00000000000E+00 -0.74505805969E-08  0.93827000000E+00  0.93827000000E+00 0.  1.
     999902    2    1    2    0    0  0.92034856131E-02 -0.14296816407E-02  0.10660608003E-01  0.10297738459E+01  0.10296765399E+01 0.  0.
     999903    2    3    3    0    0 -0.10303204253E+00  0.26040011021E-02  0.82965677029E-01  0.13969457558E+00  0.44820623283E-01 0.  0.
         14    1    1    2    0    0 -0.92034856131E-02  0.14296816407E-02 -0.10660608003E-01  0.14156154140E-01  0.00000000000E+00 0.  1.
     999901    1    3    3    0    0  0.11223552815E+00 -0.40336827429E-02 -0.72305069025E-01  0.89007927028E+00  0.88000000000E+00 0.  1.
        -11    1    4    4    0    0 -0.66182737070E-01 -0.37578381744E-02  0.77361553675E-01  0.10187908098E+00  0.51100000000E-03 0. -1.
         11    1    4    4    0    0 -0.36849305464E-01  0.63618392765E-02  0.56041233532E-02  0.37815494598E-01  0.51100000000E-03 0.  1.
</event>
<event>
 8    1  0.2190295E+004  0.1043930E+01  0.7957747E-01            NaN
         13   -1    0    0    0    0  0.00000000000E+00  0.00000000000E+00  0.74505805969E-08  0.10566000000E+00  0.10566000000E+00 0.  1.
     999900   -1    0    0    0    0 -0.00000000000E+00 -0.00000000000E+00 -0.74505805969E-08  0.93827000000E+00  0.93827000000E+00 0. -1.
     999902    2    1    2    0    0  0.24210852693E-02 -0.44138298394E-02 -0.12259741973E-01  0.10306768939E+01  0.10305916819E+01 0.  0.
     999903    2    3    3    0    0  0.96810824528E-02  0.73915526118E-01  0.10829912344E+00  0.13898040093E+00  0.45051341241E-01 0.  0.
         14    1    1    2    0    0 -0.24210852693E-02  0.44138298394E-02  0.12259741973E-01  0.13253106088E-01  0.00000000000E+00 0.  1.
     999901    1    3    3    0    0 -0.72599971835E-02 -0.78329355958E-01 -0.12055886541E+00  0.89169649298E+00  0.88000000000E+00 0. -1.
        -11    1    4    4    0    0 -0.93516330563E-02  0.44366078844E-01  0.33640308994E-01  0.56460016853E-01  0.51100000000E-03 0. -1.
         11    1    4    4    0    0  0.19032715509E-01  0.29549447275E-01  0.74658814441E-01  0.82520384079E-01  0.51100000000E-03 0.  1.
</event>
<event>
 7    1  0.2190295E+004  0.1043930E+01  0.7957747E-01            NaN
         13   -1    0    0    0    0  0.00000000000E+00  0.00000000000E+00  0.74505805969E-08  0.10566000000E+00  0.10566000000E+00 0. -1.
     999900   -1    0    0    0    0 -0.00000000000E+00 -0.00000000000E+00 -0.74505805969E-08  0.93827000000E+00  0.93827000000E+00 0. -1.
     999903    2    1    2    0    0  0.55671157450E-01 -0.47275234284E-01  0.68629938708E-01  0.11247914160E+00  0.51061367574E-01 0.  0.
         14    1    1    2    0    0  0.11753845969E-02  0.35179573310E-01 -0.33870960655E-01  0.48849011074E-01  0.00000000000E+00 0.  1.
     999901    1    1    2    0    0 -0.56846542047E-01  0.12095660974E-01 -0.34758978053E-01  0.88260184733E+00  0.88000000000E+00 0. -1.
        -11    1    3    3    0    0  0.37512769333E-01 -0.23537073016E-01  0.81728097901E-02  0.45036181122E-01  0.51100000000E-03 0.  1.
         11    1    3    3    0    0  0.18158388117E-01 -0.23738161267E-01  0.60457128918E-01  0.67442960473E-01  0.51100000000E-03 0. -1.
</event>
<event>
 8    1  0.2190295E+004  0.1043930E+01  0.7957747E-01            NaN
         13   -1    0    0    0    0  0.00000000000E+00  0.00000000000E+00  0.74505805969E-08  0.10566000000E+00  0.10566000000E+00 0. -1.
     999900   -1    0    0    0    0 -0.00000000000E+00 -0.00000000000E+00 -0.74505805969E-08  0.93827000000E+00  0.93827000000E+00 0.  1.
     999902    2    1    2    0    0 -0.77471303027E-02 -0.10763566209E-01 -0.40569339816E-02  0.10300616512E+01  0.10299682879E+01 0.  0.
     999903    2    3    3    0    0  0.35931689503E-01 -0.83324825030E-01 -0.98475472286E-01  0.14096782264E+00  0.44049921698E-01 0.  0.
         14    1    1    2    0    0  0.77471303027E-02  0.10763566209E-01  0.40569339816E-02  0.13868348813E-01  0.00000000000E+00 0.  1.
     999901    1    3    3    0    0 -0.43678819806E-01  0.72561258821E-01  0.94418538305E-01  0.88909382855E+00  0.88000000000E+00 0. -1.
        -11    1    4    4    0    0  0.33923777979E-01 -0.71336072505E-01 -0.10131890626E+00  0.12847349859E+00  0.51100000000E-03 0.  1.
         11    1    4    4    0    0  0.20079115241E-02 -0.11988752525E-01  0.28434339738E-02  0.12494324053E-01  0.51100000000E-03 0. -1.
</event>
<event>
 8    1  0.2190295E+004  0.1043930E+01  0.7957747E-01            NaN
         13   -1    0    0    0    0  0.00000000000E+00  0.00000000000E+00  0.74505805969E-08  0.10566000000E+00  0.10566000000E+00 0.  1.
     999900   -1    0    0    0    0 -0.00000000000E+00 -0.00000000000E+00 -0.74505805969E-08  0.93827000000E+00  0.93827000000E+00 0. -1.
     999902    2    1    2    0    0  0.41895509731E-02  0.18219246510E-01  0.38061604063E-02  0.10248517365E+01  0.10246741442E+01 0.  0.
     999903    2    3    3    0    0  0.11978170973E+00 -0.42689245482E-01  0.10773771529E-01  0.13517767306E+00  0.44574650593E-01 0.  0.
         14    1    1    2    0    0 -0.41895509731E-02 -0.18219246510E-01 -0.38061604063E-02  0.19078263490E-01  0.00000000000E+00 0.  1.
     999901    1    3    3    0    0 -0.11559215876E+00  0.60908491992E-01 -0.69676111225E-02  0.88967406345E+00  0.88000000000E+00 0.  1.
        -11    1    4    4    0    0  0.45527946991E-01 -0.17821885941E-01 -0.17483844547E-01  0.51926481846E-01  0.51100000000E-03 0. -1.
         11    1    4    4    0    0  0.74253762743E-01 -0.24867359541E-01  0.28257616076E-01  0.83251191219E-01  0.51100000000E-03 0.  1.
</event>
<event>
 8    1  0.2190295E+004  0.1043930E+01  0.7957747E-01            NaN
         13   -1    0    0    0    0  0.00000000000E+00  0.00000000000E+00  0.74505805969E-08  0.10566000000E+00  0.10566000000E+00 0.  1.
     999900   -1    0    0    0    0 -0.00000000000E+00 -0.00000000000E+00 -0.74505805969E-08  0.93827000000E+00  0.93827000000E+00 0.  1.
     999902    2    1    2    0    0  0.75761472888E-02  0.11215459297E-01  0.15669525971E-02  0.10303050275E+01  0.10302149338E+01 0.  0.
     999903    2    3    3    0    0 -0.10015952355E+00  0.50525835522E-01  0.71246561176E-01  0.14013227556E+00  0.44454380694E-01 0.  0.
         14    1    1    2    0    0 -0.75761472888E-02 -0.11215459297E-01 -0.15669525971E-02  0.13624972492E-01  0.00000000000E+00 0. -1.
     999901    1    3    3    0    0  0.10773567084E+00 -0.39310376225E-01 -0.69679608579E-01  0.89017275194E+00  0.88000000000E+00 0. -1.
        -11    1    4    4    0    0 -0.26576566441E-01  0.12824579758E-01  0.44185551739E-01  0.53135749107E-01  0.51100000000E-03 0. -1.
         11    1    4    4    0    0 -0.73582957107E-01  0.37701255764E-01  0.27061009438E-01  0.86996526457E-01  0.51100000000E-03 0.  1.
</event>
<event>
 8    1  0.2190295E+004  0.1043930E+01  0.7957747E-01            NaN
         13   -1    0    0    0    0  0.00000000000E+00  0.00000000000E+00  0.74505805969E-08  0.10566000000E+00  0.10566000000E+00 0.  1.
     999900   -1    0    0    0    0 -0.00000000000E+00 -0.00000000000E+00 -0.74505805969E-08  0.93827000000E+00  0.93827000000E+00 0.  1.
     999902    2    1    2    0    0  0.37534182474E-02  0.31014373299E-03  0.14065558071E-01  0.10293689471E+01  0.10292659545E+01 0.  0.
     999903    2    3    3    0    0 -0.93941785630E-02  0.13046815827E+00 -0.14183648214E-01  0.13924986198E+00  0.45597777041E-01 0.  0.
         14    1    1    2    0    0 -0.37534182474E-02 -0.31014373299E-03 -0.14065558071E-01  0.14561052899E-01  0.00000000000E+00 0. -1.
     999901    1    3    3    0    0  0.13147596810E-01 -0.13015801453E+00  0.28249206285E-01  0.89011908513E+00  0.88000000000E+00 0.  1.
        -11    1    4    4    0    0 -0.29769358343E-02  0.12764432011E+00 -0.51240315057E-02  0.12778282914E+00  0.51100000000E-03 0. -1.
         11    1    4    4    0    0 -0.64172427286E-02  0.28238381592E-02 -0.90596167082E-02  0.11467032837E-01  0.51100000000E-03 0.  1.
</event>
<event>
 8    1  0.2190295E+004  0.1043930E+01  0.7957747E-01            NaN
         13   -1    0    0    0    0  0.00000000000E+00  0.00000000000E+00  0.74505805969E-08  0.10566000000E+00  0.10566000000E+00 0. -1.
     999900   -1    0    0    0    0 -0.00000000000E+00 -0.00000000000E+00 -0.74505805969E-08  0.93827000000E+00  0.93827000000E+00 0.  1.
     999902    2    1    2    0    0  0.10459009887E-01  0.76971805012E-02 -0.44490252855E-02  0.10302029719E+01  0.10301115143E+01 0.  0.
     999903    2    3    3    0    0  0.11681963091E+00 -0.18076538044E-01  0.62025208498E-01  0.14093603217E+00  0.45191274395E-01 0.  0.
         14    1    1    2    0    0 -0.10459009887E-01 -0.76971805012E-02  0.44490252855E-02  0.13727028137E-01  0.00000000000E+00 0.  1.
     999901    1    3    3    0    0 -0.10636062102E+00  0.25773718545E-01 -0.66474233783E-01  0.88926693969E+00  0.88000000000E+00 0.  1.
        -11    1    4    4    0    0  0.68960879078E-01 -0.30061557333E-01  0.25090611773E-01  0.79303846014E-01  0.51100000000E-03 0.  1.
         11    1    4    4    0    0  0.47858751831E-01  0.11985019289E-01  0.36934596725E-01  0.61632186157E-01  0.51100000000E-03 0. -1.
</event>
<event>
 8    1  0.2190295E+004  0.1043930E+01  0.7957747E-01            NaN
         13   -1    0    0    0    0  0.00000000000E+00  0.00000000000E+00  0.74505805969E-08  0.10566000000E+00  0.10566000000E+00 0. -1.
     999900   -1    0    0    0    0 -0.00000000000E+00 -0.00000000000E+00 -0.74505805969E-08  0.93827000000E+00  0.93827000000E+00 0.  1.
     999902    2    1    2    0    0 -0.83178503806E-02 -0.17363557535E-02  0.10867240605E-01  0.10301351283E+01  0.10300427584E+01 0.  0.
     999903    2    3    3    0    0 -0.10047015838E+00 -0.44666401479E-01  0.81624043499E-01  0.14146108130E+00  0.35488207872E-01 0.  0.
         14    1    1    2    0    0  0.83178503806E-02  0.17363557535E-02 -0.10867240605E-01  0.13794871679E-01  0.00000000000E+00 0.  1.
     999901    1    3    3    0    0  0.92152308004E-01  0.42930045726E-01 -0.70756802893E-01  0.88867404702E+00  0.88000000000E+00 0.  1.
        -11    1    4    4    0    0 -0.90352702406E-01 -0.46248726274E-01  0.60982243318E-01  0.11841305095E+00  0.51100000000E-03 0.  1.
         11    1    4    4    0    0 -0.10117455979E-01  0.15823247949E-02  0.20641800181E-01  0.23048030349E-01  0.51100000000E-03 0. -1.
</event>
<event>
 8    1  0.2190295E+004  0.1043930E+01  0.7957747E-01            NaN
         13   -1    0    0    0    0  0.00000000000E+00  0.00000000000E+00  0.74505805969E-08  0.10566000000E+00  0.10566000000E+00 0. -1.
     999900   -1    0    0    0    0 -0.00000000000E+00 -0.00000000000E+00 -0.74505805969E-08  0.93827000000E+00  0.93827000000E+00 0.  1.
     999902    2    1    2    0    0  0.95854301031E-02 -0.26951502893E-02 -0.10550794582E-01  0.10294226373E+01  0.10293204082E+01 0.  0.
     999903    2    3    3    0    0 -0.50683743375E-01 -0.10479073089E+00  0.60358599378E-01  0.13864543567E+00  0.45049497106E-01 0.  0.
         14    1    1    2    0    0 -0.95854301031E-02  0.26951502893E-02  0.10550794582E-01  0.14507362671E-01  0.00000000000E+00 0. -1.
     999901    1    3    3    0    0  0.60269173478E-01  0.10209558060E+00 -0.70909393960E-01  0.89077720166E+00  0.88000000000E+00 0.  1.
        -11    1    4    4    0    0 -0.44266848844E-01 -0.61632351325E-01  0.18341828827E-01  0.78069100431E-01  0.51100000000E-03 0.  1.
         11    1    4    4    0    0 -0.64168945311E-02 -0.43158379565E-01  0.42016770550E-01  0.60576335235E-01  0.51100000000E-03 0. -1.
</event>
<event>
 8    1  0.2190295E+004  0.1043930E+01  0.7957747E-01            NaN
         13   -1    0    0    0    0  0.00000000000E+00  0.00000000000E+00  0.74505805969E-08  0.10566000000E+00  0.10566000000E+00 0.  1.
     999900   -1    0    0    0    0 -0.00000000000E+00 -0.00000000000E+00 -0.74505805969E-08  0.93827000000E+00  0.93827000000E+00 0. -1.
     999902    2    1    2    0    0 -0.83758327412E-02 -0.12094074300E-01 -0.25353009062E-02  0.10290018736E+01  0.10288935839E+01 0.  0.
     999903    2    3    3    0    0 -0.99907418876E-01  0.52881989581E-01 -0.68312507642E-01  0.13943649597E+00  0.44698328159E-01 0.  0.
         14    1    1    2    0    0  0.83758327412E-02  0.12094074300E-01  0.25353009062E-02  0.14928126405E-01  0.00000000000E+00 0.  1.
     999901    1    3    3    0    0  0.91531586135E-01 -0.64976063881E-01  0.65777206736E-01  0.88956537762E+00  0.88000000000E+00 0. -1.
        -11    1    4    4    0    0 -0.36097522489E-01  0.41398233157E-01 -0.43297414984E-01  0.69941204620E-01  0.51100000000E-03 0.  1.
         11    1    4    4    0    0 -0.63809896387E-01  0.11483756424E-01 -0.25015092657E-01  0.69495291353E-01  0.51100000000E-03 0. -1.
</event>
<event>
 8    1  0.2190295E+004  0.1043930E+01  0.7957747E-01            NaN
         13   -1    0    0    0    0  0.00000000000E+00  0.00000000000E+00  0.74505805969E-08  0.10566000000E+00  0.10566000000E+00 0. -1.
     999900   -1    0    0    0    0 -0.00000000000E+00 -0.00000000000E+00 -0.74505805969E-08  0.93827000000E+00  0.93827000000E+00 0.  1.
     999902    2    1    2    0    0 -0.54834125369E-02  0.11399455623E-01 -0.57395292025E-02  0.10300390822E+01  0.10299454128E+01 0.  0.
     999903    2    3    3    0    0 -0.74788339973E-01  0.23489713672E-01 -0.10845195916E+00  0.14127635202E+00  0.45300306298E-01 0.  0.
         14    1    1    2    0    0  0.54834125369E-02 -0.11399455623E-01  0.57395292025E-02  0.13890917789E-01  0.00000000000E+00 0. -1.
     999901    1    3    3    0    0  0.69304927436E-01 -0.12090258049E-01  0.10271242996E+00  0.88876273019E+00  0.88000000000E+00 0. -1.
        -11    1    4    4    0    0 -0.63503685800E-01 -0.52313252196E-03 -0.82969488484E-01  0.10448535265E+00  0.51100000000E-03 0. -1.
         11    1    4    4    0    0 -0.11284654173E-01  0.24012846194E-01 -0.25482470676E-01  0.36790999373E-01  0.51100000000E-03 0.  1.
</event>
<event>
 8    1  0.2190295E+004  0.1043930E+01  0.7957747E-01            NaN
         13   -1    0    0    0    0  0.00000000000E+00  0.00000000000E+00  0.74505805969E-08  0.10566000000E+00  0.10566000000E+00 0. -1.
     999900   -1    0    0    0    0 -0.00000000000E+00 -0.00000000000E+00 -0.74505805969E-08  0.93827000000E+00  0.93827000000E+00 0.  1.
     999902    2    1    2    0    0 -0.10417806367E-01 -0.19118573286E-02  0.11667919772E-01  0.10281716295E+01  0.10280508614E+01 0.  0.
     999903    2    3    3    0    0  0.11778186340E+00 -0.41223713657E-01  0.36926074573E-01  0.13765573874E+00  0.44873215955E-01 0.  0.
         14    1    1    2    0    0  0.10417806367E-01  0.19118573286E-02 -0.11667919772E-01  0.15758370467E-01  0.00000000000E+00 0. -1.
     999901    1    3    3    0    0 -0.12819966977E+00  0.39311856328E-01 -0.25258154800E-01  0.89051589080E+00  0.88000000000E+00 0.  1.
        -11    1    4    4    0    0  0.25449526584E-01 -0.29658841074E-01  0.16269876461E-01  0.42335508243E-01  0.51100000000E-03 0.  1.
         11    1    4    4    0    0  0.92332336817E-01 -0.11564872583E-01  0.20656198112E-01  0.95320230494E-01  0.51100000000E-03 0. -1.
</event>
<event>
 8    1  0.2190295E+004  0.1043930E+01  0.7957747E-01            NaN
         13   -1    0    0    0    0  0.00000000000E+00  0.00000000000E+00  0.74505805969E-08  0.10566000000E+00  0.10566000000E+00 0. -1.
     999900   -1    0    0    0    0 -0.00000000000E+00 -0.00000000000E+00 -0.74505805969E-08  0.93827000000E+00  0.93827000000E+00 0. -1.
     999902    2    1    2    0    0 -0.72025802353E-02  0.60352108833E-02 -0.99559376337E-02  0.10302397982E+01  0.10301488339E+01 0.  0.
     999903    2    3    3    0    0 -0.24829967286E-01 -0.39693679225E-01 -0.12558304974E+00  0.14132389368E+00  0.44824380632E-01 0.  0.
         14    1    1    2    0    0  0.72025802353E-02 -0.60352108833E-02  0.99559376337E-02  0.13690201847E-01  0.00000000000E+00 0. -1.
     999901    1    3    3    0    0  0.17627387051E-01  0.45728890109E-01  0.11562711210E+00  0.88891590447E+00  0.88000000000E+00 0.  1.
        -11    1    4    4    0    0 -0.32740921499E-01 -0.15741343162E-01 -0.94792289924E-01  0.10151648721E+00  0.51100000000E-03 0.  1.
         11    1    4    4    0    0  0.79109542132E-02 -0.23952336064E-01 -0.30790759812E-01  0.39807406475E-01  0.51100000000E-03 0. -1.
</event>
<event>
 8    1  0.2190295E+004  0.1043930E+01  0.7957747E-01            NaN
         13   -1    0    0    0    0  0.00000000000E+00  0.00000000000E+00  0.74505805969E-08  0.10566000000E+00  0.10566000000E+00 0. -1.
     999900   -1    0    0    0    0 -0.00000000000E+00 -0.00000000000E+00 -0.74505805969E-08  0.93827000000E+00  0.93827000000E+00 0. -1.
     999902    2    1    2    0    0  0.12681035267E-01  0.55972640935E-02 -0.18073353616E-02  0.10299512847E+01  0.10298564193E+01 0.  0.
     999903    2    3    3    0    0 -0.49612928420E-01 -0.12091365906E+00 -0.21940252711E-01  0.13849691908E+00  0.40230166449E-01 0.  0.
         14    1    1    2    0    0 -0.12681035267E-01 -0.55972640935E-02  0.18073353616E-02  0.13978715316E-01  0.00000000000E+00 0. -1.
     999901    1    3    3    0    0  0.62293963687E-01  0.12651092315E+00  0.20132917349E-01  0.89145436560E+00  0.88000000000E+00 0.  1.
        -11    1    4    4    0    0 -0.38449545768E-01 -0.11835132044E+00 -0.15655585424E-01  0.12542233093E+00  0.51100000000E-03 0.  1.
         11    1    4    4    0    0 -0.11163382652E-01 -0.25623386183E-02 -0.62846672875E-02  0.13074588152E-01  0.51100000000E-03 0. -1.
</event>
<event>
 8    1  0.2190295E+004  0.1043930E+01  0.7957747E-01            NaN
         13   -1    0    0    0    0  0.00000000000E+00  0.00000000000E+00  0.74505805969E-08  0.10566000000E+00  0.10566000000E+00 0. -1.
     999900   -1    0    0    0    0 -0.00000000000E+00 -0.00000000000E+00 -0.74505805969E-08  0.93827000000E+00  0.93827000000E+00 0.  1.
     999902    2    1    2    0    0  0.84358034173E-02  0.41585335350E-02  0.93638135675E-02  0.10306583315E+01  0.10305728791E+01 0.  0.
     999903    2    3    3    0    0 -0.64719284156E-01 -0.11366117558E+00  0.18163463409E-01  0.13975396820E+00  0.45758186703E-01 0.  0.
         14    1    1    2    0    0 -0.84358034173E-02 -0.41585335350E-02 -0.93638135675E-02  0.13271668508E-01  0.00000000000E+00 0.  1.
     999901    1    3    3    0    0  0.73155087573E-01  0.11781970911E+00 -0.87996498411E-02  0.89090436329E+00  0.88000000000E+00 0.  1.
        -11    1    4    4    0    0 -0.38426962851E-01 -0.48926436478E-01  0.29692102293E-01  0.68936998194E-01  0.51100000000E-03 0. -1.
         11    1    4    4    0    0 -0.26292321304E-01 -0.64734739097E-01 -0.11528638884E-01  0.70816970008E-01  0.51100000000E-03 0.  1.
</event>
<event>
 8    1  0.2190295E+004  0.1043930E+01  0.7957747E-01            NaN
         13   -1    0    0    0    0  0.00000000000E+00  0.00000000000E+00  0.74505805969E-08  0.10566000000E+00  0.10566000000E+00 0. -1.
     999900   -1    0    0    0    0 -0.00000000000E+00 -0.00000000000E+00 -0.74505805969E-08  0.93827000000E+00  0.93827000000E+00 0.  1.
     999902    2    1    2    0    0  0.12116409974E-01 -0.61907460192E-02 -0.28685252787E-02  0.10300245635E+01  0.10299306968E+01 0.  0.
     999903    2    3    3    0    0  0.80196853592E-02 -0.67099810889E-01  0.11432920965E+00  0.14015827781E+00  0.44793690234E-01 0.  0.
         14    1    1    2    0    0 -0.12116409974E-01  0.61907460192E-02  0.28685252787E-02  0.13905436498E-01  0.00000000000E+00 0.  1.
     999901    1    3    3    0    0  0.40967246149E-02  0.60909064869E-01 -0.11719773493E+00  0.88986628569E+00  0.88000000000E+00 0.  1.
        -11    1    4    4    0    0  0.25792981796E-01 -0.46253290620E-01  0.66220311499E-01  0.84794077500E-01  0.51100000000E-03 0.  1.
         11    1    4    4    0    0 -0.17773296437E-01 -0.20846520269E-01  0.48108898153E-01  0.55364200311E-01  0.51100000000E-03 0. -1.
</event>
<event>
 8    1  0.2190295E+004  0.1043930E+01  0.7957747E-01            NaN
         13   -1    0    0    0    0  0.00000000000E+00  0.00000000000E+00  0.74505805969E-08  0.10566000000E+00  0.10566000000E+00 0.  1.
     999900   -1    0    0    0    0 -0.00000000000E+00 -0.00000000000E+00 -0.74505805969E-08  0.93827000000E+00  0.93827000000E+00 0.  1.
     999902    2    1    2    0    0  0.55436594087E-02 -0.12677280158E-01  0.15585150110E-02  0.10300061155E+01  0.10299119978E+01 0.  0.
     999903    2    3    3    0    0  0.36622425660E-01 -0.95357517657E-01  0.87156597923E-01  0.14145170340E+00  0.44475314473E-01 0.  0.
         14    1    1    2    0    0 -0.55436594087E-02  0.12677280158E-01 -0.15585150110E-02  0.13923884547E-01  0.00000000000E+00 0. -1.
     999901    1    3    3    0    0 -0.31078766251E-01  0.82680237499E-01 -0.85598082912E-01  0.88855441206E+00  0.88000000000E+00 0.  1.
        -11    1    4    4    0    0  0.22562767177E-01 -0.71146294289E-01  0.35408182515E-01  0.82612796610E-01  0.51100000000E-03 0. -1.
         11    1    4    4    0    0  0.14059658483E-01 -0.24211223369E-01  0.51748415408E-01  0.58838906788E-01  0.51100000000E-03 0.  1.
</event>
<event>
 8    1  0.2190295E+004  0.1043930E+01  0.7957747E-01            NaN
         13   -1    0    0    0    0  0.00000000000E+00  0.00000000000E+00  0.74505805969E-08  0.10566000000E+00  0.10566000000E+00 0. -1.
     999900   -1    0    0    0    0 -0.00000000000E+00 -0.00000000000E+00 -0.74505805969E-08  0.93827000000E+00  0.93827000000E+00 0.  1.
     999902    2    1    2    0    0 -0.12044704591E-01 -0.13117534819E-01  0.25586252169E-02  0.10259385801E+01  0.10257808142E+01 0.  0.
     999903    2    3    3    0    0  0.12705802356E-01 -0.41355648180E-01 -0.12131007060E+00  0.13647051855E+00  0.45125847974E-01 0.  0.
         14    1    1    2    0    0  0.12044704591E-01  0.13117534819E-01 -0.25586252169E-02  0.17991419939E-01  0.00000000000E+00 0.  1.
     999901    1    3    3    0    0 -0.24750506947E-01  0.28238113361E-01  0.12386869582E+00  0.88946806151E+00  0.88000000000E+00 0. -1.
        -11    1    4    4    0    0  0.27345957425E-01 -0.13536460567E-01 -0.50680416081E-01  0.59159131563E-01  0.51100000000E-03 0.  1.
         11    1    4    4    0    0 -0.14640155069E-01 -0.27819187613E-01 -0.70629654518E-01  0.77311386990E-01  0.51100000000E-03 0. -1.
</event>
<event>
 8    1  0.2190295E+004  0.1043930E+01  0.7957747E-01            NaN
         13   -1    0    0    0    0  0.00000000000E+00  0.00000000000E+00  0.74505805969E-08  0.10566000000E+00  0.10566000000E+00 0. -1.
     999900   -1    0    0    0    0 -0.00000000000E+00 -0.00000000000E+00 -0.74505805969E-08  0.93827000000E+00  0.93827000000E+00 0. -1.
     999902    2    1    2    0    0 -0.11319906647E-01 -0.88401888302E-02  0.10424804240E-02  0.10295294448E+01  0.10294287259E+01 0.  0.
     999903    2    3    3    0    0 -0.60762241019E-01 -0.75405627171E-01 -0.91772097270E-01  0.14077185813E+00  0.44905897838E-01 0.  0.
         14    1    1    2    0    0  0.11319906647E-01  0.88401888302E-02 -0.10424804240E-02  0.14400555215E-01  0.00000000000E+00 0. -1.
     999901    1    3    3    0    0  0.49442334372E-01  0.66565438340E-01  0.92814577694E-01  0.88875758666E+00  0.88000000000E+00 0.  1.
        -11    1    4    4    0    0 -0.84066550971E-02 -0.45767928027E-01 -0.38011772789E-01  0.60087694891E-01  0.51100000000E-03 0. -1.
         11    1    4    4    0    0 -0.52355585922E-01 -0.29637699144E-01 -0.53760324481E-01  0.80684163236E-01  0.51100000000E-03 0.  1.
</event>
<event>
 8    1  0.2190295E+004  0.1043930E+01  0.7957747E-01            NaN
         13   -1    0    0    0    0  0.00000000000E+00  0.00000000000E+00  0.74505805969E-08  0.10566000000E+00  0.10566000000E+00 0. -1.
     999900   -1    0    0    0    0 -0.00000000000E+00 -0.00000000000E+00 -0.74505805969E-08  0.93827000000E+00  0.93827000000E+00 0. -1.
     999902    2    1    2    0    0 -0.58078125594E-02  0.12408011361E-01 -0.22563376698E-02  0.10300454585E+01  0.10299518756E+01 0.  0.
     999903    2    3    3    0    0  0.12446415245E+00  0.43228400107E-01  0.23498338640E-03  0.13991800252E+00  0.47084736288E-01 0.  0.
         14    1    1    2    0    0  0.58078125594E-02 -0.12408011361E-01  0.22563376698E-02  0.13884541489E-01  0.00000000000E+00 0. -1.
     999901    1    3    3    0    0 -0.13027196501E+00 -0.30820388745E-01 -0.24913210562E-02  0.89012745599E+00  0.88000000000E+00 0.  1.
        -11    1    4    4    0    0  0.81561164417E-01  0.41195540079E-01 -0.18207121487E-01  0.93172187145E-01  0.51100000000E-03 0.  1.
         11    1    4    4    0    0  0.42902988032E-01  0.20328600280E-02  0.18442104873E-01  0.46745815375E-01  0.51100000000E-03 0. -1.
</event>
<event>
 8    1  0.2190295E+004  0.1043930E+01  0.7957747E-01            NaN
         13   -1    0    0    0    0  0.00000000000E+00  0.00000000000E+00  0.74505805969E-08  0.10566000000E+00  0.10566000000E+00 0.  1.
     999900   -1    0    0    0    0 -0.00000000000E+00 -0.00000000000E+00 -0.74505805969E-08  0.93827000000E+00  0.93827000000E+00 0.  1.
     999902    2    1    2    0    0 -0.82233486290E-02  0.76794770200E-02  0.84107227927E-02  0.10298822924E+01  0.10297864818E+01 0.  0.
     999903    2    3    3    0    0 -0.42308650857E-01 -0.29880988005E-01  0.12314835027E+00  0.14098560579E+00  0.45039199414E-01 0.  0.
         14    1    1    2    0    0  0.82233486290E-02 -0.76794770200E-02 -0.84107227927E-02  0.14047707566E-01  0.00000000000E+00 0. -1.
     999901    1    3    3    0    0  0.34085302228E-01  0.37560465025E-01 -0.11473762748E+00  0.88889668664E+00  0.88000000000E+00 0.  1.
        -11    1    4    4    0    0 -0.87550611888E-02  0.11658899621E-01  0.19106320376E-01  0.24039418381E-01  0.51100000000E-03 0. -1.
         11    1    4    4    0    0 -0.33553589668E-01 -0.41539887626E-01  0.10404202990E+00  0.11694618741E+00  0.51100000000E-03 0.  1.
</event>
<event>
 8    1  0.2190295E+004  0.1043930E+01  0.7957747E-01            NaN
         13   -1    0    0    0    0  0.00000000000E+00  0.00000000000E+00  0.74505805969E-08  0.10566000000E+00  0.10566000000E+00 0.  1.
     999900   -1    0    0    0    0 -0.00000000000E+00 -0.00000000000E+00 -0.74505805969E-08  0.93827000000E+00  0.93827000000E+00 0.  1.
     999902    2    1    2    0    0  0.11126616927E-01 -0.69200501569E-02  0.50096519381E-02  0.10299019812E+01  0.10298064408E+01 0.  0.
     999903    2    3    3    0    0  0.49937718249E-01  0.50144622898E-01  0.11291467273E+00  0.14062914794E+00  0.44928554646E-01 0.  0.
         14    1    1    2    0    0 -0.11126616927E-01  0.69200501569E-02 -0.50096519381E-02  0.14028018783E-01  0.00000000000E+00 0.  1.
     999901    1    3    3    0    0 -0.38811101322E-01 -0.57064673054E-01 -0.10790502079E+00  0.88927283328E+00  0.88000000000E+00 0.  1.
        -11    1    4    4    0    0  0.14497706505E-01  0.33565188711E-01  0.85092996427E-01  0.92616869679E-01  0.51100000000E-03 0. -1.
         11    1    4    4    0    0  0.35440011744E-01  0.16579434186E-01  0.27821676303E-01  0.48012278259E-01  0.51100000000E-03 0.  1.
</event>
<event>
 8    1  0.2190295E+004  0.1043930E+01  0.7957747E-01            NaN
         13   -1    0    0    0    0  0.00000000000E+00  0.00000000000E+00  0.74505805969E-08  0.10566000000E+00  0.10566000000E+00 0. -1.
     999900   -1    0    0    0    0 -0.00000000000E+00 -0.00000000000E+00 -0.74505805969E-08  0.93827000000E+00  0.93827000000E+00 0. -1.
     999902    2    1    2    0    0 -0.94647602253E-02 -0.89165875328E-02  0.14947979332E-02  0.10308410107E+01  0.10307579094E+01 0.  0.
     999903    2    3    3    0    0 -0.96009088715E-01 -0.94983687813E-01  0.66749507698E-02  0.14240176096E+00  0.44654904433E-01 0.  0.
         14    1    1    2    0    0  0.94647602253E-02  0.89165875328E-02 -0.14947979332E-02  0.13088989274E-01  0.00000000000E+00 0.  1.
     999901    1    3    3    0    0  0.86544328489E-01  0.86067100280E-01 -0.51801528366E-02  0.88843924977E+00  0.88000000000E+00 0.  1.
        -11    1    4    4    0    0 -0.19870681861E-01 -0.12920973402E-01 -0.15441817819E-01  0.28293221977E-01  0.51100000000E-03 0.  1.
         11    1    4    4    0    0 -0.76138406854E-01 -0.82062714410E-01  0.22116768589E-01  0.11410853898E+00  0.51100000000E-03 0. -1.
</event>
<event>
 8    1  0.2190295E+004  0.1043930E+01  0.7957747E-01            NaN
         13   -1    0    0    0    0  0.00000000000E+00  0.00000000000E+00  0.74505805969E-08  0.10566000000E+00  0.10566000000E+00 0.  1.
     999900   -1    0    0    0    0 -0.00000000000E+00 -0.00000000000E+00 -0.74505805969E-08  0.93827000000E+00  0.93827000000E+00 0.  1.
     999902    2    1    2    0    0  0.82139734286E-02 -0.38070026336E-02  0.98994037830E-02  0.10305150522E+01  0.10304277326E+01 0.  0.
     999903    2    3    3    0    0  0.97992017451E-01 -0.67209270812E-01 -0.61010033894E-01  0.14084764631E+00  0.44680126094E-01 0.  0.
         14    1    1    2    0    0 -0.82139734286E-02  0.38070026336E-02 -0.98994037830E-02  0.13414947775E-01  0.00000000000E+00 0. -1.
     999901    1    3    3    0    0 -0.89778044022E-01  0.63402268179E-01  0.70909437677E-01  0.88966740592E+00  0.88000000000E+00 0. -1.
        -11    1    4    4    0    0  0.64779826477E-01 -0.21941845996E-01 -0.19814621222E-01  0.71209204878E-01  0.51100000000E-03 0.  1.
         11    1    4    4    0    0  0.33212190973E-01 -0.45267424816E-01 -0.41195412672E-01  0.69638441431E-01  0.51100000000E-03 0. -1.
</event>
<event>
 8    1  0.2190295E+004  0.1043930E+01  0.7957747E-01            NaN
         13   -1    0    0    0    0  0.00000000000E+00  0.00000000000E+00  0.74505805969E-08  0.10566000000E+00  0.10566000000E+00 0. -1.
     999900   -1    0    0    0    0 -0.00000000000E+00 -0.00000000000E+00 -0.74505805969E-08  0.93827000000E+00  0.93827000000E+00 0.  1.
     999902    2    1    2    0    0  0.38678357798E-02 -0.59900809655E-03  0.13330518242E-01  0.10300367757E+01  0.10299430750E+01 0.  0.
     999903    2    3    3    0    0 -0.48675610492E-01 -0.10101840081E+00 -0.68583939972E-01  0.13899533637E+00  0.45187546409E-01 0.  0.
         14    1    1    2    0    0 -0.38678357798E-02  0.59900809655E-03 -0.13330518242E-01  0.13893224281E-01  0.00000000000E+00 0.  1.
     999901    1    3    3    0    0  0.52543446271E-01  0.10041939271E+00  0.81914458214E-01  0.89104143935E+00  0.88000000000E+00 0.  1.
        -11    1    4    4    0    0 -0.54646639924E-02 -0.39623959999E-01 -0.45201738307E-01  0.60360409421E-01  0.51100000000E-03 0. -1.
         11    1    4    4    0    0 -0.43210946499E-01 -0.61394440812E-01 -0.23382201665E-01  0.78634926945E-01  0.51100000000E-03 0.  1.
</event>
<event>
 8    1  0.2190295E+004  0.1043930E+01  0.7957747E-01            NaN
         13   -1    0    0    0    0  0.00000000000E+00  0.00000000000E+00  0.74505805969E-08  0.10566000000E+00  0.10566000000E+00 0.  1.
     999900   -1    0    0    0    0 -0.00000000000E+00 -0.00000000000E+00 -0.74505805969E-08  0.93827000000E+00  0.93827000000E+00 0. -1.
     999902    2    1    2    0    0 -0.11386022092E-01  0.69785490150E-02 -0.42552102180E-02  0.10299139927E+01  0.10298186170E+01 0.  0.
     999903    2    3    3    0    0  0.11915073668E+00  0.20295471801E-01 -0.51068332535E-01  0.13895459174E+00  0.45734010867E-01 0.  0.
         14    1    1    2    0    0  0.11386022092E-01 -0.69785490150E-02  0.42552102180E-02  0.14016007257E-01  0.00000000000E+00 0. -1.
     999901    1    3    3    0    0 -0.13053675877E+00 -0.13316922786E-01  0.46813122317E-01  0.89095940101E+00  0.88000000000E+00 0. -1.
        -11    1    4    4    0    0  0.85540883191E-01  0.69640453890E-02 -0.55970162463E-01  0.10246297298E+00  0.51100000000E-03 0.  1.
         11    1    4    4    0    0  0.33609853487E-01  0.13331426412E-01  0.49018299278E-02  0.36491618753E-01  0.51100000000E-03 0. -1.
</event>
<event>
 8    1  0.2190295E+004  0.1043930E+01  0.7957747E-01            NaN
         13   -1    0    0    0    0  0.00000000000E+00  0.00000000000E+00  0.74505805969E-08  0.10566000000E+00  0.10566000000E+00 0. -1.
     999900   -1    0    0    0    0 -0.00000000000E+00 -0.00000000000E+00 -0.74505805969E-08  0.93827000000E+00  0.93827000000E+00 0.  1.
     999902    2    1    2    0    0 -0.69573191200E-02  0.24543472520E-02 -0.12252569039E-01  0.10296277779E+01  0.10295284393E+01 0.  0.
     999903    2    3    3    0    0 -0.88805375859E-01  0.91889162190E-01 -0.40116114073E-01  0.14087918144E+00  0.43676403765E-01 0.  0.
         14    1    1    2    0    0  0.69573191200E-02 -0.24543472520E-02  0.12252569039E-01  0.14302222129E-01  0.00000000000E+00 0. -1.
     999901    1    3    3    0    0  0.81848056739E-01 -0.89434814938E-01  0.27863545035E-01  0.88874859643E+00  0.88000000000E+00 0. -1.
        -11    1    4    4    0    0 -0.39163217902E-01  0.12677928225E-01 -0.17284732326E-01  0.44648746825E-01  0.51100000000E-03 0.  1.
         11    1    4    4    0    0 -0.49642157957E-01  0.79211233965E-01 -0.22831381747E-01  0.96230434616E-01  0.51100000000E-03 0. -1.
</event>
<event>
 8    1  0.2190295E+004  0.1043930E+01  0.7957747E-01            NaN
         13   -1    0    0    0    0  0.00000000000E+00  0.00000000000E+00  0.74505805969E-08  0.10566000000E+00  0.10566000000E+00 0. -1.
     999900   -1    0    0    0    0 -0.00000000000E+00 -0.00000000000E+00 -0.74505805969E-08  0.93827000000E+00  0.93827000000E+00 0. -1.
     999902    2    1    2    0    0 -0.90697454857E-02  0.34252950802E-02 -0.10638912378E-01  0.10295362727E+01  0.10294356499E+01 0.  0.
     999903    2    3    3    0    0  0.39272066143E-01  0.76443974389E-01  0.96817876601E-01  0.13868520781E+00  0.49738408065E-01 0.  0.
         14    1    1    2    0    0  0.90697454857E-02 -0.34252950802E-02  0.10638912378E-01  0.14393727320E-01  0.00000000000E+00 0. -1.
     999901    1    3    3    0    0 -0.48341811629E-01 -0.73018679309E-01 -0.10745678898E+00  0.89085106487E+00  0.88000000000E+00 0. -1.
        -11    1    4    4    0    0  0.41863640904E-01  0.31410417747E-01  0.65142102918E-01  0.83563948365E-01  0.51100000000E-03 0.  1.
         11    1    4    4    0    0 -0.25915747610E-02  0.45033556643E-01  0.31675773683E-01  0.55121259447E-01  0.51100000000E-03 0. -1.
</event>
<event>
 8    1  0.2190295E+004  0.1043930E+01  0.7957747E-01            NaN
         13   -1    0    0    0    0  0.00000000000E+00  0.00000000000E+00  0.74505805969E-08  0.10566000000E+00  0.10566000000E+00 0. -1.
     999900   -1    0    0    0    0 -0.00000000000E+00 -0.00000000000E+00 -0.74505805969E-08  0.93827000000E+00  0.93827000000E+00 0. -1.
     999902    2    1    2    0    0 -0.69448140932E-02 -0.20725848484E-02 -0.10366102507E-01  0.10312815957E+01  0.10312040280E+01 0.  0.
     999903    2    3    3    0    0 -0.28903391245E-01 -0.34250296276E-01  0.12493097297E+00  0.14008976287E+00  0.44820808042E-01 0.  0.
         14    1    1    2    0    0  0.69448140932E-02  0.20725848484E-02  0.10366102507E-01  0.12648404323E-01  0.00000000000E+00 0. -1.
     999901    1    3    3    0    0  0.21958577152E-01  0.32177711428E-01 -0.13529707548E+00  0.89119183280E+00  0.88000000000E+00 0. -1.
        -11    1    4    4    0    0 -0.27449276872E-01 -0.38176716119E-01  0.66165053728E-01  0.81172654941E-01  0.51100000000E-03 0. -1.
         11    1    4    4    0    0 -0.14541143733E-02  0.39264198425E-02  0.58765919245E-01  0.58917107932E-01  0.51100000000E-03 0.  1.
</event>
<event>
 7    1  0.2272304E+004  0.1043930E+01  0.7957747E-01            NaN
         13   -1    0    0    0    0  0.00000000000E+00  0.00000000000E+00  0.74505805969E-08  0.10566000000E+00  0.10566000000E+00 0. -1.
     999900   -1    0    0    0    0 -0.00000000000E+00 -0.00000000000E+00 -0.74505805969E-08  0.93827000000E+00  0.93827000000E+00 0.  1.
     999903    2    1    2    0    0  0.54200626297E-01  0.47519946610E-01  0.76793851874E-01  0.11439784350E+00  0.44651065992E-01 0.  0.
         14    1    1    2    0    0  0.38957355383E-01  0.43537392905E-02  0.40934941326E-02  0.39413034372E-01  0.00000000000E+00 0.  1.
     999901    1    1    2    0    0 -0.93157981679E-01 -0.51873685901E-01 -0.80887346007E-01  0.89011912213E+00  0.88000000000E+00 0.  1.
        -11    1    3    3    0    0  0.21844236626E-01  0.45416988949E-01  0.58304824445E-01  0.77068717607E-01  0.51100000000E-03 0. -1.
         11    1    3    3    0    0  0.32356389670E-01  0.21029576608E-02  0.18489027429E-01  0.37329125890E-01  0.51100000000E-03 0.  1.
</event>
<event>
 8    1  0.2190295E+004  0.1043930E+01  0.7957747E-01            NaN
         13   -1    0    0    0    0  0.00000000000E+00  0.00000000000E+00  0.74505805969E-08  0.10566000000E+00  0.10566000000E+00 0. -1.
     999900   -1    0    0    0    0 -0.00000000000E+00 -0.00000000000E+00 -0.74505805969E-08  0.93827000000E+00  0.93827000000E+00 0. -1.
     999902    2    1    2    0    0  0.75587035318E-02 -0.76732919669E-02  0.83968893498E-02  0.10302727250E+01  0.10301822008E+01 0.  0.
     999903    2    3    3    0    0  0.51892954294E-01 -0.30020616318E-01  0.12000666147E+00  0.14183495573E+00  0.46059089869E-01 0.  0.
         14    1    1    2    0    0 -0.75587035318E-02  0.76732919669E-02 -0.83968893498E-02  0.13657274964E-01  0.00000000000E+00 0.  1.
     999901    1    3    3    0    0 -0.44334250763E-01  0.22347324351E-01 -0.11160977212E+00  0.88843776931E+00  0.88000000000E+00 0. -1.
        -11    1    4    4    0    0  0.18692391252E-01 -0.36641441250E-01  0.56814283034E-01  0.70143599746E-01  0.51100000000E-03 0.  1.
         11    1    4    4    0    0  0.33200563042E-01  0.66208249323E-02  0.63192378439E-01  0.71691355984E-01  0.51100000000E-03 0. -1.
</event>
<event>
 8    1  0.2190295E+004  0.1043930E+01  0.7957747E-01            NaN
         13   -1    0    0    0    0  0.00000000000E+00  0.00000000000E+00  0.74505805969E-08  0.10566000000E+00  0.10566000000E+00 0.  1.
     999900   -1    0    0    0    0 -0.00000000000E+00 -0.00000000000E+00 -0.74505805969E-08  0.93827000000E+00  0.93827000000E+00 0. -1.
     999902    2    1    2    0    0  0.16048326756E-01  0.44129905452E-02 -0.12240799952E-03  0.10272855336E+01  0.10271506848E+01 0.  0.
     999903    2    3    3    0    0 -0.42460110395E-01  0.35799889524E-01 -0.11659850152E+00  0.13713102175E+00  0.46100038025E-01 0.  0.
         14    1    1    2    0    0 -0.16048326756E-01 -0.44129905452E-02  0.12240799952E-03  0.16644466376E-01  0.00000000000E+00 0.  1.
     999901    1    3    3    0    0  0.58508437152E-01 -0.31386898979E-01  0.11647609352E+00  0.89015451187E+00  0.88000000000E+00 0.  1.
        -11    1    4    4    0    0 -0.49023534318E-01  0.16465477424E-01 -0.85527141884E-01  0.99947846318E-01  0.51100000000E-03 0. -1.
         11    1    4    4    0    0  0.65634239226E-02  0.19334412100E-01 -0.31071359633E-01  0.37183175433E-01  0.51100000000E-03 0.  1.
</event>
<event>
 8    1  0.2190295E+004  0.1043930E+01  0.7957747E-01            NaN
         13   -1    0    0    0    0  0.00000000000E+00  0.00000000000E+00  0.74505805969E-08  0.10566000000E+00  0.10566000000E+00 0. -1.
     999900   -1    0    0    0    0 -0.00000000000E+00 -0.00000000000E+00 -0.74505805969E-08  0.93827000000E+00  0.93827000000E+00 0.  1.
     999902    2    1    2    0    0 -0.96074914971E-02 -0.85983513375E-02 -0.60769382525E-02  0.10296764139E+01  0.10295777545E+01 0.  0.
     999903    2    3    3    0    0  0.22249376002E-01  0.12289571883E+00  0.38650762606E-01  0.13821350511E+00  0.44840819643E-01 0.  0.
         14    1    1    2    0    0  0.96074914971E-02  0.85983513375E-02  0.60769382525E-02  0.14253586114E-01  0.00000000000E+00 0. -1.
     999901    1    3    3    0    0 -0.31856867499E-01 -0.13149407017E+00 -0.44727700859E-01  0.89146290877E+00  0.88000000000E+00 0.  1.
        -11    1    4    4    0    0  0.20517930179E-01  0.22583203154E-01  0.19090549652E-01  0.35995787677E-01  0.51100000000E-03 0. -1.
         11    1    4    4    0    0  0.17314458232E-02  0.10031251567E+00  0.19560212954E-01  0.10221771743E+00  0.51100000000E-03 0.  1.
</event>
<event>
 8    1  0.2190295E+004  0.1043930E+01  0.7957747E-01            NaN
         13   -1    0    0    0    0  0.00000000000E+00  0.00000000000E+00  0.74505805969E-08  0.10566000000E+00  0.10566000000E+00 0. -1.
     999900   -1    0    0    0    0 -0.00000000000E+00 -0.00000000000E+00 -0.74505805969E-08  0.93827000000E+00  0.93827000000E+00 0.  1.
     999902    2    1    2    0    0 -0.96259284907E-02  0.50327368857E-03  0.95508693673E-02  0.10303605162E+01  0.10302711597E+01 0.  0.
     999903    2    3    3    0    0  0.79560484103E-01  0.64798918615E-01  0.84332898802E-01  0.14037147245E+00  0.45424024184E-01 0.  0.
         14    1    1    2    0    0  0.96259284907E-02 -0.50327368857E-03 -0.95508693673E-02  0.13569483755E-01  0.00000000000E+00 0.  1.
     999901    1    3    3    0    0 -0.89186412594E-01 -0.64295644926E-01 -0.74782029435E-01  0.88998904379E+00  0.88000000000E+00 0.  1.
        -11    1    4    4    0    0  0.21062487700E-01  0.41208105806E-01  0.51569937710E-01  0.69292539054E-01  0.51100000000E-03 0.  1.
         11    1    4    4    0    0  0.58497996403E-01  0.23590812810E-01  0.32762961093E-01  0.71078933396E-01  0.51100000000E-03 0. -1.
</event>
<event>
 8    1  0.2190295E+004  0.1043930E+01  0.7957747E-01            NaN
         13   -1    0    0    0    0  0.00000000000E+00  0.00000000000E+00  0.74505805969E-08  0.10566000000E+00  0.10566000000E+00 0. -1.
     999900   -1    0    0    0    0 -0.00000000000E+00 -0.00000000000E+00 -0.74505805969E-08  0.93827000000E+00  0.93827000000E+00 0.  1.
     999902    2    1    2    0    0 -0.18696473536E-02  0.78773359100E-02 -0.11740226384E-01  0.10296688318E+01  0.10295700667E+01 0.  0.
     999903    2    3    3    0    0  0.77849804902E-02 -0.76051165291E-01  0.10579043498E+00  0.13784448728E+00  0.44329458337E-01 0.  0.
         14    1    1    2    0    0  0.18696473536E-02 -0.78773359100E-02  0.11740226384E-01  0.14261168179E-01  0.00000000000E+00 0. -1.
     999901    1    3    3    0    0 -0.96546278438E-02  0.83928501201E-01 -0.11753066137E+00  0.89182434454E+00  0.88000000000E+00 0.  1.
        -11    1    4    4    0    0  0.27474913714E-02 -0.32704856414E-01  0.81584230580E-01  0.87939775655E-01  0.51100000000E-03 0. -1.
         11    1    4    4    0    0  0.50374891188E-02 -0.43346308877E-01  0.24206204403E-01  0.49904711626E-01  0.51100000000E-03 0.  1.
</event>
<event>
 8    1  0.2190295E+004  0.1043930E+01  0.7957747E-01            NaN
         13   -1    0    0    0    0  0.00000000000E+00  0.00000000000E+00  0.74505805969E-08  0.10566000000E+00  0.10566000000E+00 0. -1.
     999900   -1    0    0    0    0 -0.00000000000E+00 -0.00000000000E+00 -0.74505805969E-08  0.93827000000E+00  0.93827000000E+00 0.  1.
     999902    2    1    2    0    0 -0.72701815680E-02 -0.11426239590E-01 -0.29337027047E-02  0.10300728321E+01  0.10299796203E+01 0.  0.
     999903    2    3    3    0    0  0.33543244412E-01 -0.90308024476E-01  0.92091686848E-01  0.14051232465E+00  0.44521298955E-01 0.  0.
         14    1    1    2    0    0  0.72701815680E-02  0.11426239590E-01  0.29337027047E-02  0.13857167920E-01  0.00000000000E+00 0.  1.
     999901    1    3    3    0    0 -0.40813425980E-01  0.78881784886E-01 -0.95025389552E-01  0.88956050743E+00  0.88000000000E+00 0.  1.
        -11    1    4    4    0    0  0.10796216227E-01 -0.61616273254E-01  0.80812692595E-01  0.10219626128E+00  0.51100000000E-03 0.  1.
         11    1    4    4    0    0  0.22747028184E-01 -0.28691751222E-01  0.11278994253E-01  0.38316063364E-01  0.51100000000E-03 0. -1.
</event>
<event>
 8    1  0.2190295E+004  0.1043930E+01  0.7957747E-01            NaN
         13   -1    0    0    0    0  0.00000000000E+00  0.00000000000E+00  0.74505805969E-08  0.10566000000E+00  0.10566000000E+00 0. -1.
     999900   -1    0    0    0    0 -0.00000000000E+00 -0.00000000000E+00 -0.74505805969E-08  0.93827000000E+00  0.93827000000E+00 0. -1.
     999902    2    1    2    0    0  0.97452101154E-02 -0.17799506748E-02 -0.98632218284E-02  0.10299507121E+01  0.10298558389E+01 0.  0.
     999903    2    3    3    0    0 -0.10024780413E+00 -0.59129345890E-01  0.59829709652E-01  0.13852235213E+00  0.45419666489E-01 0.  0.
         14    1    1    2    0    0 -0.97452101154E-02  0.17799506748E-02  0.98632218284E-02  0.13979287873E-01  0.00000000000E+00 0. -1.
     999901    1    3    3    0    0  0.10999301424E+00  0.57349395215E-01 -0.69692931481E-01  0.89142836000E+00  0.88000000000E+00 0. -1.
        -11    1    4    4    0    0 -0.45016866893E-01 -0.90819837271E-02  0.41190600857E-01  0.61692199290E-01  0.51100000000E-03 0.  1.
         11    1    4    4    0    0 -0.55230937235E-01 -0.50047362163E-01  0.18639108795E-01  0.76830152837E-01  0.51100000000E-03 0. -1.
</event>
<event>
 8    1  0.2190295E+004  0.1043930E+01  0.7957747E-01            NaN
         13   -1    0    0    0    0  0.00000000000E+00  0.00000000000E+00  0.74505805969E-08  0.10566000000E+00  0.10566000000E+00 0. -1.
     999900   -1    0    0    0    0 -0.00000000000E+00 -0.00000000000E+00 -0.74505805969E-08  0.93827000000E+00  0.93827000000E+00 0. -1.
     999902    2    1    2    0    0  0.10636000121E-01  0.50136253871E-02  0.70722952527E-02  0.10302085461E+01  0.10301171633E+01 0.  0.
     999903    2    3    3    0    0 -0.90980990108E-01  0.21005591803E-01 -0.92149311586E-01  0.13867801772E+00  0.44959109486E-01 0.  0.
         14    1    1    2    0    0 -0.10636000121E-01 -0.50136253871E-02 -0.70722952527E-02  0.13721453940E-01  0.00000000000E+00 0.  1.
     999901    1    3    3    0    0  0.10161699023E+00 -0.15991966416E-01  0.99221606838E-01  0.89153052834E+00  0.88000000000E+00 0.  1.
        -11    1    4    4    0    0 -0.51282781918E-01  0.45378069148E-02 -0.21104463735E-01  0.55643282824E-01  0.51100000000E-03 0. -1.
         11    1    4    4    0    0 -0.39698208190E-01  0.16467784888E-01 -0.71044847851E-01  0.83034734899E-01  0.51100000000E-03 0.  1.
</event>
<event>
 8    1  0.2190295E+004  0.1043930E+01  0.7957747E-01            NaN
         13   -1    0    0    0    0  0.00000000000E+00  0.00000000000E+00  0.74505805969E-08  0.10566000000E+00  0.10566000000E+00 0. -1.
     999900   -1    0    0    0    0 -0.00000000000E+00 -0.00000000000E+00 -0.74505805969E-08  0.93827000000E+00  0.93827000000E+00 0. -1.
     999902    2    1    2    0    0 -0.97813814351E-02  0.24895748383E-02  0.99612183408E-02  0.10297490523E+01  0.10296514029E+01 0.  0.
     999903    2    3    3    0    0  0.14055250742E-01  0.73217435533E-01 -0.10801241745E+00  0.13874490305E+00  0.45001365098E-01 0.  0.
         14    1    1    2    0    0  0.97813814351E-02 -0.24895748383E-02 -0.99612183408E-02  0.14180947658E-01  0.00000000000E+00 0.  1.
     999901    1    3    3    0    0 -0.23836632177E-01 -0.70727860695E-01  0.11797363579E+00  0.89100414929E+00  0.88000000000E+00 0.  1.
        -11    1    4    4    0    0 -0.13670751676E-01  0.71592978728E-02 -0.19200620684E-01  0.24638789602E-01  0.51100000000E-03 0.  1.
         11    1    4    4    0    0  0.27726002418E-01  0.66058137660E-01 -0.88811796763E-01  0.11410611345E+00  0.51100000000E-03 0. -1.
</event>
<event>
 8    1  0.2190295E+004  0.1043930E+01  0.7957747E-01            NaN
         13   -1    0    0    0    0  0.00000000000E+00  0.00000000000E+00  0.74505805969E-08  0.10566000000E+00  0.10566000000E+00 0. -1.
     999900   -1    0    0    0    0 -0.00000000000E+00 -0.00000000000E+00 -0.74505805969E-08  0.93827000000E+00  0.93827000000E+00 0. -1.
     999902    2    1    2    0    0  0.46089248171E-02  0.40082837460E-02 -0.11568184012E-01  0.10308482796E+01  0.10307652711E+01 0.  0.
     999903    2    3    3    0    0 -0.10030770972E+00  0.37775906259E-01  0.76967261718E-01  0.13956477945E+00  0.45450110724E-01 0.  0.
         14    1    1    2    0    0 -0.46089248171E-02 -0.40082837460E-02  0.11568184012E-01  0.13081720372E-01  0.00000000000E+00 0. -1.
     999901    1    3    3    0    0  0.10491663454E+00 -0.33767622513E-01 -0.88535445730E-01  0.89128350017E+00  0.88000000000E+00 0. -1.
        -11    1    4    4    0    0 -0.10566978946E-01  0.11575360859E-01 -0.36688579450E-02  0.16105019798E-01  0.51100000000E-03 0. -1.
         11    1    4    4    0    0 -0.89740730774E-01  0.26200545400E-01  0.80636119663E-01  0.12345975966E+00  0.51100000000E-03 0.  1.
</event>
<event>
 8    1  0.2190295E+004  0.1043930E+01  0.7957747E-01            NaN
         13   -1    0    0    0    0  0.00000000000E+00  0.00000000000E+00  0.74505805969E-08  0.10566000000E+00  0.10566000000E+00 0.  1.
     999900   -1    0    0    0    0 -0.00000000000E+00 -0.00000000000E+00 -0.74505805969E-08  0.93827000000E+00  0.93827000000E+00 0. -1.
     999902    2    1    2    0    0 -0.15847393954E-01 -0.34987751551E-02  0.24523205805E-02  0.10275167371E+01  0.10273856383E+01 0.  0.
     999903    2    3    3    0    0 -0.45981281028E-01 -0.53194159532E-01  0.11122609275E+00  0.13891704326E+00  0.44528691743E-01 0.  0.
         14    1    1    2    0    0  0.15847393954E-01  0.34987751551E-02 -0.24523205805E-02  0.16413262898E-01  0.00000000000E+00 0.  1.
     999901    1    3    3    0    0  0.30133887073E-01  0.49695384377E-01 -0.10877377217E+00  0.88859969384E+00  0.88000000000E+00 0. -1.
        -11    1    4    4    0    0 -0.23444907143E-01  0.16486249308E-02  0.25502981620E-01  0.34684936609E-01  0.51100000000E-03 0.  1.
         11    1    4    4    0    0 -0.22536373885E-01 -0.54842784463E-01  0.85723111126E-01  0.10423210665E+00  0.51100000000E-03 0. -1.
</event>
<event>
 8    1  0.2190295E+004  0.1043930E+01  0.7957747E-01            NaN
         13   -1    0    0    0    0  0.00000000000E+00  0.00000000000E+00  0.74505805969E-08  0.10566000000E+00  0.10566000000E+00 0.  1.
     999900   -1    0    0    0    0 -0.00000000000E+00 -0.00000000000E+00 -0.74505805969E-08  0.93827000000E+00  0.93827000000E+00 0.  1.
     999902    2    1    2    0    0  0.12284054495E-01  0.64285582570E-02 -0.12916098697E-02  0.10300054673E+01  0.10299113408E+01 0.  0.
     999903    2    3    3    0    0  0.41301605830E-02  0.22019577061E-01  0.13045576541E+00  0.14002404231E+00  0.45673906077E-01 0.  0.
         14    1    1    2    0    0 -0.12284054495E-01 -0.64285582570E-02  0.12916098697E-02  0.13924532745E-01  0.00000000000E+00 0. -1.
     999901    1    3    3    0    0  0.81538939123E-02 -0.15591018804E-01 -0.13174737528E+00  0.88998142494E+00  0.88000000000E+00 0.  1.
        -11    1    4    4    0    0  0.23742705522E-01  0.12956059334E-01  0.92189198113E-01  0.96076453456E-01  0.51100000000E-03 0.  1.
         11    1    4    4    0    0 -0.19612544939E-01  0.90635177273E-02  0.38266567296E-01  0.43947588855E-01  0.51100000000E-03 0. -1.
</event>
<event>
 8    1  0.2190295E+004  0.1043930E+01  0.7957747E-01            NaN
         13   -1    0    0    0    0  0.00000000000E+00  0.00000000000E+00  0.74505805969E-08  0.10566000000E+00  0.10566000000E+00 0.  1.
     999900   -1    0    0    0    0 -0.00000000000E+00 -0.00000000000E+00 -0.74505805969E-08  0.93827000000E+00  0.93827000000E+00 0.  1.
     999902    2    1    2    0    0  0.13266498903E-01 -0.16754748461E-02  0.30554496150E-02  0.10302134778E+01  0.10301221611E+01 0.  0.
     999903    2    3    3    0    0  0.89330124413E-01  0.17046246205E-02  0.98457924634E-01  0.14178861747E+00  0.49267354794E-01 0.  0.
         14    1    1    2    0    0 -0.13266498903E-01  0.16754748461E-02 -0.30554496150E-02  0.13716522207E-01  0.00000000000E+00 0.  1.
     999901    1    3    3    0    0 -0.76063625509E-01 -0.33800994666E-02 -0.95402475019E-01  0.88842486032E+00  0.88000000000E+00 0.  1.
        -11    1    4    4    0    0  0.78384581341E-01  0.17886243759E-01  0.89440201630E-01  0.12026583512E+00  0.51100000000E-03 0.  1.
         11    1    4    4    0    0  0.10945543072E-01 -0.16181619138E-01  0.90177230042E-02  0.21522782354E-01  0.51100000000E-03 0. -1.
</event>
<event>
 8    1  0.2190295E+004  0.1043930E+01  0.7957747E-01            NaN
         13   -1    0    0    0    0  0.00000000000E+00  0.00000000000E+00  0.74505805969E-08  0.10566000000E+00  0.10566000000E+00 0. -1.
     999900   -1    0    0    0    0 -0.00000000000E+00 -0.00000000000E+00 -0.74505805969E-08  0.93827000000E+00  0.93827000000E+00 0. -1.
     999902    2    1    2    0    0  0.29077873172E-02 -0.54150312436E-02  0.11875606159E-01  0.10305580962E+01  0.10304713396E+01 0.  0.
     999903    2    3    3    0    0 -0.10783573394E+00 -0.70036788321E-01 -0.32038477903E-01  0.14018258787E+00  0.45727416765E-01 0.  0.
         14    1    1    2    0    0 -0.29077873172E-02  0.54150312436E-02 -0.11875606159E-01  0.13371903832E-01  0.00000000000E+00 0.  1.
     999901    1    3    3    0    0  0.11074352126E+00  0.64621757078E-01  0.43914084062E-01  0.89037550829E+00  0.88000000000E+00 0.  1.
        -11    1    4    4    0    0 -0.87962223034E-01 -0.49711124855E-01 -0.53386031780E-02  0.10117959488E+00  0.51100000000E-03 0.  1.
         11    1    4    4    0    0 -0.19873510907E-01 -0.20325663466E-01 -0.26699874725E-01  0.39002992993E-01  0.51100000000E-03 0. -1.
</event>
<event>
 8    1  0.2190295E+004  0.1043930E+01  0.7957747E-01            NaN
         13   -1    0    0    0    0  0.00000000000E+00  0.00000000000E+00  0.74505805969E-08  0.10566000000E+00  0.10566000000E+00 0. -1.
     999900   -1    0    0    0    0 -0.00000000000E+00 -0.00000000000E+00 -0.74505805969E-08  0.93827000000E+00  0.93827000000E+00 0. -1.
     999902    2    1    2    0    0 -0.46704196203E-02 -0.12764719388E-01  0.48118329490E-02  0.10295111021E+01  0.10294101246E+01 0.  0.
     999903    2    3    3    0    0 -0.11606546856E-01 -0.11431853539E+00 -0.67435114692E-01  0.14070240004E+00  0.45235287321E-01 0.  0.
         14    1    1    2    0    0  0.46704196203E-02  0.12764719388E-01 -0.48118329490E-02  0.14418897906E-01  0.00000000000E+00 0.  1.
     999901    1    3    3    0    0  0.69361272354E-02  0.10155381600E+00  0.72246947641E-01  0.88880870206E+00  0.88000000000E+00 0.  1.
        -11    1    4    4    0    0  0.11710747845E-01 -0.85701575235E-01 -0.49458829040E-01  0.99641048288E-01  0.51100000000E-03 0. -1.
         11    1    4    4    0    0 -0.23317294701E-01 -0.28616960156E-01 -0.17976285652E-01  0.41061351751E-01  0.51100000000E-03 0.  1.
</event>
<event>
 8    1  0.2190295E+004  0.1043930E+01  0.7957747E-01            NaN
         13   -1    0    0    0    0  0.00000000000E+00  0.00000000000E+00  0.74505805969E-08  0.10566000000E+00  0.10566000000E+00 0. -1.
     999900   -1    0    0    0    0 -0.00000000000E+00 -0.00000000000E+00 -0.74505805969E-08  0.93827000000E+00  0.93827000000E+00 0. -1.
     999902    2    1    2    0    0 -0.50268500431E-02 -0.70651387690E-02  0.11315167815E-01  0.10296745298E+01  0.10295758442E+01 0.  0.
     999903    2    3    3    0    0 -0.72132733154E-01 -0.18381228163E-01 -0.10840829992E+00  0.13896416043E+00  0.44918566899E-01 0.  0.
         14    1    1    2    0    0  0.50268500431E-02  0.70651387690E-02 -0.11315167815E-01  0.14255470173E-01  0.00000000000E+00 0.  1.
     999901    1    3    3    0    0  0.67105883110E-01  0.11316089394E-01  0.11972346773E+00  0.89071036940E+00  0.88000000000E+00 0.  1.
        -11    1    4    4    0    0 -0.89297195354E-02  0.16947267677E-02 -0.49285438884E-01  0.50119134038E-01  0.51100000000E-03 0. -1.
         11    1    4    4    0    0 -0.63203013618E-01 -0.20075954931E-01 -0.59122861032E-01  0.88845026391E-01  0.51100000000E-03 0.  1.
</event>
<event>
 8    1  0.2190295E+004  0.1043930E+01  0.7957747E-01            NaN
         13   -1    0    0    0    0  0.00000000000E+00  0.00000000000E+00  0.74505805969E-08  0.10566000000E+00  0.10566000000E+00 0.  1.
     999900   -1    0    0    0    0 -0.00000000000E+00 -0.00000000000E+00 -0.74505805969E-08  0.93827000000E+00  0.93827000000E+00 0. -1.
     999902    2    1    2    0    0 -0.12734141716E-01 -0.52385133016E-02 -0.38567491470E-03  0.10301550542E+01  0.10300629527E+01 0.  0.
     999903    2    3    3    0    0  0.23824073872E-01 -0.13084223865E+00  0.29136874147E-02  0.14047888572E+00  0.45150302862E-01 0.  0.
         14    1    1    2    0    0  0.12734141716E-01  0.52385133016E-02  0.38567491470E-03  0.13774945807E-01  0.00000000000E+00 0. -1.
     999901    1    3    3    0    0 -0.36558215588E-01  0.12560372535E+00 -0.32993623294E-02  0.88967616847E+00  0.88000000000E+00 0. -1.
        -11    1    4    4    0    0  0.12839358686E-01 -0.46618956652E-02  0.20171108553E-02  0.13817100269E-01  0.51100000000E-03 0. -1.
         11    1    4    4    0    0  0.10984715187E-01 -0.12618034299E+00  0.89657655941E-03  0.12666178546E+00  0.51100000000E-03 0.  1.
</event>
<event>
 8    1  0.2190295E+004  0.1043930E+01  0.7957747E-01            NaN
         13   -1    0    0    0    0  0.00000000000E+00  0.00000000000E+00  0.74505805969E-08  0.10566000000E+00  0.10566000000E+00 0.  1.
     999900   -1    0    0    0    0 -0.00000000000E+00 -0.00000000000E+00 -0.74505805969E-08  0.93827000000E+00  0.93827000000E+00 0.  1.
     999902    2    1    2    0    0  0.15011378848E-01  0.36141047285E-02  0.21392152907E-02  0.10283422006E+01  0.10282240525E+01 0.  0.
     999903    2    3    3    0    0 -0.43408855003E-01  0.23736169201E-01 -0.12034791370E+00  0.13771269404E+00  0.45093584316E-01 0.  0.
         14    1    1    2    0    0 -0.15011378848E-01 -0.36141047285E-02 -0.21392152907E-02  0.15587799394E-01  0.00000000000E+00 0. -1.
     999901    1    3    3    0    0  0.58420233851E-01 -0.20122064473E-01  0.12248712899E+00  0.89062950657E+00  0.88000000000E+00 0. -1.
        -11    1    4    4    0    0 -0.28759336820E-01  0.31441601333E-01 -0.51220679637E-01  0.66629519676E-01  0.51100000000E-03 0. -1.
         11    1    4    4    0    0 -0.14649518182E-01 -0.77054321321E-02 -0.69127234061E-01  0.71083174361E-01  0.51100000000E-03 0.  1.
</event>
<event>
 8    1  0.2190295E+004  0.1043930E+01  0.7957747E-01            NaN
         13   -1    0    0    0    0  0.00000000000E+00  0.00000000000E+00  0.74505805969E-08  0.10566000000E+00  0.10566000000E+00 0.  1.
     999900   -1    0    0    0    0 -0.00000000000E+00 -0.00000000000E+00 -0.74505805969E-08  0.93827000000E+00  0.93827000000E+00 0. -1.
     999902    2    1    2    0    0  0.10457017787E-01  0.65327617971E-02  0.77783060391E-02  0.10293516516E+01  0.10292484124E+01 0.  0.
     999903    2    3    3    0    0  0.23102929604E-01  0.27335494284E-01 -0.12652367763E+00  0.13882950386E+00  0.44546779204E-01 0.  0.
         14    1    1    2    0    0 -0.10457017787E-01 -0.65327617971E-02 -0.77783060391E-02  0.14578348416E-01  0.00000000000E+00 0. -1.
     999901    1    3    3    0    0 -0.12645911817E-01 -0.20802732487E-01  0.13430198367E+00  0.89052214772E+00  0.88000000000E+00 0.  1.
        -11    1    4    4    0    0  0.29511403059E-01  0.96460334555E-02 -0.10817705243E+00  0.11254556706E+00  0.51100000000E-03 0. -1.
         11    1    4    4    0    0 -0.64084734552E-02  0.17689460829E-01 -0.18346625200E-01  0.26283936799E-01  0.51100000000E-03 0.  1.
</event>
<event>
 8    1  0.2190295E+004  0.1043930E+01  0.7957747E-01            NaN
         13   -1    0    0    0    0  0.00000000000E+00  0.00000000000E+00  0.74505805969E-08  0.10566000000E+00  0.10566000000E+00 0.  1.
     999900   -1    0    0    0    0 -0.00000000000E+00 -0.00000000000E+00 -0.74505805969E-08  0.93827000000E+00  0.93827000000E+00 0. -1.
     999902    2    1    2    0    0 -0.50568502863E-02  0.10071014165E-01 -0.89253530286E-02  0.10295543613E+01  0.10294539931E+01 0.  0.
     999903    2    3    3    0    0  0.32238809039E-01  0.67295015741E-01 -0.11095390411E+00  0.14103009164E+00  0.44841475864E-01 0.  0.
         14    1    1    2    0    0  0.50568502863E-02 -0.10071014165E-01  0.89253530286E-02  0.14375638693E-01  0.00000000000E+00 0. -1.
     999901    1    3    3    0    0 -0.37295659325E-01 -0.57224001576E-01  0.10202855108E+00  0.88852426967E+00  0.88000000000E+00 0.  1.
        -11    1    4    4    0    0  0.45548732513E-02  0.88232282581E-02 -0.53778350137E-01  0.54689745764E-01  0.51100000000E-03 0.  1.
         11    1    4    4    0    0  0.27683935788E-01  0.58471787483E-01 -0.57175553972E-01  0.86340345871E-01  0.51100000000E-03 0. -1.
</event>
<event>
 8    1  0.2190295E+004  0.1043930E+01  0.7957747E-01            NaN
         13   -1    0    0    0    0  0.00000000000E+00  0.00000000000E+00  0.74505805969E-08  0.10566000000E+00  0.10566000000E+00 0.  1.
     999900   -1    0    0    0    0 -0.00000000000E+00 -0.00000000000E+00 -0.74505805969E-08  0.93827000000E+00  0.93827000000E+00 0.  1.
     999902    2    1    2    0    0 -0.69479965886E-02  0.29350363730E-02 -0.11966063414E-01  0.10297851858E+01  0.10296880368E+01 0.  0.
     999903    2    3    3    0    0  0.26902145933E-01  0.50744401258E-01  0.11775180614E+00  0.13834910105E+00  0.44455215617E-01 0.  0.
         14    1    1    2    0    0  0.69479965886E-02 -0.29350363730E-02  0.11966063414E-01  0.14144814200E-01  0.00000000000E+00 0.  1.
     999901    1    3    3    0    0 -0.33850142521E-01 -0.47809364885E-01 -0.12971786956E+00  0.89143608475E+00  0.88000000000E+00 0.  1.
        -11    1    4    4    0    0 -0.98780203799E-02  0.22818971770E-01  0.55673457521E-01  0.60976026048E-01  0.51100000000E-03 0. -1.
         11    1    4    4    0    0  0.36780166313E-01  0.27925429488E-01  0.62078348622E-01  0.77373074998E-01  0.51100000000E-03 0.  1.
</event>
<event>
 8    1  0.2190295E+004  0.1043930E+01  0.7957747E-01            NaN
         13   -1    0    0    0    0  0.00000000000E+00  0.00000000000E+00  0.74505805969E-08  0.10566000000E+00  0.10566000000E+00 0. -1.
     999900   -1    0    0    0    0 -0.00000000000E+00 -0.00000000000E+00 -0.74505805969E-08  0.93827000000E+00  0.93827000000E+00 0.  1.
     999902    2    1    2    0    0  0.19478216300E-02  0.77694183662E-02 -0.10543774827E-01  0.10306888120E+01  0.10306037542E+01 0.  0.
     999903    2    3    3    0    0  0.51968646625E-01  0.12334158213E+00 -0.12793619184E-01  0.14172083187E+00  0.44802135911E-01 0.  0.
         14    1    1    2    0    0 -0.19478216300E-02 -0.77694183662E-02  0.10543774827E-01  0.13241187955E-01  0.00000000000E+00 0. -1.
     999901    1    3    3    0    0 -0.50020824995E-01 -0.11557216376E+00  0.22498443573E-02  0.88896798017E+00  0.88000000000E+00 0. -1.
        -11    1    4    4    0    0  0.22791828879E-01  0.99787038653E-01 -0.84431769543E-03  0.10236158723E+00  0.51100000000E-03 0. -1.
         11    1    4    4    0    0  0.29176817745E-01  0.23554543472E-01 -0.11949301489E-01  0.39359244645E-01  0.51100000000E-03 0.  1.
</event>
<event>
 8    1  0.2190295E+004  0.1043930E+01  0.7957747E-01            NaN
         13   -1    0    0    0    0  0.00000000000E+00  0.00000000000E+00  0.74505805969E-08  0.10566000000E+00  0.10566000000E+00 0.  1.
     999900   -1    0    0    0    0 -0.00000000000E+00 -0.00000000000E+00 -0.74505805969E-08  0.93827000000E+00  0.93827000000E+00 0. -1.
     999902    2    1    2    0    0 -0.35044102706E-02 -0.81733782838E-02 -0.17390747437E-01  0.10243973837E+01  0.10242111484E+01 0.  0.
     999903    2    3    3    0    0 -0.16883117938E-01 -0.66898039723E-02  0.12437307256E+00  0.13295014942E+00  0.43327680585E-01 0.  0.
         14    1    1    2    0    0  0.35044102706E-02  0.81733782838E-02  0.17390747437E-01  0.19532616321E-01  0.00000000000E+00 0.  1.
     999901    1    3    3    0    0  0.13378707668E-01 -0.14835743115E-02 -0.14176381999E+00  0.89144723426E+00  0.88000000000E+00 0. -1.
        -11    1    4    4    0    0 -0.27578946084E-01 -0.16749009592E-01  0.83778414704E-01  0.89778680547E-01  0.51100000000E-03 0.  1.
         11    1    4    4    0    0  0.10695828146E-01  0.10059205619E-01  0.40594657852E-01  0.43171468872E-01  0.51100000000E-03 0. -1.
</event>
<event>
 8    1  0.2190295E+004  0.1043930E+01  0.7957747E-01            NaN
         13   -1    0    0    0    0  0.00000000000E+00  0.00000000000E+00  0.74505805969E-08  0.10566000000E+00  0.10566000000E+00 0. -1.
     999900   -1    0    0    0    0 -0.00000000000E+00 -0.00000000000E+00 -0.74505805969E-08  0.93827000000E+00  0.93827000000E+00 0.  1.
     999902    2    1    2    0    0  0.82768157762E-02  0.10074198132E-01  0.44503295718E-02  0.10301531868E+01  0.10300610602E+01 0.  0.
     999903    2    3    3    0    0  0.12683781608E+00  0.41569619039E-01  0.15463113540E-01  0.14157569797E+00  0.44594905098E-01 0.  0.
         14    1    1    2    0    0 -0.82768157762E-02 -0.10074198132E-01 -0.44503295718E-02  0.13776813155E-01  0.00000000000E+00 0.  1.
     999901    1    3    3    0    0 -0.11856100030E+00 -0.31495420907E-01 -0.11012783968E-01  0.88857748888E+00  0.88000000000E+00 0.  1.
        -11    1    4    4    0    0  0.38768249994E-01  0.57748511029E-02  0.24265117589E-01  0.46101878112E-01  0.51100000000E-03 0.  1.
         11    1    4    4    0    0  0.88069566082E-01  0.35794767936E-01 -0.88020040497E-02  0.95473819855E-01  0.51100000000E-03 0. -1.
</event>
<event>
 8    1  0.2190295E+004  0.1043930E+01  0.7957747E-01            NaN
         13   -1    0    0    0    0  0.00000000000E+00  0.00000000000E+00  0.74505805969E-08  0.10566000000E+00  0.10566000000E+00 0. -1.
     999900   -1    0    0    0    0 -0.00000000000E+00 -0.00000000000E+00 -0.74505805969E-08  0.93827000000E+00  0.93827000000E+00 0.  1.
     999902    2    1    2    0    0  0.79127825180E-02 -0.11733306417E-01  0.37888049391E-03  0.10297728055E+01  0.10296754852E+01 0.  0.
     999903    2    3    3    0    0 -0.72480847752E-01 -0.72702163665E-01  0.83839942533E-01  0.14008404741E+00  0.45335708674E-01 0.  0.
         14    1    1    2    0    0 -0.79127825180E-02  0.11733306417E-01 -0.37888049391E-03  0.14157194534E-01  0.00000000000E+00 0.  1.
     999901    1    3    3    0    0  0.80393630270E-01  0.60968857248E-01 -0.83461062039E-01  0.88968875806E+00  0.88000000000E+00 0. -1.
        -11    1    4    4    0    0 -0.81749870649E-02 -0.16716064953E-02  0.27916614385E-01  0.29141433758E-01  0.51100000000E-03 0. -1.
         11    1    4    4    0    0 -0.64305860687E-01 -0.71030557170E-01  0.55923328149E-01  0.11094261365E+00  0.51100000000E-03 0.  1.
</event>
<event>
 8    1  0.2190295E+004  0.1043930E+01  0.7957747E-01            NaN
         13   -1    0    0    0    0  0.00000000000E+00  0.00000000000E+00  0.74505805969E-08  0.10566000000E+00  0.10566000000E+00 0. -1.
     999900   -1    0    0    0    0 -0.00000000000E+00 -0.00000000000E+00 -0.74505805969E-08  0.93827000000E+00  0.93827000000E+00 0.  1.
     999902    2    1    2    0    0  0.48817751431E-02 -0.93241610663E-02 -0.92869068553E-02  0.10298936776E+01  0.10297980233E+01 0.  0.
     999903    2    3    3    0    0  0.51163997580E-01 -0.11294524886E+00  0.48520359989E-01  0.14072493429E+00  0.45551047269E-01 0.  0.
         14    1    1    2    0    0 -0.48817751431E-02  0.93241610663E-02  0.92869068553E-02  0.14036322420E-01  0.00000000000E+00 0. -1.
     999901    1    3    3    0    0 -0.46282222437E-01  0.10362108780E+00 -0.57807266844E-01  0.88916874329E+00  0.88000000000E+00 0.  1.
        -11    1    4    4    0    0 -0.16737082698E-02 -0.41452008861E-01  0.51446460772E-02  0.41806684181E-01  0.51100000000E-03 0. -1.
         11    1    4    4    0    0  0.52837705850E-01 -0.71493240002E-01  0.43375713912E-01  0.98918250105E-01  0.51100000000E-03 0.  1.
</event>
<event>
 8    1  0.2190295E+004  0.1043930E+01  0.7957747E-01            NaN
         13   -1    0    0    0    0  0.00000000000E+00  0.00000000000E+00  0.74505805969E-08  0.10566000000E+00  0.10566000000E+00 0. -1.
     999900   -1    0    0    0    0 -0.00000000000E+00 -0.00000000000E+00 -0.74505805969E-08  0.93827000000E+00  0.93827000000E+00 0. -1.
     999902    2    1    2    0    0  0.62262768894E-02 -0.15551041129E-02 -0.11230953502E-01  0.10309948081E+01  0.10309136604E+01 0.  0.
     999903    2    3    3    0    0  0.28412484533E-01 -0.66637297618E-01 -0.11385221787E+00  0.14236719002E+00  0.45368387335E-01 0.  0.
         14    1    1    2    0    0 -0.62262768894E-02  0.15551041129E-02  0.11230953502E-01  0.12935191892E-01  0.00000000000E+00 0. -1.
     999901    1    3    3    0    0 -0.22186207643E-01  0.65082193505E-01  0.10262126437E+00  0.88862761808E+00  0.88000000000E+00 0.  1.
        -11    1    4    4    0    0  0.28267439591E-01 -0.33585150220E-01 -0.94156486514E-01  0.10388799512E+00  0.51100000000E-03 0.  1.
         11    1    4    4    0    0  0.14504494134E-03 -0.33052147398E-01 -0.19695731360E-01  0.38479194904E-01  0.51100000000E-03 0. -1.
</event>
<event>
 8    1  0.2190295E+004  0.1043930E+01  0.7957747E-01            NaN
         13   -1    0    0    0    0  0.00000000000E+00  0.00000000000E+00  0.74505805969E-08  0.10566000000E+00  0.10566000000E+00 0.  1.
     999900   -1    0    0    0    0 -0.00000000000E+00 -0.00000000000E+00 -0.74505805969E-08  0.93827000000E+00  0.93827000000E+00 0. -1.
     999902    2    1    2    0    0 -0.11331189952E-01 -0.49200190633E-02 -0.79187593098E-02  0.10292565818E+01  0.10291519819E+01 0.  0.
     999903    2    3    3    0    0 -0.72663814975E-01 -0.51181469095E-01 -0.99793344764E-01  0.14114467886E+00  0.45426159050E-01 0.  0.
         14    1    1    2    0    0  0.11331189952E-01  0.49200190633E-02  0.79187593098E-02  0.14673418222E-01  0.00000000000E+00 0.  1.
     999901    1    3    3    0    0  0.61332625023E-01  0.46261450032E-01  0.91874585455E-01  0.88811190292E+00  0.88000000000E+00 0.  1.
        -11    1    4    4    0    0 -0.87578346159E-02 -0.30905637929E-01 -0.40035330029E-01  0.51331733796E-01  0.51100000000E-03 0.  1.
         11    1    4    4    0    0 -0.63905980359E-01 -0.20275831166E-01 -0.59758014736E-01  0.89812945065E-01  0.51100000000E-03 0. -1.
</event>
<event>
 8    1  0.2190295E+004  0.1043930E+01  0.7957747E-01            NaN
         13   -1    0    0    0    0  0.00000000000E+00  0.00000000000E+00  0.74505805969E-08  0.10566000000E+00  0.10566000000E+00 0. -1.
     999900   -1    0    0    0    0 -0.00000000000E+00 -0.00000000000E+00 -0.74505805969E-08  0.93827000000E+00  0.93827000000E+00 0. -1.
     999902    2    1    2    0    0 -0.43524605384E-02  0.42976503771E-02 -0.12454432917E-01  0.10300546041E+01  0.10299611453E+01 0.  0.
     999903    2    3    3    0    0 -0.10517997832E+00  0.21157575426E-01 -0.80845615852E-01  0.14150083573E+00  0.44452244858E-01 0.  0.
         14    1    1    2    0    0  0.43524605384E-02 -0.42976503771E-02  0.12454432917E-01  0.13875395879E-01  0.00000000000E+00 0. -1.
     999901    1    3    3    0    0  0.10082751778E+00 -0.16859925049E-01  0.68391182934E-01  0.88855376839E+00  0.88000000000E+00 0.  1.
        -11    1    4    4    0    0 -0.70119248244E-01  0.85136145999E-02 -0.76256846858E-01  0.10394497786E+00  0.51100000000E-03 0.  1.
         11    1    4    4    0    0 -0.35060730077E-01  0.12643960826E-01 -0.45887689941E-02  0.37555857876E-01  0.51100000000E-03 0. -1.
</event>
<event>
 8    1  0.2190295E+004  0.1043930E+01  0.7957747E-01            NaN
         13   -1    0    0    0    0  0.00000000000E+00  0.00000000000E+00  0.74505805969E-08  0.10566000000E+00  0.10566000000E+00 0.  1.
     999900   -1    0    0    0    0 -0.00000000000E+00 -0.00000000000E+00 -0.74505805969E-08  0.93827000000E+00  0.93827000000E+00 0. -1.
     999902    2    1    2    0    0  0.41515117972E-02 -0.12817380657E-01  0.35811443365E-02  0.10299892363E+01  0.10298948888E+01 0.  0.
     999903    2    3    3    0    0 -0.94656775673E-01 -0.70213420992E-01  0.62154727218E-01  0.14067025658E+00  0.45111875410E-01 0.  0.
         14    1    1    2    0    0 -0.41515117972E-02  0.12817380657E-01 -0.35811443365E-02  0.13940763676E-01  0.00000000000E+00 0.  1.
     999901    1    3    3    0    0  0.98808287470E-01  0.57396040335E-01 -0.58573582882E-01  0.88931897974E+00  0.88000000000E+00 0.  1.
        -11    1    4    4    0    0 -0.96149965299E-01 -0.59610570813E-01  0.47945338983E-01  0.12287087788E+00  0.51100000000E-03 0.  1.
         11    1    4    4    0    0  0.14931896259E-02 -0.10602850178E-01  0.14209388235E-01  0.17799378702E-01  0.51100000000E-03 0. -1.
</event>
<event>
 8    1  0.2190295E+004  0.1043930E+01  0.7957747E-01            NaN
         13   -1    0    0    0    0  0.00000000000E+00  0.00000000000E+00  0.74505805969E-08  0.10566000000E+00  0.10566000000E+00 0. -1.
     999900   -1    0    0    0    0 -0.00000000000E+00 -0.00000000000E+00 -0.74505805969E-08  0.93827000000E+00  0.93827000000E+00 0.  1.
     999902    2    1    2    0    0 -0.34531414842E-02 -0.15501046298E-02  0.13514782217E-01  0.10298951737E+01  0.10297995400E+01 0.  0.
     999903    2    3    3    0    0 -0.72637923384E-01 -0.11208926618E+00 -0.96562828409E-02  0.13998375198E+00  0.40766843299E-01 0.  0.
         14    1    1    2    0    0  0.34531414842E-02  0.15501046298E-02 -0.13514782217E-01  0.14034826284E-01  0.00000000000E+00 0.  1.
     999901    1    3    3    0    0  0.69184781900E-01  0.11053916155E+00  0.23171065057E-01  0.88991142174E+00  0.88000000000E+00 0. -1.
        -11    1    4    4    0    0 -0.34309570369E-01 -0.42061301112E-01  0.15201578213E-01  0.56370637492E-01  0.51100000000E-03 0.  1.
         11    1    4    4    0    0 -0.38328353015E-01 -0.70027965071E-01 -0.24857861053E-01  0.83613114485E-01  0.51100000000E-03 0. -1.
</event>
<event>
 7    1  0.2190295E+004  0.1043930E+01  0.7957747E-01            NaN
         13   -1    0    0    0    0  0.00000000000E+00  0.00000000000E+00  0.74505805969E-08  0.10566000000E+00  0.10566000000E+00 0.  1.
     999900   -1    0    0    0    0 -0.00000000000E+00 -0.00000000000E+00 -0.74505805969E-08  0.93827000000E+00  0.93827000000E+00 0. -1.
     999903    2    1    2    0    0  0.18499440717E-01  0.28117190539E-01  0.10144044388E+00  0.11498408943E+00  0.42407209945E-01 0.  0.
         14    1    1    2    0    0  0.35407254419E-01 -0.17437961480E-01  0.85911747458E-02  0.40392628654E-01  0.00000000000E+00 0. -1.
     999901    1    1    2    0    0 -0.53906695136E-01 -0.10679229059E-01 -0.11003161863E+00  0.88855328192E+00  0.88000000000E+00 0. -1.
        -11    1    3    3    0    0  0.23843404480E-01  0.21189804903E-01  0.32689896852E-01  0.45677196129E-01  0.51100000000E-03 0.  1.
         11    1    3    3    0    0 -0.53439637626E-02  0.69273856359E-02  0.68750547030E-01  0.69306893296E-01  0.51100000000E-03 0. -1.
</event>
<event>
 8    1  0.2190295E+004  0.1043930E+01  0.7957747E-01            NaN
         13   -1    0    0    0    0  0.00000000000E+00  0.00000000000E+00  0.74505805969E-08  0.10566000000E+00  0.10566000000E+00 0. -1.
     999900   -1    0    0    0    0 -0.00000000000E+00 -0.00000000000E+00 -0.74505805969E-08  0.93827000000E+00  0.93827000000E+00 0.  1.
     999902    2    1    2    0    0 -0.16545229038E-02  0.14550905222E-01 -0.40653426831E-02  0.10287315363E+01  0.10286192592E+01 0.  0.
     999903    2    3    3    0    0 -0.71905470169E-01  0.95492865877E-01 -0.58665879568E-01  0.14054911400E+00  0.44978705492E-01 0.  0.
         14    1    1    2    0    0  0.16545229038E-02 -0.14550905222E-01  0.40653426831E-02  0.15198463737E-01  0.00000000000E+00 0. -1.
     999901    1    3    3    0    0  0.70250947265E-01 -0.80941960654E-01  0.54600536885E-01  0.88818242226E+00  0.88000000000E+00 0.  1.
        -11    1    4    4    0    0 -0.55301024024E-01  0.51526467215E-01 -0.16413549187E-01  0.77348857779E-01  0.51100000000E-03 0.  1.
         11    1    4    4    0    0 -0.16604446145E-01  0.43966398661E-01 -0.42252330381E-01  0.63200256223E-01  0.51100000000E-03 0. -1.
</event>
<event>
 8    1  0.2190295E+004  0.1043930E+01  0.7957747E-01            NaN
         13   -1    0    0    0    0  0.00000000000E+00  0.00000000000E+00  0.74505805969E-08  0.10566000000E+00  0.10566000000E+00 0. -1.
     999900   -1    0    0    0    0 -0.00000000000E+00 -0.00000000000E+00 -0.74505805969E-08  0.93827000000E+00  0.93827000000E+00 0. -1.
     999902    2    1    2    0    0  0.98584834260E-02 -0.11590144283E-02 -0.91670816326E-02  0.10304182127E+01  0.10303296194E+01 0.  0.
     999903    2    3    3    0    0  0.29470324007E-01  0.84785566226E-01 -0.99552033038E-01  0.14140722590E+00  0.45036696355E-01 0.  0.
         14    1    1    2    0    0 -0.98584834260E-02  0.11590144283E-02  0.91670816326E-02  0.13511787282E-01  0.00000000000E+00 0. -1.
     999901    1    3    3    0    0 -0.19611840581E-01 -0.85944580654E-01  0.90384951405E-01  0.88901098681E+00  0.88000000000E+00 0.  1.
        -11    1    4    4    0    0  0.10380597380E-01  0.10220437290E-01  0.11905941079E-02  0.14625073528E-01  0.51100000000E-03 0. -1.
         11    1    4    4    0    0  0.19089726627E-01  0.74565128936E-01 -0.10074262715E+00  0.12678215238E+00  0.51100000000E-03 0.  1.
</event>
<event>
 8    1  0.2190295E+004  0.1043930E+01  0.7957747E-01            NaN
         13   -1    0    0    0    0  0.00000000000E+00  0.00000000000E+00  0.74505805969E-08  0.10566000000E+00  0.10566000000E+00 0. -1.
     999900   -1    0    0    0    0 -0.00000000000E+00 -0.00000000000E+00 -0.74505805969E-08  0.93827000000E+00  0.93827000000E+00 0.  1.
     999902    2    1    2    0    0  0.26452044739E-04 -0.43233659517E-02  0.13394889319E-01  0.10298546580E+01  0.10297584675E+01 0.  0.
     999903    2    3    3    0    0 -0.59446135692E-01  0.98513285412E-01  0.65948762746E-01  0.14031866930E+00  0.45840802738E-01 0.  0.
         14    1    1    2    0    0 -0.26452044739E-04  0.43233659517E-02 -0.13394889319E-01  0.14075342011E-01  0.00000000000E+00 0.  1.
     999901    1    3    3    0    0  0.59472587737E-01 -0.10283665136E+00 -0.52553873428E-01  0.88953598869E+00  0.88000000000E+00 0. -1.
        -11    1    4    4    0    0 -0.46006801466E-01  0.43486504535E-01  0.52134709305E-01  0.82012138694E-01  0.51100000000E-03 0. -1.
         11    1    4    4    0    0 -0.13439334226E-01  0.55026780878E-01  0.13814053441E-01  0.58306530609E-01  0.51100000000E-03 0.  1.
</event>
<event>
 8    1  0.2190295E+004  0.1043930E+01  0.7957747E-01            NaN
         13   -1    0    0    0    0  0.00000000000E+00  0.00000000000E+00  0.74505805969E-08  0.10566000000E+00  0.10566000000E+00 0. -1.
     999900   -1    0    0    0    0 -0.00000000000E+00 -0.00000000000E+00 -0.74505805969E-08  0.93827000000E+00  0.93827000000E+00 0. -1.
     999902    2    1    2    0    0  0.49063352590E-02 -0.11838076869E-01 -0.79780763336E-02  0.10288349050E+01  0.10287241613E+01 0.  0.
     999903    2    3    3    0    0  0.33071953622E-01 -0.11181102281E+00  0.62753532506E-01  0.13990810690E+00  0.45175364928E-01 0.  0.
         14    1    1    2    0    0 -0.49063352590E-02  0.11838076869E-01  0.79780763336E-02  0.15095094952E-01  0.00000000000E+00 0. -1.
     999901    1    3    3    0    0 -0.28165618363E-01  0.99972945939E-01 -0.70731608840E-01  0.88892679815E+00  0.88000000000E+00 0. -1.
        -11    1    4    4    0    0  0.36150250544E-01 -0.44907747129E-01  0.34734696132E-01  0.67307552347E-01  0.51100000000E-03 0.  1.
         11    1    4    4    0    0 -0.30782969220E-02 -0.66903275678E-01  0.28018836374E-01  0.72600554552E-01  0.51100000000E-03 0. -1.
</event>
<event>
 8    1  0.2190295E+004  0.1043930E+01  0.7957747E-01            NaN
         13   -1    0    0    0    0  0.00000000000E+00  0.00000000000E+00  0.74505805969E-08  0.10566000000E+00  0.10566000000E+00 0. -1.
     999900   -1    0    0    0    0 -0.00000000000E+00 -0.00000000000E+00 -0.74505805969E-08  0.93827000000E+00  0.93827000000E+00 0.  1.
     999902    2    1    2    0    0  0.36418921244E-02 -0.13466411673E-01  0.48114850707E-03  0.10299715214E+01  0.10298769323E+01 0.  0.
     999903    2    3    3    0    0  0.95092263836E-01  0.51448494078E-01  0.76139584351E-01  0.13963376839E+00  0.44842689323E-01 0.  0.
         14    1    1    2    0    0 -0.36418921244E-02  0.13466411673E-01 -0.48114850707E-03  0.13958478624E-01  0.00000000000E+00 0.  1.
     999901    1    3    3    0    0 -0.91450371712E-01 -0.64914905752E-01 -0.75658435844E-01  0.89033775298E+00  0.88000000000E+00 0.  1.
        -11    1    4    4    0    0  0.18066218059E-01 -0.66690488357E-03 -0.19564798618E-02  0.18191259757E-01  0.51100000000E-03 0. -1.
         11    1    4    4    0    0  0.77026045777E-01  0.52115398962E-01  0.78096064213E-01  0.12144250863E+00  0.51100000000E-03 0.  1.
</event>
<event>
 8    1  0.2190295E+004  0.1043930E+01  0.7957747E-01            NaN
         13   -1    0    0    0    0  0.00000000000E+00  0.00000000000E+00  0.74505805969E-08  0.10566000000E+00  0.10566000000E+00 0. -1.
     999900   -1    0    0    0    0 -0.00000000000E+00 -0.00000000000E+00 -0.74505805969E-08  0.93827000000E+00  0.93827000000E+00 0.  1.
     999902    2    1    2    0    0 -0.33213883544E-02  0.42655050202E-02 -0.99628581831E-02  0.10325948910E+01  0.10325326746E+01 0.  0.
     999903    2    3    3    0    0  0.62166641644E-01 -0.11893863415E+00  0.14071534500E-02  0.14152967497E+00  0.44917466434E-01 0.  0.
         14    1    1    2    0    0  0.33213883544E-02 -0.42655050202E-02  0.99628581831E-02  0.11335109036E-01  0.00000000000E+00 0. -1.
     999901    1    3    3    0    0 -0.65488029998E-01  0.12320413917E+00 -0.11370011633E-01  0.89106521599E+00  0.88000000000E+00 0. -1.
        -11    1    4    4    0    0  0.48078469042E-01 -0.10304388786E+00 -0.14988643309E-01  0.11469307982E+00  0.51100000000E-03 0. -1.
         11    1    4    4    0    0  0.14088172602E-01 -0.15894746293E-01  0.16395796759E-01  0.26836595152E-01  0.51100000000E-03 0.  1.
</event>
<event>
 8    1  0.2190295E+004  0.1043930E+01  0.7957747E-01            NaN
         13   -1    0    0    0    0  0.00000000000E+00  0.00000000000E+00  0.74505805969E-08  0.10566000000E+00  0.10566000000E+00 0. -1.
     999900   -1    0    0    0    0 -0.00000000000E+00 -0.00000000000E+00 -0.74505805969E-08  0.93827000000E+00  0.93827000000E+00 0.  1.
     999902    2    1    2    0    0 -0.12867424252E-01  0.10853028996E-01 -0.59736449963E-04  0.10270966280E+01  0.10269586753E+01 0.  0.
     999903    2    3    3    0    0 -0.19172240087E-01 -0.99873515993E-01 -0.79905577301E-01  0.13654877594E+00  0.43799234466E-01 0.  0.
         14    1    1    2    0    0  0.12867424252E-01 -0.10853028996E-01  0.59736449963E-04  0.16833372024E-01  0.00000000000E+00 0.  1.
     999901    1    3    3    0    0  0.63048158358E-02  0.11072654499E+00  0.79845840851E-01  0.89054785204E+00  0.88000000000E+00 0. -1.
        -11    1    4    4    0    0 -0.30328827508E-01 -0.44539432338E-01 -0.33303961718E-01  0.63348352765E-01  0.51100000000E-03 0. -1.
         11    1    4    4    0    0  0.11156587420E-01 -0.55334083655E-01 -0.46601615583E-01  0.73200423173E-01  0.51100000000E-03 0.  1.
</event>
<event>
 8    1  0.2190295E+004  0.1043930E+01  0.7957747E-01            NaN
         13   -1    0    0    0    0  0.00000000000E+00  0.00000000000E+00  0.74505805969E-08  0.10566000000E+00  0.10566000000E+00 0.  1.
     999900   -1    0    0    0    0 -0.00000000000E+00 -0.00000000000E+00 -0.74505805969E-08  0.93827000000E+00  0.93827000000E+00 0. -1.
     999902    2    1    2    0    0  0.35394473969E-02  0.81918069040E-02  0.10550477332E-01  0.10301116803E+01  0.10300189939E+01 0.  0.
     999903    2    3    3    0    0  0.70417093235E-01  0.76052810339E-01  0.85610054559E-01  0.14179210071E+00  0.45092365224E-01 0.  0.
         14    1    1    2    0    0 -0.35394473969E-02 -0.81918069040E-02 -0.10550477332E-01  0.13818319730E-01  0.00000000000E+00 0. -1.
     999901    1    3    3    0    0 -0.66877645838E-01 -0.67861003435E-01 -0.75059577227E-01  0.88831957956E+00  0.88000000000E+00 0. -1.
        -11    1    4    4    0    0  0.30161545608E-01  0.21565858302E-01  0.57554673782E-01  0.68466098713E-01  0.51100000000E-03 0. -1.
         11    1    4    4    0    0  0.40255547627E-01  0.54486952038E-01  0.28055380777E-01  0.73326001995E-01  0.51100000000E-03 0.  1.
</event>
<event>
 8    1  0.2190295E+004  0.1043930E+01  0.7957747E-01            NaN
         13   -1    0    0    0    0  0.00000000000E+00  0.00000000000E+00  0.74505805969E-08  0.10566000000E+00  0.10566000000E+00 0. -1.
     999900   -1    0    0    0    0 -0.00000000000E+00 -0.00000000000E+00 -0.74505805969E-08  0.93827000000E+00  0.93827000000E+00 0.  1.
     999902    2    1    2    0    0  0.15572060481E-01  0.11709852197E-01  0.28246292813E-02  0.10242427392E+01  0.10240535145E+01 0.  0.
     999903    2    3    3    0    0  0.92738693626E-01  0.90528462254E-01  0.10998020959E-02  0.13735490100E+00  0.45489465721E-01 0.  0.
         14    1    1    2    0    0 -0.15572060481E-01 -0.11709852197E-01 -0.28246292813E-02  0.19687260771E-01  0.00000000000E+00 0.  1.
     999901    1    3    3    0    0 -0.77166633146E-01 -0.78818610057E-01  0.17248271854E-02  0.88688783822E+00  0.88000000000E+00 0. -1.
        -11    1    4    4    0    0  0.63321612781E-01  0.46463733518E-01  0.20090241352E-01  0.81070241742E-01  0.51100000000E-03 0. -1.
         11    1    4    4    0    0  0.29417080846E-01  0.44064728737E-01 -0.18990439256E-01  0.56284659262E-01  0.51100000000E-03 0.  1.
</event>
<event>
 8    1  0.2190295E+004  0.1043930E+01  0.7957747E-01            NaN
         13   -1    0    0    0    0  0.00000000000E+00  0.00000000000E+00  0.74505805969E-08  0.10566000000E+00  0.10566000000E+00 0.  1.
     999900   -1    0    0    0    0 -0.00000000000E+00 -0.00000000000E+00 -0.74505805969E-08  0.93827000000E+00  0.93827000000E+00 0. -1.
     999902    2    1    2    0    0 -0.96408816941E-02 -0.10982402441E-01  0.32309068640E-02  0.10289634198E+01  0.10288545674E+01 0.  0.
     999903    2    3    3    0    0  0.78029653099E-01  0.96982261112E-01  0.20645676359E-01  0.13787096365E+00  0.55569532401E-01 0.  0.
         14    1    1    2    0    0  0.96408816941E-02  0.10982402441E-01 -0.32309068640E-02  0.14966580183E-01  0.00000000000E+00 0.  1.
     999901    1    3    3    0    0 -0.87670534793E-01 -0.10796466355E+00 -0.17414769495E-01  0.89109245617E+00  0.88000000000E+00 0.  1.
        -11    1    4    4    0    0  0.56310332280E-01  0.77892252881E-01  0.38879538003E-01  0.10368189898E+00  0.51100000000E-03 0. -1.
         11    1    4    4    0    0  0.21719320819E-01  0.19090008231E-01 -0.18233861644E-01  0.34189064664E-01  0.51100000000E-03 0.  1.
</event>
<event>
 8    1  0.2190295E+004  0.1043930E+01  0.7957747E-01            NaN
         13   -1    0    0    0    0  0.00000000000E+00  0.00000000000E+00  0.74505805969E-08  0.10566000000E+00  0.10566000000E+00 0. -1.
     999900   -1    0    0    0    0 -0.00000000000E+00 -0.00000000000E+00 -0.74505805969E-08  0.93827000000E+00  0.93827000000E+00 0. -1.
     999902    2    1    2    0    0  0.65522613190E-02  0.10081431113E-01 -0.39666439764E-02  0.10312689714E+01  0.10311912479E+01 0.  0.
     999903    2    3    3    0    0  0.10116244868E+00 -0.75789719412E-02 -0.88424804333E-01  0.14200176842E+00  0.45324103670E-01 0.  0.
         14    1    1    2    0    0 -0.65522613190E-02 -0.10081431113E-01  0.39666439764E-02  0.12661028636E-01  0.00000000000E+00 0. -1.
     999901    1    3    3    0    0 -0.94610187360E-01  0.17660403054E-01  0.84458160357E-01  0.88926720295E+00  0.88000000000E+00 0.  1.
        -11    1    4    4    0    0  0.42483186800E-01 -0.11872814775E-01 -0.65252013062E-01  0.78764657182E-01  0.51100000000E-03 0.  1.
         11    1    4    4    0    0  0.58679261879E-01  0.42938428334E-02 -0.23172791271E-01  0.63237111234E-01  0.51100000000E-03 0. -1.
</event>
<event>
 8    1  0.2190295E+004  0.1043930E+01  0.7957747E-01            NaN
         13   -1    0    0    0    0  0.00000000000E+00  0.00000000000E+00  0.74505805969E-08  0.10566000000E+00  0.10566000000E+00 0. -1.
     999900   -1    0    0    0    0 -0.00000000000E+00 -0.00000000000E+00 -0.74505805969E-08  0.93827000000E+00  0.93827000000E+00 0.  1.
     999902    2    1    2    0    0 -0.17765287085E-02 -0.13362720881E-02  0.17085563381E-01  0.10267004279E+01  0.10265558487E+01 0.  0.
     999903    2    3    3    0    0 -0.66889909394E-01 -0.56531902951E-01 -0.93749688913E-01  0.13565005722E+00  0.44066062021E-01 0.  0.
         14    1    1    2    0    0  0.17765287085E-02  0.13362720881E-02 -0.17085563381E-01  0.17229572061E-01  0.00000000000E+00 0.  1.
     999901    1    3    3    0    0  0.65113380686E-01  0.55195630863E-01  0.11083525229E+00  0.89105037072E+00  0.88000000000E+00 0. -1.
        -11    1    4    4    0    0 -0.24411866514E-01 -0.27831651966E-02 -0.45963999285E-01  0.52121354419E-01  0.51100000000E-03 0. -1.
         11    1    4    4    0    0 -0.42478042880E-01 -0.53748737754E-01 -0.47785689628E-01  0.83528702799E-01  0.51100000000E-03 0.  1.
</event>
<event>
 8    1  0.2190295E+004  0.1043930E+01  0.7957747E-01            NaN
         13   -1    0    0    0    0  0.00000000000E+00  0.00000000000E+00  0.74505805969E-08  0.10566000000E+00  0.10566000000E+00 0.  1.
     999900   -1    0    0    0    0 -0.00000000000E+00 -0.00000000000E+00 -0.74505805969E-08  0.93827000000E+00  0.93827000000E+00 0.  1.
     999902    2    1    2    0    0 -0.93070540253E-02 -0.47108669616E-02 -0.85693781655E-02  0.10304300828E+01  0.10303416461E+01 0.  0.
     999903    2    3    3    0    0 -0.38287044273E-01  0.18579336576E-01 -0.12744489664E+00  0.14165921115E+00  0.44878067218E-01 0.  0.
         14    1    1    2    0    0  0.93070540253E-02  0.47108669616E-02  0.85693781655E-02  0.13499917196E-01  0.00000000000E+00 0.  1.
     999901    1    3    3    0    0  0.28979990247E-01 -0.23290203537E-01  0.11887551847E+00  0.88877087166E+00  0.88000000000E+00 0. -1.
        -11    1    4    4    0    0  0.21115744702E-02  0.64489633240E-03 -0.65610877758E-01  0.65650004106E-01  0.51100000000E-03 0.  1.
         11    1    4    4    0    0 -0.40398618743E-01  0.17934440243E-01 -0.61834018878E-01  0.76009207040E-01  0.51100000000E-03 0. -1.
</event>
<event>
 8    1  0.2190295E+004  0.1043930E+01  0.7957747E-01            NaN
         13   -1    0    0    0    0  0.00000000000E+00  0.00000000000E+00  0.74505805969E-08  0.10566000000E+00  0.10566000000E+00 0.  1.
     999900   -1    0    0    0    0 -0.00000000000E+00 -0.00000000000E+00 -0.74505805969E-08  0.93827000000E+00  0.93827000000E+00 0. -1.
     999902    2    1    2    0    0  0.57511517273E-02 -0.70986984225E-02  0.94252759745E-02  0.10308035727E+01  0.10307199923E+01 0.  0.
     999903    2    3    3    0    0  0.60289245417E-01  0.93080652717E-01 -0.71926126168E-01  0.13972088483E+00  0.45274242225E-01 0.  0.
         14    1    1    2    0    0 -0.57511517273E-02  0.70986984225E-02 -0.94252759745E-02  0.13126427263E-01  0.00000000000E+00 0. -1.
     999901    1    3    3    0    0 -0.54538093689E-01 -0.10017935114E+00  0.81351402143E-01  0.89108268791E+00  0.88000000000E+00 0.  1.
        -11    1    4    4    0    0  0.43669607689E-01  0.34553021510E-01 -0.18301379743E-01  0.58618662153E-01  0.51100000000E-03 0.  1.
         11    1    4    4    0    0  0.16619637727E-01  0.58527631207E-01 -0.53624746425E-01  0.81102222677E-01  0.51100000000E-03 0. -1.
</event>
<event>
 8    1  0.2190295E+004  0.1043930E+01  0.7957747E-01            NaN
         13   -1    0    0    0    0  0.00000000000E+00  0.00000000000E+00  0.74505805969E-08  0.10566000000E+00  0.10566000000E+00 0.  1.
     999900   -1    0    0    0    0 -0.00000000000E+00 -0.00000000000E+00 -0.74505805969E-08  0.93827000000E+00  0.93827000000E+00 0.  1.
     999902    2    1    2    0    0 -0.12280843035E-01  0.34955531732E-02  0.50979303784E-02  0.10301812949E+01  0.10300895463E+01 0.  0.
     999903    2    3    3    0    0 -0.37026270323E-01 -0.10125280339E+00  0.78412521367E-01  0.14059735641E+00  0.44676819888E-01 0.  0.
         14    1    1    2    0    0  0.12280843035E-01 -0.34955531732E-02 -0.50979303784E-02  0.13748705095E-01  0.00000000000E+00 0. -1.
     999901    1    3    3    0    0  0.24745427288E-01  0.10474835656E+00 -0.73314590989E-01  0.88958393849E+00  0.88000000000E+00 0.  1.
        -11    1    4    4    0    0 -0.22004524186E-01 -0.24075638377E-01  0.43990531790E-01  0.54765531642E-01  0.51100000000E-03 0.  1.
         11    1    4    4    0    0 -0.15021746137E-01 -0.77177165009E-01  0.34421989577E-01  0.85831824770E-01  0.51100000000E-03 0. -1.
</event>
<event>
 8    1  0.2190295E+004  0.1043930E+01  0.7957747E-01            NaN
         13   -1    0    0    0    0  0.00000000000E+00  0.00000000000E+00  0.74505805969E-08  0.10566000000E+00  0.10566000000E+00 0.  1.
     999900   -1    0    0    0    0 -0.00000000000E+00 -0.00000000000E+00 -0.74505805969E-08  0.93827000000E+00  0.93827000000E+00 0.  1.
     999902    2    1    2    0    0  0.10934144687E-01  0.82315362262E-02  0.39423893810E-02  0.10296872424E+01  0.10295887340E+01 0.  0.
     999903    2    3    3    0    0 -0.12984442878E+00 -0.99575440228E-02 -0.13925985270E-01  0.13813313405E+00  0.43910150180E-01 0.  0.
         14    1    1    2    0    0 -0.10934144687E-01 -0.82315362262E-02 -0.39423893810E-02  0.14242757553E-01  0.00000000000E+00 0. -1.
     999901    1    3    3    0    0  0.14077857347E+00  0.18189080249E-01  0.17868374651E-01  0.89155410840E+00  0.88000000000E+00 0.  1.
        -11    1    4    4    0    0 -0.45247117366E-01  0.14866802584E-01  0.52123248178E-02  0.47914015695E-01  0.51100000000E-03 0. -1.
         11    1    4    4    0    0 -0.84597311413E-01 -0.24824346607E-01 -0.19138310087E-01  0.90219118355E-01  0.51100000000E-03 0.  1.
</event>
<event>
 8    1  0.2190295E+004  0.1043930E+01  0.7957747E-01            NaN
         13   -1    0    0    0    0  0.00000000000E+00  0.00000000000E+00  0.74505805969E-08  0.10566000000E+00  0.10566000000E+00 0. -1.
     999900   -1    0    0    0    0 -0.00000000000E+00 -0.00000000000E+00 -0.74505805969E-08  0.93827000000E+00  0.93827000000E+00 0.  1.
     999902    2    1    2    0    0  0.87647116249E-02  0.56509132700E-02 -0.92054046754E-02  0.10300198431E+01  0.10299259122E+01 0.  0.
     999903    2    3    3    0    0  0.12873342775E+00 -0.34760382264E-01 -0.13078371914E-01  0.14095259841E+00  0.43772269640E-01 0.  0.
         14    1    1    2    0    0 -0.87647116249E-02 -0.56509132700E-02  0.92054046754E-02  0.13910156933E-01  0.00000000000E+00 0. -1.
     999901    1    3    3    0    0 -0.11996871613E+00  0.40411295534E-01  0.38729672382E-02  0.88906724466E+00  0.88000000000E+00 0.  1.
        -11    1    4    4    0    0  0.70175146295E-01 -0.26236062575E-01 -0.27899746180E-01  0.79947101854E-01  0.51100000000E-03 0.  1.
         11    1    4    4    0    0  0.58558281457E-01 -0.85243196892E-02  0.14821374266E-01  0.61005496551E-01  0.51100000000E-03 0. -1.
</event>
<event>
 8    1  0.2190295E+004  0.1043930E+01  0.7957747E-01            NaN
         13   -1    0    0    0    0  0.00000000000E+00  0.00000000000E+00  0.74505805969E-08  0.10566000000E+00  0.10566000000E+00 0. -1.
     999900   -1    0    0    0    0 -0.00000000000E+00 -0.00000000000E+00 -0.74505805969E-08  0.93827000000E+00  0.93827000000E+00 0. -1.
     999902    2    1    2    0    0  0.55499070719E-02 -0.12040300494E-01 -0.29495372278E-02  0.10303480239E+01  0.10302585017E+01 0.  0.
     999903    2    3    3    0    0  0.40728266563E-01  0.84153750624E-01 -0.93529280184E-01  0.13978892858E+00  0.45305329281E-01 0.  0.
         14    1    1    2    0    0 -0.55499070719E-02  0.12040300494E-01  0.29495372278E-02  0.13581976084E-01  0.00000000000E+00 0.  1.
     999901    1    3    3    0    0 -0.35178359491E-01 -0.96194051118E-01  0.90579742956E-01  0.89055909533E+00  0.88000000000E+00 0. -1.
        -11    1    4    4    0    0  0.43528966204E-01  0.38427554771E-01 -0.51352371060E-01  0.77516288604E-01  0.51100000000E-03 0.  1.
         11    1    4    4    0    0 -0.28006996408E-02  0.45726195853E-01 -0.42176909124E-01  0.62272639979E-01  0.51100000000E-03 0. -1.
</event>
<event>
 8    1  0.2190295E+004  0.1043930E+01  0.7957747E-01            NaN
         13   -1    0    0    0    0  0.00000000000E+00  0.00000000000E+00  0.74505805969E-08  0.10566000000E+00  0.10566000000E+00 0.  1.
     999900   -1    0    0    0    0 -0.00000000000E+00 -0.00000000000E+00 -0.74505805969E-08  0.93827000000E+00  0.93827000000E+00 0. -1.
     999902    2    1    2    0    0  0.10387979725E-01  0.35981818615E-03  0.89915700391E-02  0.10301863497E+01  0.10300946690E+01 0.  0.
     999903    2    3    3    0    0 -0.92958086926E-01 -0.84182992131E-01  0.41278530841E-01  0.13952909569E+00  0.45127257261E-01 0.  0.
         14    1    1    2    0    0 -0.10387979725E-01 -0.35981818615E-03 -0.89915700391E-02  0.13743650303E-01  0.00000000000E+00 0. -1.
     999901    1    3    3    0    0  0.10334606665E+00  0.84542810317E-01 -0.32286960802E-01  0.89065725400E+00  0.88000000000E+00 0. -1.
        -11    1    4    4    0    0 -0.23003475451E-01 -0.28794431727E-01 -0.78272143376E-02  0.37680307676E-01  0.51100000000E-03 0.  1.
         11    1    4    4    0    0 -0.69954611475E-01 -0.55388560404E-01  0.49105745179E-01  0.10184878802E+00  0.51100000000E-03 0. -1.
</event>
<event>
 8    1  0.2190295E+004  0.1043930E+01  0.7957747E-01            NaN
         13   -1    0    0    0    0  0.00000000000E+00  0.00000000000E+00  0.74505805969E-08  0.10566000000E+00  0.10566000000E+00 0.  1.
     999900   -1    0    0    0    0 -0.00000000000E+00 -0.00000000000E+00 -0.74505805969E-08  0.93827000000E+00  0.93827000000E+00 0. -1.
     999902    2    1    2    0    0  0.13890882691E-01 -0.19325594438E-02  0.22447794281E-02  0.10297268158E+01  0.10296288577E+01 0.  0.
     999903    2    3    3    0    0 -0.12609821990E+00 -0.31933217281E-01  0.10155968670E-01  0.13812176013E+00  0.45320916725E-01 0.  0.
         14    1    1    2    0    0 -0.13890882691E-01  0.19325594438E-02 -0.22447794281E-02  0.14203184242E-01  0.00000000000E+00 0. -1.
     999901    1    3    3    0    0  0.13998910259E+00  0.30000657837E-01 -0.79111892417E-02  0.89160505563E+00  0.88000000000E+00 0. -1.
        -11    1    4    4    0    0 -0.58807396870E-01  0.68748085321E-02  0.12021355294E-01  0.60418101783E-01  0.51100000000E-03 0. -1.
         11    1    4    4    0    0 -0.67290823030E-01 -0.38808025813E-01 -0.18653866246E-02  0.77703658342E-01  0.51100000000E-03 0.  1.
</event>
<event>
 8    1  0.2190295E+004  0.1043930E+01  0.7957747E-01            NaN
         13   -1    0    0    0    0  0.00000000000E+00  0.00000000000E+00  0.74505805969E-08  0.10566000000E+00  0.10566000000E+00 0. -1.
     999900   -1    0    0    0    0 -0.00000000000E+00 -0.00000000000E+00 -0.74505805969E-08  0.93827000000E+00  0.93827000000E+00 0.  1.
     999902    2    1    2    0    0  0.12598404139E-02 -0.14845580903E-01  0.54389983564E-02  0.10280693199E+01  0.10279469662E+01 0.  0.
     999903    2    3    3    0    0 -0.56987434867E-02 -0.11356065136E+00  0.68526477497E-01  0.14027817495E+00  0.45316564675E-01 0.  0.
         14    1    1    2    0    0 -0.12598404139E-02  0.14845580903E-01 -0.54389983564E-02  0.15860680103E-01  0.00000000000E+00 0.  1.
     999901    1    3    3    0    0  0.69585839006E-02  0.98715070458E-01 -0.63087479141E-01  0.88779114495E+00  0.88000000000E+00 0. -1.
        -11    1    4    4    0    0 -0.25446459080E-01 -0.66232594968E-01  0.36205925883E-01  0.79658076213E-01  0.51100000000E-03 0.  1.
         11    1    4    4    0    0  0.19747715593E-01 -0.47328056393E-01  0.32320551614E-01  0.60620098735E-01  0.51100000000E-03 0. -1.
</event>
<event>
 8    1  0.2190295E+004  0.1043930E+01  0.7957747E-01            NaN
         13   -1    0    0    0    0  0.00000000000E+00  0.00000000000E+00  0.74505805969E-08  0.10566000000E+00  0.10566000000E+00 0. -1.
     999900   -1    0    0    0    0 -0.00000000000E+00 -0.00000000000E+00 -0.74505805969E-08  0.93827000000E+00  0.93827000000E+00 0.  1.
     999902    2    1    2    0    0 -0.12902693905E-01 -0.33267352971E-02  0.25583510949E-02  0.10303619553E+01  0.10302726178E+01 0.  0.
     999903    2    3    3    0    0 -0.71063354350E-01 -0.49204311343E-01  0.10266886660E+00  0.14159340849E+00  0.45130173647E-01 0.  0.
         14    1    1    2    0    0  0.12902693905E-01  0.33267352971E-02 -0.25583510949E-02  0.13568044740E-01  0.00000000000E+00 0.  1.
     999901    1    3    3    0    0  0.58160660445E-01  0.45877576046E-01 -0.10011051551E+00  0.88876854677E+00  0.88000000000E+00 0.  1.
        -11    1    4    4    0    0 -0.56707704870E-01 -0.34989203378E-01  0.44794569463E-01  0.80292108698E-01  0.51100000000E-03 0.  1.
         11    1    4    4    0    0 -0.14355649479E-01 -0.14215107965E-01  0.57874297138E-01  0.61301299795E-01  0.51100000000E-03 0. -1.
</event>
<event>
 8    1  0.2190295E+004  0.1043930E+01  0.7957747E-01            NaN
         13   -1    0    0    0    0  0.00000000000E+00  0.00000000000E+00  0.74505805969E-08  0.10566000000E+00  0.10566000000E+00 0. -1.
     999900   -1    0    0    0    0 -0.00000000000E+00 -0.00000000000E+00 -0.74505805969E-08  0.93827000000E+00  0.93827000000E+00 0.  1.
     999902    2    1    2    0    0 -0.35902131128E-02 -0.12836471273E-01 -0.27662980598E-02  0.10303168802E+01  0.10302269442E+01 0.  0.
     999903    2    3    3    0    0 -0.13298202600E+00 -0.85043706528E-02 -0.61841127411E-02  0.14083799358E+00  0.45172487499E-01 0.  0.
         14    1    1    2    0    0  0.35902131128E-02  0.12836471273E-01  0.27662980598E-02  0.13613119771E-01  0.00000000000E+00 0.  1.
     999901    1    3    3    0    0  0.12939181288E+00 -0.43321006206E-02  0.34178146813E-02  0.88947888665E+00  0.88000000000E+00 0.  1.
        -11    1    4    4    0    0 -0.10813548524E+00 -0.83848991655E-02 -0.22945498000E-01  0.11086183609E+00  0.51100000000E-03 0.  1.
         11    1    4    4    0    0 -0.24846540761E-01 -0.11947148734E-03  0.16761385259E-01  0.29976157492E-01  0.51100000000E-03 0. -1.
</event>
<event>
 8    1  0.2190295E+004  0.1043930E+01  0.7957747E-01            NaN
         13   -1    0    0    0    0  0.00000000000E+00  0.00000000000E+00  0.74505805969E-08  0.10566000000E+00  0.10566000000E+00 0.  1.
     999900   -1    0    0    0    0 -0.00000000000E+00 -0.00000000000E+00 -0.74505805969E-08  0.93827000000E+00  0.93827000000E+00 0. -1.
     999902    2    1    2    0    0  0.14595432509E-02 -0.44188659777E-02  0.12712847150E-01  0.10303921595E+01  0.10303032220E+01 0.  0.
     999903    2    3    3    0    0 -0.88719836686E-01 -0.70939040377E-01  0.71227977225E-01  0.14135825990E+00  0.44779191951E-01 0.  0.
         14    1    1    2    0    0 -0.14595432509E-02  0.44188659777E-02 -0.12712847150E-01  0.13537840510E-01  0.00000000000E+00 0. -1.
     999901    1    3    3    0    0  0.90179379937E-01  0.66520174400E-01 -0.58515130075E-01  0.88903389959E+00  0.88000000000E+00 0. -1.
        -11    1    4    4    0    0 -0.55197537912E-02 -0.19204467452E-01  0.27677380214E-01  0.34140558703E-01  0.51100000000E-03 0.  1.
         11    1    4    4    0    0 -0.83200082895E-01 -0.51734572925E-01  0.43550597011E-01  0.10721770120E+00  0.51100000000E-03 0. -1.
</event>
<event>
 8    1  0.2190295E+004  0.1043930E+01  0.7957747E-01            NaN
         13   -1    0    0    0    0  0.00000000000E+00  0.00000000000E+00  0.74505805969E-08  0.10566000000E+00  0.10566000000E+00 0.  1.
     999900   -1    0    0    0    0 -0.00000000000E+00 -0.00000000000E+00 -0.74505805969E-08  0.93827000000E+00  0.93827000000E+00 0. -1.
     999902    2    1    2    0    0  0.14164299563E-01  0.10985882320E-02  0.62369839834E-03  0.10297094769E+01  0.10296112779E+01 0.  0.
     999903    2    3    3    0    0  0.11215306927E-01 -0.38321453731E-01 -0.12630738528E+00  0.13972400718E+00  0.44440135924E-01 0.  0.
         14    1    1    2    0    0 -0.14164299563E-01 -0.10985882320E-02 -0.62369839834E-03  0.14220523123E-01  0.00000000000E+00 0. -1.
     999901    1    3    3    0    0  0.29489926358E-02  0.39420041963E-01  0.12693108368E+00  0.88998546970E+00  0.88000000000E+00 0.  1.
        -11    1    4    4    0    0  0.24066880203E-01 -0.39958095658E-01 -0.94897495198E-01  0.10574336786E+00  0.51100000000E-03 0. -1.
         11    1    4    4    0    0 -0.12851573276E-01  0.16366419263E-02 -0.31409890081E-01  0.33980639317E-01  0.51100000000E-03 0.  1.
</event>
<event>
 8    1  0.2190295E+004  0.1043930E+01  0.7957747E-01            NaN
         13   -1    0    0    0    0  0.00000000000E+00  0.00000000000E+00  0.74505805969E-08  0.10566000000E+00  0.10566000000E+00 0.  1.
     999900   -1    0    0    0    0 -0.00000000000E+00 -0.00000000000E+00 -0.74505805969E-08  0.93827000000E+00  0.93827000000E+00 0. -1.
     999902    2    1    2    0    0 -0.13377165402E-01 -0.40997193305E-02 -0.12079430239E-02  0.10298866607E+01  0.10297909101E+01 0.  0.
     999903    2    3    3    0    0  0.51503671506E-01 -0.83408947767E-01  0.88319075452E-01  0.13942915819E+00  0.45061628007E-01 0.  0.
         14    1    1    2    0    0  0.13377165402E-01  0.40997193305E-02  0.12079430239E-02  0.14043339315E-01  0.00000000000E+00 0. -1.
     999901    1    3    3    0    0 -0.64880836908E-01  0.79309228436E-01 -0.89527018475E-01  0.89045750250E+00  0.88000000000E+00 0. -1.
        -11    1    4    4    0    0  0.22759005236E-01 -0.58556337125E-01  0.29512851444E-01  0.69412437345E-01  0.51100000000E-03 0.  1.
         11    1    4    4    0    0  0.28744666270E-01 -0.24852610641E-01  0.58806224008E-01  0.70016720844E-01  0.51100000000E-03 0. -1.
</event>
<event>
 8    1  0.2190295E+004  0.1043930E+01  0.7957747E-01            NaN
         13   -1    0    0    0    0  0.00000000000E+00  0.00000000000E+00  0.74505805969E-08  0.10566000000E+00  0.10566000000E+00 0.  1.
     999900   -1    0    0    0    0 -0.00000000000E+00 -0.00000000000E+00 -0.74505805969E-08  0.93827000000E+00  0.93827000000E+00 0. -1.
     999902    2    1    2    0    0  0.11616319857E-01  0.32814114291E-02 -0.73621722163E-02  0.10297911129E+01  0.10296940459E+01 0.  0.
     999903    2    3    3    0    0  0.36334157529E-01 -0.31111748932E-01 -0.12505560039E+00  0.14094601730E+00  0.44031405600E-01 0.  0.
         14    1    1    2    0    0 -0.11616319857E-01 -0.32814114291E-02  0.73621722163E-02  0.14138887075E-01  0.00000000000E+00 0. -1.
     999901    1    3    3    0    0 -0.24717837673E-01  0.34393160361E-01  0.11769342817E+00  0.88884509562E+00  0.88000000000E+00 0.  1.
        -11    1    4    4    0    0  0.40084399863E-01 -0.32116630747E-01 -0.75977508250E-01  0.91711940138E-01  0.51100000000E-03 0.  1.
         11    1    4    4    0    0 -0.37502423336E-02  0.10048818154E-02 -0.49078092140E-01  0.49234077163E-01  0.51100000000E-03 0. -1.
</event>
<event>
 8    1  0.2190295E+004  0.1043930E+01  0.7957747E-01            NaN
         13   -1    0    0    0    0  0.00000000000E+00  0.00000000000E+00  0.74505805969E-08  0.10566000000E+00  0.10566000000E+00 0.  1.
     999900   -1    0    0    0    0 -0.00000000000E+00 -0.00000000000E+00 -0.74505805969E-08  0.93827000000E+00  0.93827000000E+00 0.  1.
     999902    2    1    2    0    0  0.96469037213E-02  0.10018112785E-01  0.26040389999E-02  0.10297805705E+01  0.10296833577E+01 0.  0.
     999903    2    3    3    0    0 -0.30137696392E-01 -0.12700162156E+00 -0.61751734488E-02  0.13824577223E+00  0.45122811862E-01 0.  0.
         14    1    1    2    0    0 -0.96469037213E-02 -0.10018112785E-01 -0.26040389999E-02  0.14149429469E-01  0.00000000000E+00 0.  1.
     999901    1    3    3    0    0  0.39784600113E-01  0.13701973435E+00  0.87792124487E-02  0.89153479830E+00  0.88000000000E+00 0. -1.
        -11    1    4    4    0    0 -0.29888004984E-01 -0.35471814252E-01  0.13337929287E-02  0.46406708274E-01  0.51100000000E-03 0.  1.
         11    1    4    4    0    0 -0.24969140742E-03 -0.91529807308E-01 -0.75089663774E-02  0.91839063959E-01  0.51100000000E-03 0. -1.
</event>
<event>
 8    1  0.2190295E+004  0.1043930E+01  0.7957747E-01            NaN
         13   -1    0    0    0    0  0.00000000000E+00  0.00000000000E+00  0.74505805969E-08  0.10566000000E+00  0.10566000000E+00 0. -1.
     999900   -1    0    0    0    0 -0.00000000000E+00 -0.00000000000E+00 -0.74505805969E-08  0.93827000000E+00  0.93827000000E+00 0. -1.
     999902    2    1    2    0    0 -0.25253061624E-02  0.63735618027E-02 -0.11009732206E-01  0.10309602789E+01  0.10308786946E+01 0.  0.
     999903    2    3    3    0    0  0.92369192576E-01 -0.58700125138E-01  0.74255123321E-01  0.13938322326E+00  0.44000990417E-01 0.  0.
         14    1    1    2    0    0  0.25253061624E-02 -0.63735618027E-02  0.11009732206E-01  0.12969721066E-01  0.00000000000E+00 0. -1.
     999901    1    3    3    0    0 -0.94894498738E-01  0.65073686941E-01 -0.85264855527E-01  0.89157705568E+00  0.88000000000E+00 0.  1.
        -11    1    4    4    0    0  0.14401303429E-01 -0.11962256248E-01  0.36352331756E-01  0.40893107733E-01  0.51100000000E-03 0.  1.
         11    1    4    4    0    0  0.77967889146E-01 -0.46737868890E-01  0.37902791565E-01  0.98490115523E-01  0.51100000000E-03 0. -1.
</event>
<event>
 8    1  0.2190295E+004  0.1043930E+01  0.7957747E-01            NaN
         13   -1    0    0    0    0  0.00000000000E+00  0.00000000000E+00  0.74505805969E-08  0.10566000000E+00  0.10566000000E+00 0. -1.
     999900   -1    0    0    0    0 -0.00000000000E+00 -0.00000000000E+00 -0.74505805969E-08  0.93827000000E+00  0.93827000000E+00 0. -1.
     999902    2    1    2    0    0  0.77452148825E-02 -0.31489648092E-02 -0.11215447711E-01  0.10299410544E+01  0.10298460491E+01 0.  0.
     999903    2    3    3    0    0 -0.61436470924E-01  0.11126569215E+00 -0.35674692480E-01  0.13950572597E+00  0.45107313006E-01 0.  0.
         14    1    1    2    0    0 -0.77452148825E-02  0.31489648092E-02  0.11215447711E-01  0.13988945647E-01  0.00000000000E+00 0. -1.
     999901    1    3    3    0    0  0.69181685806E-01 -0.11441465696E+00  0.24459244769E-01  0.89043532838E+00  0.88000000000E+00 0.  1.
        -11    1    4    4    0    0 -0.33004049921E-01  0.62031770313E-01 -0.42689357020E-01  0.82218307956E-01  0.51100000000E-03 0. -1.
         11    1    4    4    0    0 -0.28432421003E-01  0.49233921834E-01  0.70146645396E-02  0.57287418015E-01  0.51100000000E-03 0.  1.
</event>
<event>
 8    1  0.2190295E+004  0.1043930E+01  0.7957747E-01            NaN
         13   -1    0    0    0    0  0.00000000000E+00  0.00000000000E+00  0.74505805969E-08  0.10566000000E+00  0.10566000000E+00 0. -1.
     999900   -1    0    0    0    0 -0.00000000000E+00 -0.00000000000E+00 -0.74505805969E-08  0.93827000000E+00  0.93827000000E+00 0. -1.
     999902    2    1    2    0    0 -0.10661133686E-01  0.38816144627E-02  0.82568396428E-02  0.10298978190E+01  0.10298022215E+01 0.  0.
     999903    2    3    3    0    0 -0.46695950768E-01  0.60178480244E-03 -0.12456558267E+00  0.13919525295E+00  0.40961690589E-01 0.  0.
         14    1    1    2    0    0  0.10661133686E-01 -0.38816144627E-02 -0.82568396428E-02  0.14032180985E-01  0.00000000000E+00 0.  1.
     999901    1    3    3    0    0  0.36034817082E-01  0.32798296602E-02  0.13282242231E+00  0.89070256606E+00  0.88000000000E+00 0.  1.
        -11    1    4    4    0    0 -0.35816092640E-01  0.18930770469E-01 -0.75126021539E-01  0.85354242986E-01  0.51100000000E-03 0. -1.
         11    1    4    4    0    0 -0.10879858129E-01 -0.18328985667E-01 -0.49439561128E-01  0.53841009965E-01  0.51100000000E-03 0.  1.
</event>
<event>
 8    1  0.2190295E+004  0.1043930E+01  0.7957747E-01            NaN
         13   -1    0    0    0    0  0.00000000000E+00  0.00000000000E+00  0.74505805969E-08  0.10566000000E+00  0.10566000000E+00 0. -1.
     999900   -1    0    0    0    0 -0.00000000000E+00 -0.00000000000E+00 -0.74505805969E-08  0.93827000000E+00  0.93827000000E+00 0.  1.
     999902    2    1    2    0    0  0.90684628428E-02  0.87152741859E-02  0.52471643823E-02  0.10303018763E+01  0.10302117406E+01 0.  0.
     999903    2    3    3    0    0 -0.17908006401E-01 -0.12830960752E+00 -0.21545232503E-01  0.13888649574E+00  0.45179747468E-01 0.  0.
         14    1    1    2    0    0 -0.90684628428E-02 -0.87152741859E-02 -0.52471643823E-02  0.13628123734E-01  0.00000000000E+00 0.  1.
     999901    1    3    3    0    0  0.26976469244E-01  0.13702488171E+00  0.26792396885E-01  0.89141538052E+00  0.88000000000E+00 0. -1.
        -11    1    4    4    0    0 -0.14571600893E-01 -0.30684425533E-01  0.11341547243E-01  0.35815601876E-01  0.51100000000E-03 0. -1.
         11    1    4    4    0    0 -0.33364055078E-02 -0.97625181987E-01 -0.32886779746E-01  0.10307089387E+00  0.51100000000E-03 0.  1.
</event>
<event>
 8    1  0.2190295E+004  0.1043930E+01  0.7957747E-01            NaN
         13   -1    0    0    0    0  0.00000000000E+00  0.00000000000E+00  0.74505805969E-08  0.10566000000E+00  0.10566000000E+00 0.  1.
     999900   -1    0    0    0    0 -0.00000000000E+00 -0.00000000000E+00 -0.74505805969E-08  0.93827000000E+00  0.93827000000E+00 0. -1.
     999902    2    1    2    0    0 -0.11182914646E-01 -0.14330677999E-01 -0.15790894915E-01  0.10198514146E+01  0.10195671286E+01 0.  0.
     999903    2    3    3    0    0 -0.72164417050E-01  0.16647299418E-01 -0.10080982723E+00  0.13311210818E+00  0.45512376482E-01 0.  0.
         14    1    1    2    0    0  0.11182914646E-01  0.14330677999E-01  0.15790894915E-01  0.24078585384E-01  0.00000000000E+00 0.  1.
     999901    1    3    3    0    0  0.60981502403E-01 -0.30977977416E-01  0.85018932315E-01  0.88673930643E+00  0.88000000000E+00 0.  1.
        -11    1    4    4    0    0 -0.17332303055E-01  0.25428023378E-01 -0.43733232937E-01  0.53477564326E-01  0.51100000000E-03 0. -1.
         11    1    4    4    0    0 -0.54832113995E-01 -0.87807239603E-02 -0.57076594292E-01  0.79634543858E-01  0.51100000000E-03 0.  1.
</event>
<event>
 8    1  0.2190295E+004  0.1043930E+01  0.7957747E-01            NaN
         13   -1    0    0    0    0  0.00000000000E+00  0.00000000000E+00  0.74505805969E-08  0.10566000000E+00  0.10566000000E+00 0. -1.
     999900   -1    0    0    0    0 -0.00000000000E+00 -0.00000000000E+00 -0.74505805969E-08  0.93827000000E+00  0.93827000000E+00 0. -1.
     999902    2    1    2    0    0 -0.97323732085E-02  0.79773766536E-02 -0.61420073276E-02  0.10299270760E+01  0.10298318795E+01 0.  0.
     999903    2    3    3    0    0  0.93365988668E-01 -0.84977993988E-01 -0.34336940594E-01  0.13859945530E+00  0.45741843198E-01 0.  0.
         14    1    1    2    0    0  0.97323732085E-02 -0.79773766536E-02  0.61420073276E-02  0.14002924000E-01  0.00000000000E+00 0. -1.
     999901    1    3    3    0    0 -0.10309836188E+00  0.92955370642E-01  0.28194933267E-01  0.89132762070E+00  0.88000000000E+00 0. -1.
        -11    1    4    4    0    0  0.71576898883E-01 -0.67240603301E-01 -0.45659848683E-01  0.10830343526E+00  0.51100000000E-03 0. -1.
         11    1    4    4    0    0  0.21789089785E-01 -0.17737390687E-01  0.11322908089E-01  0.30296020046E-01  0.51100000000E-03 0.  1.
</event>
<event>
 8    1  0.2190295E+004  0.1043930E+01  0.7957747E-01            NaN
         13   -1    0    0    0    0  0.00000000000E+00  0.00000000000E+00  0.74505805969E-08  0.10566000000E+00  0.10566000000E+00 0.  1.
     999900   -1    0    0    0    0 -0.00000000000E+00 -0.00000000000E+00 -0.74505805969E-08  0.93827000000E+00  0.93827000000E+00 0.  1.
     999902    2    1    2    0    0 -0.78227189511E-02  0.73745548503E-02  0.11635669672E-01  0.10280880367E+01  0.10279659739E+01 0.  0.
     999903    2    3    3    0    0  0.22228881522E-01  0.13133815944E-01  0.12942355518E+00  0.13971297308E+00  0.45854529938E-01 0.  0.
         14    1    1    2    0    0  0.78227189511E-02 -0.73745548503E-02 -0.11635669672E-01  0.15841963254E-01  0.00000000000E+00 0.  1.
     999901    1    3    3    0    0 -0.30051600473E-01 -0.57592610936E-02 -0.11778788551E+00  0.88837506367E+00  0.88000000000E+00 0.  1.
        -11    1    4    4    0    0 -0.16452075270E-03  0.24381016790E-01  0.87814839683E-01  0.91138182099E-01  0.51100000000E-03 0.  1.
         11    1    4    4    0    0  0.22393402275E-01 -0.11247200846E-01  0.41608715495E-01  0.48574790977E-01  0.51100000000E-03 0. -1.
</event>
<event>
 8    1  0.2190295E+004  0.1043930E+01  0.7957747E-01            NaN
         13   -1    0    0    0    0  0.00000000000E+00  0.00000000000E+00  0.74505805969E-08  0.10566000000E+00  0.10566000000E+00 0. -1.
     999900   -1    0    0    0    0 -0.00000000000E+00 -0.00000000000E+00 -0.74505805969E-08  0.93827000000E+00  0.93827000000E+00 0. -1.
     999902    2    1    2    0    0  0.13469621064E-01  0.10507633225E-02  0.42767147035E-02  0.10297587233E+01  0.10296612079E+01 0.  0.
     999903    2    3    3    0    0  0.48456805092E-01  0.32609708096E-01 -0.11876390072E+00  0.13995028149E+00  0.45494638739E-01 0.  0.
         14    1    1    2    0    0 -0.13469621064E-01 -0.10507633225E-02 -0.42767147035E-02  0.14171276718E-01  0.00000000000E+00 0.  1.
     999901    1    3    3    0    0 -0.34987184028E-01 -0.31558944773E-01  0.12304061542E+00  0.88980844179E+00  0.88000000000E+00 0.  1.
        -11    1    4    4    0    0 -0.43109183670E-02  0.19057879777E-01 -0.32190795033E-01  0.37660260283E-01  0.51100000000E-03 0. -1.
         11    1    4    4    0    0  0.52767723459E-01  0.13551828319E-01 -0.86573105684E-01  0.10229002121E+00  0.51100000000E-03 0.  1.
</event>
<event>
 8    1  0.2190295E+004  0.1043930E+01  0.7957747E-01            NaN
         13   -1    0    0    0    0  0.00000000000E+00  0.00000000000E+00  0.74505805969E-08  0.10566000000E+00  0.10566000000E+00 0.  1.
     999900   -1    0    0    0    0 -0.00000000000E+00 -0.00000000000E+00 -0.74505805969E-08  0.93827000000E+00  0.93827000000E+00 0. -1.
     999902    2    1    2    0    0 -0.38277166310E-02  0.90642267109E-02  0.79229731141E-02  0.10312972994E+01  0.10312199255E+01 0.  0.
     999903    2    3    3    0    0 -0.12608144342E+00 -0.21037858065E-01 -0.39298634892E-01  0.14108272447E+00  0.44953649400E-01 0.  0.
         14    1    1    2    0    0  0.38277166310E-02 -0.90642267109E-02 -0.79229731141E-02  0.12632700560E-01  0.00000000000E+00 0. -1.
     999901    1    3    3    0    0  0.12225372679E+00  0.30102084776E-01  0.47221608006E-01  0.89021457497E+00  0.88000000000E+00 0.  1.
        -11    1    4    4    0    0 -0.82484035194E-01 -0.30354970047E-01 -0.11755470476E-01  0.88676335488E-01  0.51100000000E-03 0.  1.
         11    1    4    4    0    0 -0.43597408222E-01  0.93171119823E-02 -0.27543164416E-01  0.52406388985E-01  0.51100000000E-03 0. -1.
</event>
<event>
 8    1  0.2190295E+004  0.1043930E+01  0.7957747E-01            NaN
         13   -1    0    0    0    0  0.00000000000E+00  0.00000000000E+00  0.74505805969E-08  0.10566000000E+00  0.10566000000E+00 0. -1.
     999900   -1    0    0    0    0 -0.00000000000E+00 -0.00000000000E+00 -0.74505805969E-08  0.93827000000E+00  0.93827000000E+00 0.  1.
     999902    2    1    2    0    0 -0.58881592152E-02 -0.13669336666E-03  0.12235229257E-01  0.10303509743E+01  0.10302614912E+01 0.  0.
     999903    2    3    3    0    0  0.58316426659E-01  0.11915527918E+00  0.18913065489E-02  0.13992422251E+00  0.44456999794E-01 0.  0.
         14    1    1    2    0    0  0.58881592152E-02  0.13669336666E-03 -0.12235229257E-01  0.13579025701E-01  0.00000000000E+00 0.  1.
     999901    1    3    3    0    0 -0.64204585874E-01 -0.11929197254E+00  0.10343922708E-01  0.89042675179E+00  0.88000000000E+00 0.  1.
        -11    1    4    4    0    0  0.62346757717E-02  0.63012252372E-01  0.14010556207E-03  0.63322159482E-01  0.51100000000E-03 0.  1.
         11    1    4    4    0    0  0.52081750887E-01  0.56143026807E-01  0.17512009869E-02  0.76602063029E-01  0.51100000000E-03 0. -1.
</event>
<event>
 8    1  0.2190295E+004  0.1043930E+01  0.7957747E-01            NaN
         13   -1    0    0    0    0  0.00000000000E+00  0.00000000000E+00  0.74505805969E-08  0.10566000000E+00  0.10566000000E+00 0.  1.
     999900   -1    0    0    0    0 -0.00000000000E+00 -0.00000000000E+00 -0.74505805969E-08  0.93827000000E+00  0.93827000000E+00 0. -1.
     999902    2    1    2    0    0 -0.10923939481E-01 -0.49859974431E-02  0.13389976746E-01  0.10259443362E+01  0.10257866722E+01 0.  0.
     999903    2    3    3    0    0  0.33791909789E-01  0.44051352457E-01  0.11701972507E+00  0.13738184905E+00  0.45801108861E-01 0.  0.
         14    1    1    2    0    0  0.10923939481E-01  0.49859974431E-02 -0.13389976746E-01  0.17985663779E-01  0.00000000000E+00 0. -1.
     999901    1    3    3    0    0 -0.44715849270E-01 -0.49037349900E-01 -0.10362974833E+00  0.88856248717E+00  0.88000000000E+00 0. -1.
        -11    1    4    4    0    0  0.58415011282E-02  0.84520523214E-02  0.74736066441E-01  0.75440712297E-01  0.51100000000E-03 0.  1.
         11    1    4    4    0    0  0.27950408661E-01  0.35599300136E-01  0.42283658633E-01  0.61941136758E-01  0.51100000000E-03 0. -1.
</event>
<event>
 8    1  0.2190295E+004  0.1043930E+01  0.7957747E-01            NaN
         13   -1    0    0    0    0  0.00000000000E+00  0.00000000000E+00  0.74505805969E-08  0.10566000000E+00  0.10566000000E+00 0.  1.
     999900   -1    0    0    0    0 -0.00000000000E+00 -0.00000000000E+00 -0.74505805969E-08  0.93827000000E+00  0.93827000000E+00 0.  1.
     999902    2    1    2    0    0 -0.46103054092E-02  0.11464616836E-01 -0.62477775734E-02  0.10300834452E+01  0.10299903771E+01 0.  0.
     999903    2    3    3    0    0 -0.11054817338E+00  0.72194467376E-01 -0.26890708277E-01  0.14141192141E+00  0.42910156933E-01 0.  0.
         14    1    1    2    0    0  0.46103054092E-02 -0.11464616836E-01  0.62477775734E-02  0.13846554798E-01  0.00000000000E+00 0. -1.
     999901    1    3    3    0    0  0.10593786797E+00 -0.60729850541E-01  0.20642930703E-01  0.88867152379E+00  0.88000000000E+00 0. -1.
        -11    1    4    4    0    0 -0.23400166986E-01  0.26782036948E-01 -0.24354700011E-01  0.43107515026E-01  0.51100000000E-03 0. -1.
         11    1    4    4    0    0 -0.87148006390E-01  0.45412430428E-01 -0.25360082652E-02  0.98304406382E-01  0.51100000000E-03 0.  1.
</event>
<event>
 8    1  0.2190295E+004  0.1043930E+01  0.7957747E-01            NaN
         13   -1    0    0    0    0  0.00000000000E+00  0.00000000000E+00  0.74505805969E-08  0.10566000000E+00  0.10566000000E+00 0.  1.
     999900   -1    0    0    0    0 -0.00000000000E+00 -0.00000000000E+00 -0.74505805969E-08  0.93827000000E+00  0.93827000000E+00 0.  1.
     999902    2    1    2    0    0  0.94586477892E-02  0.21737802524E-02  0.78194539397E-02  0.10314666458E+01  0.10313913448E+01 0.  0.
     999903    2    3    3    0    0  0.16846585998E-01 -0.12015400339E+00  0.57618713868E-01  0.14157977961E+00  0.44767463835E-01 0.  0.
         14    1    1    2    0    0 -0.94586477892E-02 -0.21737802524E-02 -0.78194539397E-02  0.12463354224E-01  0.00000000000E+00 0. -1.
     999901    1    3    3    0    0 -0.73879382088E-02  0.12232778364E+00 -0.49799259928E-01  0.88988686616E+00  0.88000000000E+00 0.  1.
        -11    1    4    4    0    0  0.13898170305E-01 -0.11310273846E-01  0.18814445083E-01  0.25987033248E-01  0.51100000000E-03 0.  1.
         11    1    4    4    0    0  0.29484156935E-02 -0.10884372954E+00  0.38804268785E-01  0.11559274636E+00  0.51100000000E-03 0. -1.
</event>
<event>
 8    1  0.2190295E+004  0.1043930E+01  0.7957747E-01            NaN
         13   -1    0    0    0    0  0.00000000000E+00  0.00000000000E+00  0.74505805969E-08  0.10566000000E+00  0.10566000000E+00 0. -1.
     999900   -1    0    0    0    0 -0.00000000000E+00 -0.00000000000E+00 -0.74505805969E-08  0.93827000000E+00  0.93827000000E+00 0. -1.
     999902    2    1    2    0    0 -0.97219334378E-02  0.10770735738E-01 -0.35747540997E-03  0.10294161264E+01  0.10293138048E+01 0.  0.
     999903    2    3    3    0    0 -0.84482377336E-01 -0.99548874139E-01 -0.18751351418E-01  0.13919262920E+00  0.44449121717E-01 0.  0.
         14    1    1    2    0    0  0.97219334378E-02 -0.10770735738E-01  0.35747540997E-03  0.14513873597E-01  0.00000000000E+00 0.  1.
     999901    1    3    3    0    0  0.74760443898E-01  0.11031960988E+00  0.18393876008E-01  0.89022349720E+00  0.88000000000E+00 0. -1.
        -11    1    4    4    0    0 -0.68593827591E-01 -0.51005719934E-01 -0.22384969375E-02  0.85510049930E-01  0.51100000000E-03 0. -1.
         11    1    4    4    0    0 -0.15888549746E-01 -0.48543154204E-01 -0.16512854480E-01  0.53682579271E-01  0.51100000000E-03 0.  1.
</event>
<event>
 8    1  0.2190295E+004  0.1043930E+01  0.7957747E-01            NaN
         13   -1    0    0    0    0  0.00000000000E+00  0.00000000000E+00  0.74505805969E-08  0.10566000000E+00  0.10566000000E+00 0. -1.
     999900   -1    0    0    0    0 -0.00000000000E+00 -0.00000000000E+00 -0.74505805969E-08  0.93827000000E+00  0.93827000000E+00 0.  1.
     999902    2    1    2    0    0  0.12005625556E-01  0.13839353922E-02 -0.66350950368E-02  0.10301432379E+01  0.10300509773E+01 0.  0.
     999903    2    3    3    0    0 -0.79043834936E-01 -0.14658975752E-01  0.10334234866E+00  0.13849172676E+00  0.45138718898E-01 0.  0.
         14    1    1    2    0    0 -0.12005625556E-01 -0.13839353922E-02  0.66350950368E-02  0.13786762068E-01  0.00000000000E+00 0. -1.
     999901    1    3    3    0    0  0.91049460493E-01  0.16042911144E-01 -0.10997744369E+00  0.89165151117E+00  0.88000000000E+00 0.  1.
        -11    1    4    4    0    0 -0.18249612391E-01 -0.12364376312E-01  0.59632138405E-01  0.63578134651E-01  0.51100000000E-03 0. -1.
         11    1    4    4    0    0 -0.60794222545E-01 -0.22945994404E-02  0.43710210251E-01  0.74913592109E-01  0.51100000000E-03 0.  1.
</event>
<event>
 8    1  0.2190295E+004  0.1043930E+01  0.7957747E-01            NaN
         13   -1    0    0    0    0  0.00000000000E+00  0.00000000000E+00  0.74505805969E-08  0.10566000000E+00  0.10566000000E+00 0. -1.
     999900   -1    0    0    0    0 -0.00000000000E+00 -0.00000000000E+00 -0.74505805969E-08  0.93827000000E+00  0.93827000000E+00 0.  1.
     999902    2    1    2    0    0  0.65092436651E-02  0.95501396255E-02 -0.78855944072E-02  0.10299386448E+01  0.10298436066E+01 0.  0.
     999903    2    3    3    0    0 -0.10025784716E+00 -0.57842755434E-01 -0.62990938058E-01  0.13922117399E+00  0.44913881320E-01 0.  0.
         14    1    1    2    0    0 -0.65092436651E-02 -0.95501396255E-02  0.78855944072E-02  0.13991355156E-01  0.00000000000E+00 0. -1.
     999901    1    3    3    0    0  0.10676709083E+00  0.67392895060E-01  0.55105343651E-01  0.89071747086E+00  0.88000000000E+00 0. -1.
        -11    1    4    4    0    0 -0.57489462553E-01 -0.10286995877E-01 -0.41874167801E-01  0.71864926347E-01  0.51100000000E-03 0. -1.
         11    1    4    4    0    0 -0.42768384610E-01 -0.47555759557E-01 -0.21116770257E-01  0.67356247641E-01  0.51100000000E-03 0.  1.
</event>
<event>
 8    1  0.2190295E+004  0.1043930E+01  0.7957747E-01            NaN
         13   -1    0    0    0    0  0.00000000000E+00  0.00000000000E+00  0.74505805969E-08  0.10566000000E+00  0.10566000000E+00 0. -1.
     999900   -1    0    0    0    0 -0.00000000000E+00 -0.00000000000E+00 -0.74505805969E-08  0.93827000000E+00  0.93827000000E+00 0.  1.
     999902    2    1    2    0    0 -0.12388108877E-01 -0.48365063872E-02 -0.39082068408E-02  0.10300688631E+01  0.10299755976E+01 0.  0.
     999903    2    3    3    0    0 -0.73685568941E-01 -0.11231856170E+00  0.16925566065E-01  0.14116852171E+00  0.39963162557E-01 0.  0.
         14    1    1    2    0    0  0.12388108877E-01  0.48365063872E-02  0.39082068408E-02  0.13861136905E-01  0.00000000000E+00 0. -1.
     999901    1    3    3    0    0  0.61297460064E-01  0.10748205531E+00 -0.20833772906E-01  0.88890034139E+00  0.88000000000E+00 0. -1.
        -11    1    4    4    0    0 -0.20592202320E-01 -0.63517758444E-01  0.17580266552E-01  0.69049774273E-01  0.51100000000E-03 0.  1.
         11    1    4    4    0    0 -0.53093366621E-01 -0.48800803258E-01 -0.65470048691E-03  0.72118747435E-01  0.51100000000E-03 0. -1.
</event>
<event>
 8    1  0.2190295E+004  0.1043930E+01  0.7957747E-01            NaN
         13   -1    0    0    0    0  0.00000000000E+00  0.00000000000E+00  0.74505805969E-08  0.10566000000E+00  0.10566000000E+00 0. -1.
     999900   -1    0    0    0    0 -0.00000000000E+00 -0.00000000000E+00 -0.74505805969E-08  0.93827000000E+00  0.93827000000E+00 0.  1.
     999902    2    1    2    0    0 -0.12107981986E-01 -0.83386254527E-02  0.63645608799E-02  0.10279099021E+01  0.10277850569E+01 0.  0.
     999903    2    3    3    0    0  0.41637369843E-01 -0.31591329061E-01 -0.11860756121E+00  0.13715332345E+00  0.44850840778E-01 0.  0.
         14    1    1    2    0    0  0.12107981986E-01  0.83386254527E-02 -0.63645608799E-02  0.16020097921E-01  0.00000000000E+00 0.  1.
     999901    1    3    3    0    0 -0.53745351828E-01  0.23252703608E-01  0.12497212209E+00  0.89075657863E+00  0.88000000000E+00 0. -1.
        -11    1    4    4    0    0  0.20325500562E-02 -0.29097348215E-01 -0.48976890290E-01  0.57006875343E-01  0.51100000000E-03 0.  1.
         11    1    4    4    0    0  0.39604819787E-01 -0.24939808461E-02 -0.69630670919E-01  0.80146448109E-01  0.51100000000E-03 0. -1.
</event>
<event>
 8    1  0.2190295E+004  0.1043930E+01  0.7957747E-01            NaN
         13   -1    0    0    0    0  0.00000000000E+00  0.00000000000E+00  0.74505805969E-08  0.10566000000E+00  0.10566000000E+00 0. -1.
     999900   -1    0    0    0    0 -0.00000000000E+00 -0.00000000000E+00 -0.74505805969E-08  0.93827000000E+00  0.93827000000E+00 0.  1.
     999902    2    1    2    0    0 -0.40564284898E-02  0.12865285828E-01  0.84799091053E-02  0.10279964175E+01  0.10278729277E+01 0.  0.
     999903    2    3    3    0    0 -0.75579275677E-01  0.35936873218E-01  0.10284091940E+00  0.13976682105E+00  0.44213389330E-01 0.  0.
         14    1    1    2    0    0  0.40564284898E-02 -0.12865285828E-01 -0.84799091053E-02  0.15933582458E-01  0.00000000000E+00 0.  1.
     999901    1    3    3    0    0  0.71522847187E-01 -0.23071587390E-01 -0.94361010293E-01  0.88822959649E+00  0.88000000000E+00 0.  1.
        -11    1    4    4    0    0 -0.55033278127E-01  0.43895172101E-01  0.89992713375E-01  0.11425584194E+00  0.51100000000E-03 0. -1.
         11    1    4    4    0    0 -0.20545997550E-01 -0.79582988827E-02  0.12848206023E-01  0.25510979116E-01  0.51100000000E-03 0.  1.
</event>
<event>
 8    1  0.2190295E+004  0.1043930E+01  0.7957747E-01            NaN
         13   -1    0    0    0    0  0.00000000000E+00  0.00000000000E+00  0.74505805969E-08  0.10566000000E+00  0.10566000000E+00 0. -1.
     999900   -1    0    0    0    0 -0.00000000000E+00 -0.00000000000E+00 -0.74505805969E-08  0.93827000000E+00  0.93827000000E+00 0. -1.
     999902    2    1    2    0    0 -0.99078964701E-03 -0.12839166102E-01 -0.81116426974E-02  0.10287107820E+01  0.10285981958E+01 0.  0.
     999903    2    3    3    0    0 -0.51263631150E-01  0.32415145239E-01 -0.11712584038E+00  0.13940801767E+00  0.45137915172E-01 0.  0.
         14    1    1    2    0    0  0.99078964701E-03  0.12839166102E-01  0.81116426974E-02  0.15219218034E-01  0.00000000000E+00 0. -1.
     999901    1    3    3    0    0  0.50272841503E-01 -0.45254311341E-01  0.10901419768E+00  0.88930276430E+00  0.88000000000E+00 0.  1.
        -11    1    4    4    0    0 -0.89982442228E-02  0.41749247460E-02 -0.67978050063E-01  0.68699889426E-01  0.51100000000E-03 0. -1.
         11    1    4    4    0    0 -0.42265386927E-01  0.28240220493E-01 -0.49147790318E-01  0.70708128244E-01  0.51100000000E-03 0.  1.
</event>
<event>
 8    1  0.2190295E+004  0.1043930E+01  0.7957747E-01            NaN
         13   -1    0    0    0    0  0.00000000000E+00  0.00000000000E+00  0.74505805969E-08  0.10566000000E+00  0.10566000000E+00 0. -1.
     999900   -1    0    0    0    0 -0.00000000000E+00 -0.00000000000E+00 -0.74505805969E-08  0.93827000000E+00  0.93827000000E+00 0. -1.
     999902    2    1    2    0    0 -0.30787209987E-03  0.30299506305E-02  0.13342659981E-01  0.10302441693E+01  0.10301532636E+01 0.  0.
     999903    2    3    3    0    0  0.63126409320E-01  0.10390921819E+00  0.55345709874E-01  0.14121954037E+00  0.45801111367E-01 0.  0.
         14    1    1    2    0    0  0.30787209987E-03 -0.30299506305E-02 -0.13342659981E-01  0.13685830681E-01  0.00000000000E+00 0.  1.
     999901    1    3    3    0    0 -0.63434281420E-01 -0.10087926756E+00 -0.42003049892E-01  0.88902462895E+00  0.88000000000E+00 0. -1.
        -11    1    4    4    0    0  0.51462968203E-01  0.42160922031E-01  0.21967011616E-01  0.70062765882E-01  0.51100000000E-03 0. -1.
         11    1    4    4    0    0  0.11663441118E-01  0.61748296155E-01  0.33378698258E-01  0.71156774486E-01  0.51100000000E-03 0.  1.
</event>
<event>
 8    1  0.2190295E+004  0.1043930E+01  0.7957747E-01            NaN
         13   -1    0    0    0    0  0.00000000000E+00  0.00000000000E+00  0.74505805969E-08  0.10566000000E+00  0.10566000000E+00 0.  1.
     999900   -1    0    0    0    0 -0.00000000000E+00 -0.00000000000E+00 -0.74505805969E-08  0.93827000000E+00  0.93827000000E+00 0. -1.
     999902    2    1    2    0    0 -0.86456144054E-02  0.66203481865E-02  0.75154167137E-02  0.10306990837E+01  0.10306141586E+01 0.  0.
     999903    2    3    3    0    0 -0.11510873548E+00 -0.57992040059E-01 -0.42595874750E-01  0.14051915894E+00  0.36306029662E-01 0.  0.
         14    1    1    2    0    0  0.86456144054E-02 -0.66203481865E-02 -0.75154167137E-02  0.13230916330E-01  0.00000000000E+00 0. -1.
     999901    1    3    3    0    0  0.10646312107E+00  0.64612388246E-01  0.50111291464E-01  0.89017992473E+00  0.88000000000E+00 0. -1.
        -11    1    4    4    0    0 -0.85542159410E-01 -0.26006962430E-01 -0.20740677006E-01  0.91783767275E-01  0.51100000000E-03 0.  1.
         11    1    4    4    0    0 -0.29566576066E-01 -0.31985077629E-01 -0.21855197744E-01  0.48735391664E-01  0.51100000000E-03 0. -1.
</event>
<event>
 8    1  0.2190295E+004  0.1043930E+01  0.7957747E-01            NaN
         13   -1    0    0    0    0  0.00000000000E+00  0.00000000000E+00  0.74505805969E-08  0.10566000000E+00  0.10566000000E+00 0.  1.
     999900   -1    0    0    0    0 -0.00000000000E+00 -0.00000000000E+00 -0.74505805969E-08  0.93827000000E+00  0.93827000000E+00 0. -1.
     999902    2    1    2    0    0 -0.74594000766E-02 -0.11959700503E-01  0.32422124725E-03  0.10298309857E+01  0.10297344691E+01 0.  0.
     999903    2    3    3    0    0  0.95260468310E-01  0.46126472509E-02  0.90581828214E-01  0.13911641316E+00  0.45304254438E-01 0.  0.
         14    1    1    2    0    0  0.74594000766E-02  0.11959700503E-01 -0.32422124725E-03  0.14099014329E-01  0.00000000000E+00 0. -1.
     999901    1    3    3    0    0 -0.10271986839E+00 -0.16572347754E-01 -0.90257606967E-01  0.89071457251E+00  0.88000000000E+00 0. -1.
        -11    1    4    4    0    0  0.70524106379E-01 -0.18637208166E-02  0.36818696258E-01  0.79580151740E-01  0.51100000000E-03 0. -1.
         11    1    4    4    0    0  0.24736361931E-01  0.64763680674E-02  0.53763131957E-01  0.59536261419E-01  0.51100000000E-03 0.  1.
</event>
<event>
 8    1  0.2190295E+004  0.1043930E+01  0.7957747E-01            NaN
         13   -1    0    0    0    0  0.00000000000E+00  0.00000000000E+00  0.74505805969E-08  0.10566000000E+00  0.10566000000E+00 0. -1.
     999900   -1    0    0    0    0 -0.00000000000E+00 -0.00000000000E+00 -0.74505805969E-08  0.93827000000E+00  0.93827000000E+00 0.  1.
     999902    2    1    2    0    0 -0.87143615666E-02 -0.89431062782E-02 -0.50474906577E-02  0.10304616516E+01  0.10303736308E+01 0.  0.
     999903    2    3    3    0    0  0.82096394310E-01  0.95583831845E-01 -0.37487028079E-01  0.13904435436E+00  0.45298657123E-01 0.  0.
         14    1    1    2    0    0  0.87143615666E-02  0.89431062782E-02  0.50474906577E-02  0.13468348427E-01  0.00000000000E+00 0.  1.
     999901    1    3    3    0    0 -0.90810755877E-01 -0.10452693812E+00  0.32439537421E-01  0.89141729721E+00  0.88000000000E+00 0. -1.
        -11    1    4    4    0    0  0.75268805538E-01  0.65516181264E-01 -0.41247453598E-01  0.10797859345E+00  0.51100000000E-03 0.  1.
         11    1    4    4    0    0  0.68275887720E-02  0.30067650581E-01  0.37604255189E-02  0.31065760911E-01  0.51100000000E-03 0. -1.
</event>
<event>
 7    1  0.2190295E+004  0.1043930E+01  0.7957747E-01            NaN
         13   -1    0    0    0    0  0.00000000000E+00  0.00000000000E+00  0.74505805969E-08  0.10566000000E+00  0.10566000000E+00 0. -1.
     999900   -1    0    0    0    0 -0.00000000000E+00 -0.00000000000E+00 -0.74505805969E-08  0.93827000000E+00  0.93827000000E+00 0. -1.
     999902    2    1    2    0    0 -0.12864293410E-01 -0.36850263901E-02  0.64135930687E-02  0.10290907399E+01  0.10289837449E+01 0.  0.
         14    1    1    2    0    0  0.12864293410E-01  0.36850263901E-02 -0.64135930687E-02  0.14839260106E-01  0.00000000000E+00 0. -1.
     999901    1    3    3    0    0 -0.74928906003E-01  0.26044155350E-01  0.12396969401E+00  0.89222257538E+00  0.88000000000E+00 0.  1.
        -11    1    3    3    0    0  0.24768166823E-01 -0.86806144228E-02 -0.56361831218E-01  0.62175013420E-01  0.51100000000E-03 0.  1.
         11    1    3    3    0    0  0.37296445770E-01 -0.21048567318E-01 -0.61194269718E-01  0.74693151096E-01  0.51100000000E-03 0. -1.
</event>
<event>
 8    1  0.2190295E+004  0.1043930E+01  0.7957747E-01            NaN
         13   -1    0    0    0    0  0.00000000000E+00  0.00000000000E+00  0.74505805969E-08  0.10566000000E+00  0.10566000000E+00 0. -1.
     999900   -1    0    0    0    0 -0.00000000000E+00 -0.00000000000E+00 -0.74505805969E-08  0.93827000000E+00  0.93827000000E+00 0. -1.
     999902    2    1    2    0    0  0.48121785659E-02 -0.98236499774E-02 -0.89122689092E-02  0.10298200851E+01  0.10297234182E+01 0.  0.
     999903    2    3    3    0    0 -0.49824223875E-01  0.11716084524E+00  0.29972126654E-01  0.13817991400E+00  0.44567289741E-01 0.  0.
         14    1    1    2    0    0 -0.48121785659E-02  0.98236499774E-02  0.89122689092E-02  0.14109914902E-01  0.00000000000E+00 0. -1.
     999901    1    3    3    0    0  0.54636402441E-01 -0.12698449522E+00 -0.38884395563E-01  0.89164017110E+00  0.88000000000E+00 0. -1.
        -11    1    4    4    0    0 -0.63964984906E-02  0.36819732182E-01  0.28224186661E-01  0.46834535383E-01  0.51100000000E-03 0. -1.
         11    1    4    4    0    0 -0.43427725384E-01  0.80341113058E-01  0.17479399930E-02  0.91345378617E-01  0.51100000000E-03 0.  1.
</event>
<event>
 8    1  0.2190295E+004  0.1043930E+01  0.7957747E-01            NaN
         13   -1    0    0    0    0  0.00000000000E+00  0.00000000000E+00  0.74505805969E-08  0.10566000000E+00  0.10566000000E+00 0. -1.
     999900   -1    0    0    0    0 -0.00000000000E+00 -0.00000000000E+00 -0.74505805969E-08  0.93827000000E+00  0.93827000000E+00 0.  1.
     999902    2    1    2    0    0  0.39233952097E-02  0.32835517139E-02  0.11482030290E-01  0.10313597271E+01  0.10312831206E+01 0.  0.
     999903    2    3    3    0    0  0.84976094593E-01 -0.64403049468E-01  0.82608964052E-01  0.14219716783E+00  0.45023373529E-01 0.  0.
         14    1    1    2    0    0 -0.39233952097E-02 -0.32835517139E-02 -0.11482030290E-01  0.12570272925E-01  0.00000000000E+00 0.  1.
     999901    1    3    3    0    0 -0.81052699383E-01  0.67686601182E-01 -0.71126933762E-01  0.88916255925E+00  0.88000000000E+00 0.  1.
        -11    1    4    4    0    0  0.23380231676E-01  0.26587331625E-02  0.93419423246E-02  0.25322659866E-01  0.51100000000E-03 0.  1.
         11    1    4    4    0    0  0.61595862916E-01 -0.67061782631E-01  0.73267021727E-01  0.11687450796E+00  0.51100000000E-03 0. -1.
</event>
<event>
 8    1  0.2190295E+004  0.1043930E+01  0.7957747E-01            NaN
         13   -1    0    0    0    0  0.00000000000E+00  0.00000000000E+00  0.74505805969E-08  0.10566000000E+00  0.10566000000E+00 0.  1.
     999900   -1    0    0    0    0 -0.00000000000E+00 -0.00000000000E+00 -0.74505805969E-08  0.93827000000E+00  0.93827000000E+00 0.  1.
     999902    2    1    2    0    0 -0.12663154940E-03  0.13832675309E-01  0.27406972935E-02  0.10298278596E+01  0.10297312999E+01 0.  0.
     999903    2    3    3    0    0 -0.59351427007E-01  0.83297993552E-01 -0.84844391907E-01  0.14078109218E+00  0.46471469312E-01 0.  0.
         14    1    1    2    0    0  0.12663154940E-03 -0.13832675309E-01 -0.27406972935E-02  0.14102140384E-01  0.00000000000E+00 0. -1.
     999901    1    3    3    0    0  0.59224795458E-01 -0.69465318243E-01  0.87585089201E-01  0.88904676743E+00  0.88000000000E+00 0. -1.
        -11    1    4    4    0    0 -0.40804924211E-01  0.33945866678E-01 -0.18889226094E-01  0.56342059670E-01  0.51100000000E-03 0. -1.
         11    1    4    4    0    0 -0.18546502796E-01  0.49352126874E-01 -0.65955165813E-01  0.84439032511E-01  0.51100000000E-03 0.  1.
</event>
<event>
 8    1  0.2190295E+004  0.1043930E+01  0.7957747E-01            NaN
         13   -1    0    0    0    0  0.00000000000E+00  0.00000000000E+00  0.74505805969E-08  0.10566000000E+00  0.10566000000E+00 0. -1.
     999900   -1    0    0    0    0 -0.00000000000E+00 -0.00000000000E+00 -0.74505805969E-08  0.93827000000E+00  0.93827000000E+00 0.  1.
     999902    2    1    2    0    0 -0.47345299819E-02 -0.11392994974E-01  0.60738623444E-02  0.10301783487E+01  0.10300865606E+01 0.  0.
     999903    2    3    3    0    0 -0.57682417141E-02  0.41904972641E-01  0.12580161675E+00  0.14047251135E+00  0.46012827815E-01 0.  0.
         14    1    1    2    0    0  0.47345299819E-02  0.11392994974E-01 -0.60738623444E-02  0.13751651261E-01  0.00000000000E+00 0.  1.
     999901    1    3    3    0    0  0.10337117322E-02 -0.53297967615E-01 -0.11972775440E+00  0.88970583739E+00  0.88000000000E+00 0.  1.
        -11    1    4    4    0    0  0.93823753791E-02  0.17775755659E-01  0.12574579441E-01  0.23714713284E-01  0.51100000000E-03 0. -1.
         11    1    4    4    0    0 -0.15150617093E-01  0.24129216981E-01  0.11322703731E+00  0.11675779806E+00  0.51100000000E-03 0.  1.
</event>
<event>
 7    1  0.2190295E+004  0.1043930E+01  0.7957747E-01            NaN
         13   -1    0    0    0    0  0.00000000000E+00  0.00000000000E+00  0.74505805969E-08  0.10566000000E+00  0.10566000000E+00 0.  1.
     999900   -1    0    0    0    0 -0.00000000000E+00 -0.00000000000E+00 -0.74505805969E-08  0.93827000000E+00  0.93827000000E+00 0.  1.
     999903    2    1    2    0    0 -0.11220850008E-01  0.26268636964E-01 -0.10349731549E+00  0.11651558578E+00  0.45257470693E-01 0.  0.
         14    1    1    2    0    0 -0.14426209956E-01 -0.83415878547E-02 -0.32399109777E-01  0.36433500188E-01  0.00000000000E+00 0. -1.
     999901    1    1    2    0    0  0.25647059963E-01 -0.17927049110E-01  0.13589642526E+00  0.89098091403E+00  0.88000000000E+00 0. -1.
        -11    1    3    3    0    0 -0.91576974382E-02 -0.54933181844E-02 -0.68000385897E-01  0.68835699823E-01  0.51100000000E-03 0.  1.
         11    1    3    3    0    0 -0.20631525695E-02  0.31761955149E-01 -0.35496929589E-01  0.47679885955E-01  0.51100000000E-03 0. -1.
</event>
<event>
 8    1  0.2190295E+004  0.1043930E+01  0.7957747E-01            NaN
         13   -1    0    0    0    0  0.00000000000E+00  0.00000000000E+00  0.74505805969E-08  0.10566000000E+00  0.10566000000E+00 0.  1.
     999900   -1    0    0    0    0 -0.00000000000E+00 -0.00000000000E+00 -0.74505805969E-08  0.93827000000E+00  0.93827000000E+00 0.  1.
     999902    2    1    2    0    0 -0.43865491903E-02  0.43534702129E-03 -0.10323018728E-01  0.10327052035E+01  0.10326441988E+01 0.  0.
     999903    2    3    3    0    0 -0.11044368183E+00  0.32125504026E-02  0.77478903865E-01  0.14199480957E+00  0.44174857817E-01 0.  0.
         14    1    1    2    0    0  0.43865491903E-02 -0.43534702129E-03  0.10323018728E-01  0.11224796501E-01  0.00000000000E+00 0.  1.
     999901    1    3    3    0    0  0.10605713264E+00 -0.27772033813E-02 -0.87801922593E-01  0.89071039393E+00  0.88000000000E+00 0. -1.
        -11    1    4    4    0    0 -0.23150041448E-01  0.17178330606E-01  0.91095665415E-02  0.30236811754E-01  0.51100000000E-03 0.  1.
         11    1    4    4    0    0 -0.87293640387E-01 -0.13965780203E-01  0.68369337323E-01  0.11175799782E+00  0.51100000000E-03 0. -1.
</event>
<event>
 8    1  0.2190295E+004  0.1043930E+01  0.7957747E-01            NaN
         13   -1    0    0    0    0  0.00000000000E+00  0.00000000000E+00  0.74505805969E-08  0.10566000000E+00  0.10566000000E+00 0. -1.
     999900   -1    0    0    0    0 -0.00000000000E+00 -0.00000000000E+00 -0.74505805969E-08  0.93827000000E+00  0.93827000000E+00 0.  1.
     999902    2    1    2    0    0 -0.68461843938E-02 -0.16291712145E-03 -0.10651495645E-01  0.10312670169E+01  0.10311892692E+01 0.  0.
     999903    2    3    3    0    0 -0.81542661147E-01 -0.83285026564E-01 -0.68137913097E-01  0.14233870877E+00  0.45076951721E-01 0.  0.
         14    1    1    2    0    0  0.68461843938E-02  0.16291712145E-03  0.10651495645E-01  0.12662983148E-01  0.00000000000E+00 0. -1.
     999901    1    3    3    0    0  0.74696476753E-01  0.83122109443E-01  0.57486417452E-01  0.88892830808E+00  0.88000000000E+00 0. -1.
        -11    1    4    4    0    0 -0.22708301921E-01 -0.38164800689E-01 -0.48236597180E-01  0.65568661846E-01  0.51100000000E-03 0.  1.
         11    1    4    4    0    0 -0.58834359225E-01 -0.45120225875E-01 -0.19901315917E-01  0.76770046924E-01  0.51100000000E-03 0. -1.
</event>
<event>
 8    1  0.2190295E+004  0.1043930E+01  0.7957747E-01            NaN
         13   -1    0    0    0    0  0.00000000000E+00  0.00000000000E+00  0.74505805969E-08  0.10566000000E+00  0.10566000000E+00 0. -1.
     999900   -1    0    0    0    0 -0.00000000000E+00 -0.00000000000E+00 -0.74505805969E-08  0.93827000000E+00  0.93827000000E+00 0. -1.
     999902    2    1    2    0    0 -0.22639786734E-02  0.17875812546E-03 -0.13571150299E-01  0.10301701426E+01  0.10300782442E+01 0.  0.
     999903    2    3    3    0    0 -0.11511632007E+00 -0.56284603699E-01 -0.37551448544E-01  0.14084522065E+00  0.44805592629E-01 0.  0.
         14    1    1    2    0    0  0.22639786734E-02 -0.17875812546E-03  0.13571150299E-01  0.13759857352E-01  0.00000000000E+00 0. -1.
     999901    1    3    3    0    0  0.11285234140E+00  0.56463361825E-01  0.23980298245E-01  0.88932492200E+00  0.88000000000E+00 0.  1.
        -11    1    4    4    0    0 -0.38281956108E-01 -0.36260629382E-01 -0.31010282513E-01  0.61173851842E-01  0.51100000000E-03 0.  1.
         11    1    4    4    0    0 -0.76834363964E-01 -0.20023974317E-01 -0.65411660310E-02  0.79671368805E-01  0.51100000000E-03 0. -1.
</event>
<event>
 8    1  0.2190295E+004  0.1043930E+01  0.7957747E-01            NaN
         13   -1    0    0    0    0  0.00000000000E+00  0.00000000000E+00  0.74505805969E-08  0.10566000000E+00  0.10566000000E+00 0.  1.
     999900   -1    0    0    0    0 -0.00000000000E+00 -0.00000000000E+00 -0.74505805969E-08  0.93827000000E+00  0.93827000000E+00 0.  1.
     999902    2    1    2    0    0 -0.47603606618E-02  0.36333788442E-02 -0.12987218135E-01  0.10296285906E+01  0.10295292635E+01 0.  0.
     999903    2    3    3    0    0  0.39891084756E-01  0.59777081252E-01 -0.11271992579E+00  0.14109469713E+00  0.45136834222E-01 0.  0.
         14    1    1    2    0    0  0.47603606618E-02 -0.36333788442E-02  0.12987218135E-01  0.14301409383E-01  0.00000000000E+00 0.  1.
     999901    1    3    3    0    0 -0.44651445418E-01 -0.56143702408E-01  0.99732707650E-01  0.88853389349E+00  0.88000000000E+00 0.  1.
        -11    1    4    4    0    0  0.28379171261E-01  0.39885549782E-01 -0.10660388805E+00  0.11730679653E+00  0.51100000000E-03 0.  1.
         11    1    4    4    0    0  0.11511913495E-01  0.19891531470E-01 -0.61160377327E-02  0.23787900603E-01  0.51100000000E-03 0. -1.
</event>
<event>
 8    1  0.2190295E+004  0.1043930E+01  0.7957747E-01            NaN
         13   -1    0    0    0    0  0.00000000000E+00  0.00000000000E+00  0.74505805969E-08  0.10566000000E+00  0.10566000000E+00 0. -1.
     999900   -1    0    0    0    0 -0.00000000000E+00 -0.00000000000E+00 -0.74505805969E-08  0.93827000000E+00  0.93827000000E+00 0. -1.
     999902    2    1    2    0    0 -0.12536050331E-01 -0.37653955057E-03  0.74762564355E-02  0.10293290154E+01  0.10292254531E+01 0.  0.
     999903    2    3    3    0    0  0.16108846865E-01 -0.12663838091E+00 -0.29973326203E-01  0.13906778751E+00  0.46310633462E-01 0.  0.
         14    1    1    2    0    0  0.12536050331E-01  0.37653955057E-03 -0.74762564355E-02  0.14600984564E-01  0.00000000000E+00 0.  1.
     999901    1    3    3    0    0 -0.28644897196E-01  0.12626184136E+00  0.37449582638E-01  0.89026122793E+00  0.88000000000E+00 0. -1.
        -11    1    4    4    0    0  0.10644377222E-01 -0.12716943761E+00 -0.22191196292E-01  0.12953022405E+00  0.51100000000E-03 0. -1.
         11    1    4    4    0    0  0.54644696427E-02  0.53105670350E-03 -0.77821299105E-02  0.95375634542E-02  0.51100000000E-03 0.  1.
</event>
<event>
 8    1  0.2435404E+004  0.1043930E+01  0.7957747E-01            NaN
         13   -1    0    0    0    0  0.00000000000E+00  0.00000000000E+00  0.74505805969E-08  0.10566000000E+00  0.10566000000E+00 0.  1.
     999900   -1    0    0    0    0 -0.00000000000E+00 -0.00000000000E+00 -0.74505805969E-08  0.93827000000E+00  0.93827000000E+00 0.  1.
     999902    2    1    2    0    0 -0.37541110635E-02 -0.11958571497E-01 -0.65429831353E-02  0.10297909968E+01  0.10296939282E+01 0.  0.
     999903    2    3    3    0    0  0.61724724692E-01 -0.44297989798E-01  0.10664726969E+00  0.13954083579E+00  0.48226042580E-01 0.  0.
         14    1    1    2    0    0  0.37541110635E-02  0.11958571497E-01  0.65429831353E-02  0.14139003163E-01  0.00000000000E+00 0.  1.
     999901    1    3    3    0    0 -0.65478835755E-01  0.32339418301E-01 -0.11319025282E+00  0.89025016105E+00  0.88000000000E+00 0.  1.
        -11    1    4    4    0    0  0.60232574783E-01 -0.23819500301E-01  0.58841080763E-01  0.87509231318E-01  0.51100000000E-03 0. -1.
         11    1    4    4    0    0  0.14921499087E-02 -0.20478489497E-01  0.47806188926E-01  0.52031604473E-01  0.51100000000E-03 0.  1.
</event>
<event>
 8    1  0.2190295E+004  0.1043930E+01  0.7957747E-01            NaN
         13   -1    0    0    0    0  0.00000000000E+00  0.00000000000E+00  0.74505805969E-08  0.10566000000E+00  0.10566000000E+00 0. -1.
     999900   -1    0    0    0    0 -0.00000000000E+00 -0.00000000000E+00 -0.74505805969E-08  0.93827000000E+00  0.93827000000E+00 0. -1.
     999902    2    1    2    0    0  0.11846464395E-01 -0.49068376262E-02  0.68335240790E-02  0.10294002779E+01  0.10292977311E+01 0.  0.
     999903    2    3    3    0    0  0.49652287372E-01  0.51018064406E-01  0.11229022885E+00  0.14053696356E+00  0.45534054238E-01 0.  0.
         14    1    1    2    0    0 -0.11846464395E-01  0.49068376262E-02 -0.68335240790E-02  0.14529722140E-01  0.00000000000E+00 0. -1.
     999901    1    3    3    0    0 -0.37805822978E-01 -0.55924902032E-01 -0.10545670477E+00  0.88886331430E+00  0.88000000000E+00 0. -1.
        -11    1    4    4    0    0  0.40824043001E-01  0.15286315801E-01  0.81993198427E-01  0.92862369380E-01  0.51100000000E-03 0. -1.
         11    1    4    4    0    0  0.88282443715E-02  0.35731748605E-01  0.30297030425E-01  0.47674594184E-01  0.51100000000E-03 0.  1.
</event>
<event>
 8    1  0.2190295E+004  0.1043930E+01  0.7957747E-01            NaN
         13   -1    0    0    0    0  0.00000000000E+00  0.00000000000E+00  0.74505805969E-08  0.10566000000E+00  0.10566000000E+00 0. -1.
     999900   -1    0    0    0    0 -0.00000000000E+00 -0.00000000000E+00 -0.74505805969E-08  0.93827000000E+00  0.93827000000E+00 0. -1.
     999902    2    1    2    0    0  0.18869702265E-02  0.60372818427E-02 -0.12066371885E-01  0.10303062428E+01  0.10302161653E+01 0.  0.
     999903    2    3    3    0    0  0.10226265028E+00 -0.20353429831E-01 -0.83971059984E-01  0.14129441447E+00  0.45178101966E-01 0.  0.
         14    1    1    2    0    0 -0.18869702265E-02 -0.60372818427E-02  0.12066371885E-01  0.13623757160E-01  0.00000000000E+00 0. -1.
     999901    1    3    3    0    0 -0.10037568006E+00  0.26390711674E-01  0.71904688099E-01  0.88901182837E+00  0.88000000000E+00 0.  1.
        -11    1    4    4    0    0  0.25092512389E-01 -0.10693685498E-01 -0.61218394307E-03  0.27287817386E-01  0.51100000000E-03 0. -1.
         11    1    4    4    0    0  0.77170137893E-01 -0.96597443328E-02 -0.83358876041E-01  0.11400659708E+00  0.51100000000E-03 0.  1.
</event>
<event>
 8    1  0.2190295E+004  0.1043930E+01  0.7957747E-01            NaN
         13   -1    0    0    0    0  0.00000000000E+00  0.00000000000E+00  0.74505805969E-08  0.10566000000E+00  0.10566000000E+00 0. -1.
     999900   -1    0    0    0    0 -0.00000000000E+00 -0.00000000000E+00 -0.74505805969E-08  0.93827000000E+00  0.93827000000E+00 0.  1.
     999902    2    1    2    0    0 -0.66037298984E-02 -0.18391282757E-02 -0.12649795816E-01  0.10295421935E+01  0.10294416541E+01 0.  0.
     999903    2    3    3    0    0  0.62355664054E-01  0.30099441756E-01  0.10978687865E+00  0.13782126770E+00  0.46339377145E-01 0.  0.
         14    1    1    2    0    0  0.66037298984E-02  0.18391282757E-02  0.12649795816E-01  0.14387806489E-01  0.00000000000E+00 0. -1.
     999901    1    3    3    0    0 -0.68959393953E-01 -0.31938570032E-01 -0.12243667446E+00  0.89172092581E+00  0.88000000000E+00 0.  1.
        -11    1    4    4    0    0  0.22419937024E-01  0.11586969073E-01  0.81921338410E-01  0.85722098879E-01  0.51100000000E-03 0.  1.
         11    1    4    4    0    0  0.39935727031E-01  0.18512472683E-01  0.27865540239E-01  0.52099168823E-01  0.51100000000E-03 0. -1.
</event>
<event>
 8    1  0.2190295E+004  0.1043930E+01  0.7957747E-01            NaN
         13   -1    0    0    0    0  0.00000000000E+00  0.00000000000E+00  0.74505805969E-08  0.10566000000E+00  0.10566000000E+00 0. -1.
     999900   -1    0    0    0    0 -0.00000000000E+00 -0.00000000000E+00 -0.74505805969E-08  0.93827000000E+00  0.93827000000E+00 0. -1.
     999902    2    1    2    0    0  0.31358097003E-02  0.12415902447E-01  0.20985463253E-02  0.10309534121E+01  0.10308717409E+01 0.  0.
     999903    2    3    3    0    0  0.53688519416E-01 -0.95710849690E-01  0.74327630337E-01  0.13996294553E+00  0.44966716865E-01 0.  0.
         14    1    1    2    0    0 -0.31358097003E-02 -0.12415902447E-01 -0.20985463253E-02  0.12976587869E-01  0.00000000000E+00 0.  1.
     999901    1    3    3    0    0 -0.50552709715E-01  0.10812675214E+00 -0.72229084012E-01  0.89099046660E+00  0.88000000000E+00 0. -1.
        -11    1    4    4    0    0  0.27773373179E-01 -0.55710510951E-01  0.15319843104E-01  0.64109125730E-01  0.51100000000E-03 0. -1.
         11    1    4    4    0    0  0.25915146237E-01 -0.40000338740E-01  0.59007787234E-01  0.75853819805E-01  0.51100000000E-03 0.  1.
</event>
<event>
 8    1  0.2190295E+004  0.1043930E+01  0.7957747E-01            NaN
         13   -1    0    0    0    0  0.00000000000E+00  0.00000000000E+00  0.74505805969E-08  0.10566000000E+00  0.10566000000E+00 0.  1.
     999900   -1    0    0    0    0 -0.00000000000E+00 -0.00000000000E+00 -0.74505805969E-08  0.93827000000E+00  0.93827000000E+00 0.  1.
     999902    2    1    2    0    0 -0.85198529033E-03 -0.11540161661E-01 -0.11341293378E-01  0.10277273414E+01  0.10275996118E+01 0.  0.
     999903    2    3    3    0    0 -0.75677887680E-01 -0.10773443414E+00  0.97384348083E-03  0.13924328622E+00  0.45319900727E-01 0.  0.
         14    1    1    2    0    0  0.85198529033E-03  0.11540161661E-01  0.11341293378E-01  0.16202658596E-01  0.00000000000E+00 0. -1.
     999901    1    3    3    0    0  0.74825902390E-01  0.96194272479E-01 -0.12315136859E-01  0.88848405519E+00  0.88000000000E+00 0. -1.
        -11    1    4    4    0    0 -0.41067065937E-01 -0.62266713677E-01  0.22913915425E-01  0.78031763903E-01  0.51100000000E-03 0.  1.
         11    1    4    4    0    0 -0.34610821744E-01 -0.45467720464E-01 -0.21940071945E-01  0.61211522313E-01  0.51100000000E-03 0. -1.
</event>
<event>
 8    1  0.2190295E+004  0.1043930E+01  0.7957747E-01            NaN
         13   -1    0    0    0    0  0.00000000000E+00  0.00000000000E+00  0.74505805969E-08  0.10566000000E+00  0.10566000000E+00 0.  1.
     999900   -1    0    0    0    0 -0.00000000000E+00 -0.00000000000E+00 -0.74505805969E-08  0.93827000000E+00  0.93827000000E+00 0. -1.
     999902    2    1    2    0    0  0.69884507548E-03  0.14432624024E-02 -0.28028019670E-03  0.10423021340E+01  0.10423008628E+01 0.  0.
     999903    2    3    3    0    0  0.96669593882E-02 -0.94828686044E-01 -0.10749443129E+00  0.15053782132E+00  0.44951675030E-01 0.  0.
         14    1    1    2    0    0 -0.69884507548E-03 -0.14432624024E-02  0.28028019670E-03  0.16278660234E-02  0.00000000000E+00 0. -1.
     999901    1    3    3    0    0 -0.89681143127E-02  0.96271948446E-01  0.10721415110E+00  0.89176431266E+00  0.88000000000E+00 0.  1.
        -11    1    4    4    0    0  0.21996466009E-01 -0.71889694757E-01 -0.96337878260E-01  0.12220155743E+00  0.51100000000E-03 0. -1.
         11    1    4    4    0    0 -0.12329506621E-01 -0.22938991287E-01 -0.11156553034E-01  0.28336263893E-01  0.51100000000E-03 0.  1.
</event>
<event>
 8    1  0.2586122E+004  0.1043930E+01  0.7957747E-01            NaN
         13   -1    0    0    0    0  0.00000000000E+00  0.00000000000E+00  0.74505805969E-08  0.10566000000E+00  0.10566000000E+00 0. -1.
     999900   -1    0    0    0    0 -0.00000000000E+00 -0.00000000000E+00 -0.74505805969E-08  0.93827000000E+00  0.93827000000E+00 0.  1.
     999902    2    1    2    0    0  0.11079065423E-01 -0.57278097597E-02 -0.60193953763E-02  0.10300812955E+01  0.10299881984E+01 0.  0.
     999903    2    3    3    0    0  0.50988018284E-01 -0.44516619966E-01 -0.11779518139E+00  0.14126684769E+00  0.38718342382E-01 0.  0.
         14    1    1    2    0    0 -0.11079065423E-01  0.57278097597E-02  0.60193953763E-02  0.13848704488E-01  0.00000000000E+00 0. -1.
     999901    1    3    3    0    0 -0.39908952861E-01  0.38788810206E-01  0.11177578601E+00  0.88881444782E+00  0.88000000000E+00 0. -1.
        -11    1    4    4    0    0  0.29637683326E-01 -0.47686752733E-01 -0.79964680150E-01  0.97708903646E-01  0.51100000000E-03 0. -1.
         11    1    4    4    0    0  0.21350334958E-01  0.31701327673E-02 -0.37830501239E-01  0.43557944046E-01  0.51100000000E-03 0.  1.
</event>
<event>
 7    1  0.3385895E+004  0.1043930E+01  0.7957747E-01            NaN
         13   -1    0    0    0    0  0.00000000000E+00  0.00000000000E+00  0.74505805969E-08  0.10566000000E+00  0.10566000000E+00 0. -1.
     999900   -1    0    0    0    0 -0.00000000000E+00 -0.00000000000E+00 -0.74505805969E-08  0.93827000000E+00  0.93827000000E+00 0.  1.
     999903    2    1    2    0    0 -0.78268050471E-01  0.37468637498E-02  0.52556465753E-01  0.10436803624E+00  0.44615896087E-01 0.  0.
         14    1    1    2    0    0 -0.46757684491E-01 -0.14644295788E-01 -0.69621989825E-02  0.49489480425E-01  0.00000000000E+00 0.  1.
     999901    1    1    2    0    0  0.12502573496E+00  0.10897432039E-01 -0.45594266771E-01  0.89007248333E+00  0.88000000000E+00 0. -1.
        -11    1    3    3    0    0 -0.19431518009E-01  0.20065011909E-01  0.24554419227E-01  0.37193671768E-01  0.51100000000E-03 0.  1.
         11    1    3    3    0    0 -0.58836532462E-01 -0.16318148159E-01  0.28002046527E-01  0.67174364472E-01  0.51100000000E-03 0. -1.
</event>
<event>
 8    1  0.2190295E+004  0.1043930E+01  0.7957747E-01            NaN
         13   -1    0    0    0    0  0.00000000000E+00  0.00000000000E+00  0.74505805969E-08  0.10566000000E+00  0.10566000000E+00 0. -1.
     999900   -1    0    0    0    0 -0.00000000000E+00 -0.00000000000E+00 -0.74505805969E-08  0.93827000000E+00  0.93827000000E+00 0.  1.
     999902    2    1    2    0    0 -0.11781301475E-02 -0.90377876720E-03  0.13645639672E-01  0.10302038101E+01  0.10301123638E+01 0.  0.
     999903    2    3    3    0    0  0.99957383547E-01 -0.30020858426E-01 -0.81707218811E-01  0.13881816738E+00  0.41251466907E-01 0.  0.
         14    1    1    2    0    0  0.11781301475E-02  0.90377876720E-03 -0.13645639672E-01  0.13726189885E-01  0.00000000000E+00 0.  1.
     999901    1    3    3    0    0 -0.10113551369E+00  0.29117079659E-01  0.95352858483E-01  0.89138564274E+00  0.88000000000E+00 0. -1.
        -11    1    4    4    0    0  0.89169539918E-01 -0.36144617019E-01 -0.58798536462E-01  0.11276155905E+00  0.51100000000E-03 0.  1.
         11    1    4    4    0    0  0.10787843629E-01  0.61237585930E-02 -0.22908682349E-01  0.26056608326E-01  0.51100000000E-03 0. -1.
</event>
<event>
 8    1  0.2190295E+004  0.1043930E+01  0.7957747E-01            NaN
         13   -1    0    0    0    0  0.00000000000E+00  0.00000000000E+00  0.74505805969E-08  0.10566000000E+00  0.10566000000E+00 0. -1.
     999900   -1    0    0    0    0 -0.00000000000E+00 -0.00000000000E+00 -0.74505805969E-08  0.93827000000E+00  0.93827000000E+00 0. -1.
     999902    2    1    2    0    0 -0.93932026703E-02  0.10148680252E-01 -0.57268819330E-03  0.10300896265E+01  0.10299966421E+01 0.  0.
     999903    2    3    3    0    0  0.31000549660E-01  0.44577007192E-01 -0.12139817581E+00  0.14024932431E+00  0.44544497188E-01 0.  0.
         14    1    1    2    0    0  0.93932026703E-02 -0.10148680252E-01  0.57268819330E-03  0.13840373515E-01  0.00000000000E+00 0. -1.
     999901    1    3    3    0    0 -0.40393752330E-01 -0.34428326940E-01  0.12082548761E+00  0.88984030218E+00  0.88000000000E+00 0.  1.
        -11    1    4    4    0    0  0.34407769722E-01  0.20467982514E-01 -0.10041358510E+00  0.10810172117E+00  0.51100000000E-03 0. -1.
         11    1    4    4    0    0 -0.34072200627E-02  0.24109024678E-01 -0.20984590705E-01  0.32147603138E-01  0.51100000000E-03 0.  1.
</event>
<event>
 8    1  0.2190295E+004  0.1043930E+01  0.7957747E-01            NaN
         13   -1    0    0    0    0  0.00000000000E+00  0.00000000000E+00  0.74505805969E-08  0.10566000000E+00  0.10566000000E+00 0. -1.
     999900   -1    0    0    0    0 -0.00000000000E+00 -0.00000000000E+00 -0.74505805969E-08  0.93827000000E+00  0.93827000000E+00 0. -1.
     999902    2    1    2    0    0 -0.83406908177E-02  0.54599160144E-02  0.89513775495E-02  0.10305320537E+01  0.10304449566E+01 0.  0.
     999903    2    3    3    0    0  0.12802195308E+00  0.31519431782E-01  0.56687868322E-03  0.13960884213E+00  0.45904383223E-01 0.  0.
         14    1    1    2    0    0  0.83406908177E-02 -0.54599160144E-02 -0.89513775495E-02  0.13397946344E-01  0.00000000000E+00 0.  1.
     999901    1    3    3    0    0 -0.13636264390E+00 -0.26059515768E-01  0.83844988663E-02  0.89092321153E+00  0.88000000000E+00 0. -1.
        -11    1    4    4    0    0  0.42662522723E-01 -0.39635511138E-02 -0.15914166410E-01  0.45709106271E-01  0.51100000000E-03 0.  1.
         11    1    4    4    0    0  0.85359430358E-01  0.35482982896E-01  0.16481045093E-01  0.93899735860E-01  0.51100000000E-03 0. -1.
</event>
<event>
 8    1  0.2190295E+004  0.1043930E+01  0.7957747E-01            NaN
         13   -1    0    0    0    0  0.00000000000E+00  0.00000000000E+00  0.74505805969E-08  0.10566000000E+00  0.10566000000E+00 0.  1.
     999900   -1    0    0    0    0 -0.00000000000E+00 -0.00000000000E+00 -0.74505805969E-08  0.93827000000E+00  0.93827000000E+00 0. -1.
     999902    2    1    2    0    0 -0.30361273730E-02 -0.73339649646E-02  0.11519750738E-01  0.10299403692E+01  0.10298453546E+01 0.  0.
     999903    2    3    3    0    0  0.73753187703E-01  0.60821544218E-01 -0.88785147146E-01  0.13831104891E+00  0.45916782988E-01 0.  0.
         14    1    1    2    0    0  0.30361273730E-02  0.73339649646E-02 -0.11519750738E-01  0.13989630753E-01  0.00000000000E+00 0. -1.
     999901    1    3    3    0    0 -0.76789315077E-01 -0.68155509182E-01  0.10030489788E+00  0.89162932034E+00  0.88000000000E+00 0.  1.
        -11    1    4    4    0    0  0.10930638059E-01  0.47669758041E-02 -0.38349928279E-01  0.40164424890E-01  0.51100000000E-03 0.  1.
         11    1    4    4    0    0  0.62822549644E-01  0.56054568413E-01 -0.50435218867E-01  0.98146624022E-01  0.51100000000E-03 0. -1.
</event>
<event>
 8    1  0.2190295E+004  0.1043930E+01  0.7957747E-01            NaN
         13   -1    0    0    0    0  0.00000000000E+00  0.00000000000E+00  0.74505805969E-08  0.10566000000E+00  0.10566000000E+00 0.  1.
     999900   -1    0    0    0    0 -0.00000000000E+00 -0.00000000000E+00 -0.74505805969E-08  0.93827000000E+00  0.93827000000E+00 0.  1.
     999902    2    1    2    0    0 -0.11932901322E-03  0.13527863489E-01  0.36281947382E-02  0.10299235327E+01  0.10298282876E+01 0.  0.
     999903    2    3    3    0    0 -0.44235430578E-01  0.81498099913E-01  0.96645538630E-01  0.14131877817E+00  0.45076860122E-01 0.  0.
         14    1    1    2    0    0  0.11932901322E-03 -0.13527863489E-01 -0.36281947382E-02  0.14006467330E-01  0.00000000000E+00 0.  1.
     999901    1    3    3    0    0  0.44116101565E-01 -0.67970236424E-01 -0.93017343892E-01  0.88860475450E+00  0.88000000000E+00 0. -1.
        -11    1    4    4    0    0 -0.26382573141E-01  0.70133636562E-01  0.49969388905E-01  0.90066464855E-01  0.51100000000E-03 0.  1.
         11    1    4    4    0    0 -0.17852857437E-01  0.11364463351E-01  0.46676149725E-01  0.51252313315E-01  0.51100000000E-03 0. -1.
</event>
<event>
 8    1  0.2190295E+004  0.1043930E+01  0.7957747E-01            NaN
         13   -1    0    0    0    0  0.00000000000E+00  0.00000000000E+00  0.74505805969E-08  0.10566000000E+00  0.10566000000E+00 0. -1.
     999900   -1    0    0    0    0 -0.00000000000E+00 -0.00000000000E+00 -0.74505805969E-08  0.93827000000E+00  0.93827000000E+00 0. -1.
     999902    2    1    2    0    0 -0.86153838434E-02 -0.10101354532E-01 -0.41340796601E-02  0.10300248637E+01  0.10299310011E+01 0.  0.
     999903    2    3    3    0    0  0.55789523392E-01 -0.11939712342E+00  0.20758195406E-01  0.14057942827E+00  0.44311725028E-01 0.  0.
         14    1    1    2    0    0  0.86153838434E-02  0.10101354532E-01  0.41340796601E-02  0.13905136346E-01  0.00000000000E+00 0.  1.
     999901    1    3    3    0    0 -0.64404907235E-01  0.10929576889E+00 -0.24892275066E-01  0.88944543539E+00  0.88000000000E+00 0.  1.
        -11    1    4    4    0    0  0.12829312696E-01 -0.16454278526E-01  0.20176982456E-01  0.29029403853E-01  0.51100000000E-03 0.  1.
         11    1    4    4    0    0  0.42960210696E-01 -0.10294284489E+00  0.58121295006E-03  0.11155002441E+00  0.51100000000E-03 0. -1.
</event>
<event>
 8    1  0.2190295E+004  0.1043930E+01  0.7957747E-01            NaN
         13   -1    0    0    0    0  0.00000000000E+00  0.00000000000E+00  0.74505805969E-08  0.10566000000E+00  0.10566000000E+00 0.  1.
     999900   -1    0    0    0    0 -0.00000000000E+00 -0.00000000000E+00 -0.74505805969E-08  0.93827000000E+00  0.93827000000E+00 0. -1.
     999902    2    1    2    0    0 -0.57552206544E-02 -0.12904118596E-01  0.41906792146E-02  0.10291922718E+01  0.10290867464E+01 0.  0.
     999903    2    3    3    0    0 -0.29947875873E-01  0.57942670913E-01 -0.11364895628E+00  0.13818681058E+00  0.43878023807E-01 0.  0.
         14    1    1    2    0    0  0.57552206544E-02  0.12904118596E-01 -0.41906792146E-02  0.14737728244E-01  0.00000000000E+00 0. -1.
     999901    1    3    3    0    0  0.24192655219E-01 -0.70846789509E-01  0.11783963549E+00  0.89100546118E+00  0.88000000000E+00 0.  1.
        -11    1    4    4    0    0 -0.14830989355E-01  0.24625657772E-02 -0.50887920097E-01  0.53064715285E-01  0.51100000000E-03 0. -1.
         11    1    4    4    0    0 -0.15116886519E-01  0.55480105136E-01 -0.62761036183E-01  0.85122095296E-01  0.51100000000E-03 0.  1.
</event>
<event>
 8    1  0.2190295E+004  0.1043930E+01  0.7957747E-01            NaN
         13   -1    0    0    0    0  0.00000000000E+00  0.00000000000E+00  0.74505805969E-08  0.10566000000E+00  0.10566000000E+00 0. -1.
     999900   -1    0    0    0    0 -0.00000000000E+00 -0.00000000000E+00 -0.74505805969E-08  0.93827000000E+00  0.93827000000E+00 0. -1.
     999902    2    1    2    0    0  0.12888055026E-02 -0.11846542880E-01  0.65154495419E-02  0.10303486643E+01  0.10302591505E+01 0.  0.
     999903    2    3    3    0    0 -0.52817885707E-01 -0.51782284730E-01  0.11154522590E+00  0.14155529601E+00  0.46091543118E-01 0.  0.
         14    1    1    2    0    0 -0.12888055026E-02  0.11846542880E-01 -0.65154495419E-02  0.13581335743E-01  0.00000000000E+00 0.  1.
     999901    1    3    3    0    0  0.54106691210E-01  0.39935741850E-01 -0.10502977635E+00  0.88879336824E+00  0.88000000000E+00 0. -1.
        -11    1    4    4    0    0  0.60845622337E-02 -0.12924479383E-02  0.22991773341E-01  0.23823834318E-01  0.51100000000E-03 0.  1.
         11    1    4    4    0    0 -0.58902447941E-01 -0.50489836792E-01  0.88553452555E-01  0.11773146170E+00  0.51100000000E-03 0. -1.
</event>
<event>
 8    1  0.2190295E+004  0.1043930E+01  0.7957747E-01            NaN
         13   -1    0    0    0    0  0.00000000000E+00  0.00000000000E+00  0.74505805969E-08  0.10566000000E+00  0.10566000000E+00 0.  1.
     999900   -1    0    0    0    0 -0.00000000000E+00 -0.00000000000E+00 -0.74505805969E-08  0.93827000000E+00  0.93827000000E+00 0.  1.
     999902    2    1    2    0    0 -0.34947060865E-02  0.50858098030E-02 -0.12859690292E-01  0.10296664077E+01  0.10295676088E+01 0.  0.
     999903    2    3    3    0    0  0.90606581665E-01 -0.29506282178E-01  0.89661752289E-01  0.13805981764E+00  0.44058030979E-01 0.  0.
         14    1    1    2    0    0  0.34947060865E-02 -0.50858098030E-02  0.12859690292E-01  0.14263592338E-01  0.00000000000E+00 0.  1.
     999901    1    3    3    0    0 -0.94101287752E-01  0.34592091981E-01 -0.10252144258E+00  0.89160659002E+00  0.88000000000E+00 0.  1.
        -11    1    4    4    0    0  0.39429818611E-01 -0.13822278452E-01  0.69031917186E-01  0.80693448859E-01  0.51100000000E-03 0.  1.
         11    1    4    4    0    0  0.51176763054E-01 -0.15684003726E-01  0.20629835103E-01  0.57366368780E-01  0.51100000000E-03 0. -1.
</event>
<event>
 8    1  0.2190295E+004  0.1043930E+01  0.7957747E-01            NaN
         13   -1    0    0    0    0  0.00000000000E+00  0.00000000000E+00  0.74505805969E-08  0.10566000000E+00  0.10566000000E+00 0.  1.
     999900   -1    0    0    0    0 -0.00000000000E+00 -0.00000000000E+00 -0.74505805969E-08  0.93827000000E+00  0.93827000000E+00 0. -1.
     999902    2    1    2    0    0  0.84049850195E-03 -0.60191267524E-02  0.12554221396E-01  0.10299820683E+01  0.10298876231E+01 0.  0.
     999903    2    3    3    0    0 -0.20993972739E-01 -0.60344174527E-01  0.11829350358E+00  0.14172042284E+00  0.44823642975E-01 0.  0.
         14    1    1    2    0    0 -0.84049850195E-03  0.60191267524E-02 -0.12554221396E-01  0.13947931726E-01  0.00000000000E+00 0. -1.
     999901    1    3    3    0    0  0.21834471241E-01  0.54325047774E-01 -0.10573928219E+00  0.88826164543E+00  0.88000000000E+00 0. -1.
        -11    1    4    4    0    0 -0.87981724609E-02 -0.33535831189E-01  0.10269058299E+00  0.10838670014E+00  0.51100000000E-03 0. -1.
         11    1    4    4    0    0 -0.12195800278E-01 -0.26808343338E-01  0.15602920597E-01  0.33333722701E-01  0.51100000000E-03 0.  1.
</event>
<event>
 8    1  0.2190295E+004  0.1043930E+01  0.7957747E-01            NaN
         13   -1    0    0    0    0  0.00000000000E+00  0.00000000000E+00  0.74505805969E-08  0.10566000000E+00  0.10566000000E+00 0. -1.
     999900   -1    0    0    0    0 -0.00000000000E+00 -0.00000000000E+00 -0.74505805969E-08  0.93827000000E+00  0.93827000000E+00 0. -1.
     999902    2    1    2    0    0  0.90624054891E-02 -0.10825420489E-01 -0.18814458203E-02  0.10296872208E+01  0.10295887120E+01 0.  0.
     999903    2    3    3    0    0 -0.91480469663E-01  0.77790155082E-01  0.48949496035E-01  0.13809012867E+00  0.47464154020E-01 0.  0.
         14    1    1    2    0    0 -0.90624054891E-02  0.10825420489E-01  0.18814458203E-02  0.14242779237E-01  0.00000000000E+00 0. -1.
     999901    1    3    3    0    0  0.10054287515E+00 -0.88615575571E-01 -0.50830941856E-01  0.89159709209E+00  0.88000000000E+00 0. -1.
        -11    1    4    4    0    0 -0.37066675317E-01  0.45138721254E-01  0.46368594957E-01  0.74577143246E-01  0.51100000000E-03 0.  1.
         11    1    4    4    0    0 -0.54413794346E-01  0.32651433828E-01  0.25809010782E-02  0.63512985425E-01  0.51100000000E-03 0. -1.
</event>
<event>
 8    1  0.2190295E+004  0.1043930E+01  0.7957747E-01            NaN
         13   -1    0    0    0    0  0.00000000000E+00  0.00000000000E+00  0.74505805969E-08  0.10566000000E+00  0.10566000000E+00 0. -1.
     999900   -1    0    0    0    0 -0.00000000000E+00 -0.00000000000E+00 -0.74505805969E-08  0.93827000000E+00  0.93827000000E+00 0. -1.
     999902    2    1    2    0    0 -0.26106469230E-02  0.38946083469E-02  0.13836531450E-01  0.10293206518E+01  0.10292169699E+01 0.  0.
     999903    2    3    3    0    0 -0.11292381621E+00  0.68417639579E-01  0.18562442294E-01  0.14007684324E+00  0.42944104065E-01 0.  0.
         14    1    1    2    0    0  0.26106469230E-02 -0.38946083469E-02 -0.13836531450E-01  0.14609348175E-01  0.00000000000E+00 0.  1.
     999901    1    3    3    0    0  0.11031316929E+00 -0.64523031232E-01 -0.47259108439E-02  0.88924380859E+00  0.88000000000E+00 0. -1.
        -11    1    4    4    0    0 -0.42148620961E-01  0.20985545524E-01  0.27301144678E-01  0.54428971988E-01  0.51100000000E-03 0. -1.
         11    1    4    4    0    0 -0.70775195251E-01  0.47432094055E-01 -0.87387023842E-02  0.85647871249E-01  0.51100000000E-03 0.  1.
</event>
<event>
 8    1  0.2190295E+004  0.1043930E+01  0.7957747E-01            NaN
         13   -1    0    0    0    0  0.00000000000E+00  0.00000000000E+00  0.74505805969E-08  0.10566000000E+00  0.10566000000E+00 0.  1.
     999900   -1    0    0    0    0 -0.00000000000E+00 -0.00000000000E+00 -0.74505805969E-08  0.93827000000E+00  0.93827000000E+00 0. -1.
     999902    2    1    2    0    0  0.20482811386E-01  0.12139096780E-03 -0.64381266154E-02  0.10224588619E+01  0.10222333953E+01 0.  0.
     999903    2    3    3    0    0 -0.32779695155E-01 -0.31404349367E-01 -0.11717807254E+00  0.13336150920E+00  0.44652546159E-01 0.  0.
         14    1    1    2    0    0 -0.20482811386E-01 -0.12139096780E-03  0.64381266154E-02  0.21471138124E-01  0.00000000000E+00 0. -1.
     999901    1    3    3    0    0  0.53262506540E-01  0.31525740335E-01  0.11073994593E+00  0.88909735267E+00  0.88000000000E+00 0.  1.
        -11    1    4    4    0    0 -0.28080805005E-01 -0.31171351788E-01 -0.46918579955E-01  0.62942823642E-01  0.51100000000E-03 0.  1.
         11    1    4    4    0    0 -0.46988901500E-02 -0.23299757870E-03 -0.70259492587E-01  0.70418685561E-01  0.51100000000E-03 0. -1.
</event>
<event>
 8    1  0.2190295E+004  0.1043930E+01  0.7957747E-01            NaN
         13   -1    0    0    0    0  0.00000000000E+00  0.00000000000E+00  0.74505805969E-08  0.10566000000E+00  0.10566000000E+00 0. -1.
     999900   -1    0    0    0    0 -0.00000000000E+00 -0.00000000000E+00 -0.74505805969E-08  0.93827000000E+00  0.93827000000E+00 0.  1.
     999902    2    1    2    0    0  0.46249397419E-02 -0.53735770190E-02  0.11906905429E-01  0.10300721577E+01  0.10299789368E+01 0.  0.
     999903    2    3    3    0    0 -0.11710072076E-01  0.72247404647E-02  0.13351104723E+00  0.14147038097E+00  0.44714050323E-01 0.  0.
         14    1    1    2    0    0 -0.46249397419E-02  0.53735770190E-02 -0.11906905429E-01  0.13857842346E-01  0.00000000000E+00 0.  1.
     999901    1    3    3    0    0  0.16335011818E-01 -0.12598317484E-01 -0.12160414181E+00  0.88860177668E+00  0.88000000000E+00 0.  1.
        -11    1    4    4    0    0 -0.37657570809E-02 -0.14457557529E-01  0.16766256591E-01  0.22462644038E-01  0.51100000000E-03 0. -1.
         11    1    4    4    0    0 -0.79443149951E-02  0.21682297994E-01  0.11674479064E+00  0.11900773694E+00  0.51100000000E-03 0.  1.
</event>
<event>
 8    1  0.2190295E+004  0.1043930E+01  0.7957747E-01            NaN
         13   -1    0    0    0    0  0.00000000000E+00  0.00000000000E+00  0.74505805969E-08  0.10566000000E+00  0.10566000000E+00 0. -1.
     999900   -1    0    0    0    0 -0.00000000000E+00 -0.00000000000E+00 -0.74505805969E-08  0.93827000000E+00  0.93827000000E+00 0.  1.
     999902    2    1    2    0    0 -0.18322130052E-02 -0.10145673314E-01  0.91280191822E-02  0.10301600172E+01  0.10300679825E+01 0.  0.
     999903    2    3    3    0    0 -0.55669733305E-01 -0.11742812329E+00  0.52469070287E-02  0.14200289954E+00  0.56998334173E-01 0.  0.
         14    1    1    2    0    0  0.18322130052E-02  0.10145673314E-01 -0.91280191822E-02  0.13769982777E-01  0.00000000000E+00 0.  1.
     999901    1    3    3    0    0  0.53837520300E-01  0.10728244997E+00  0.38811121535E-02  0.88815711769E+00  0.88000000000E+00 0.  1.
        -11    1    4    4    0    0 -0.66848769715E-01 -0.96158497808E-01 -0.12003784807E-02  0.11711924156E+00  0.51100000000E-03 0. -1.
         11    1    4    4    0    0  0.11179036410E-01 -0.21269625479E-01  0.64472855094E-02  0.24883657981E-01  0.51100000000E-03 0.  1.
</event>
<event>
 8    1  0.2190295E+004  0.1043930E+01  0.7957747E-01            NaN
         13   -1    0    0    0    0  0.00000000000E+00  0.00000000000E+00  0.74505805969E-08  0.10566000000E+00  0.10566000000E+00 0. -1.
     999900   -1    0    0    0    0 -0.00000000000E+00 -0.00000000000E+00 -0.74505805969E-08  0.93827000000E+00  0.93827000000E+00 0. -1.
     999902    2    1    2    0    0 -0.93198280006E-02  0.16984191320E-02  0.11496729543E-01  0.10290330670E+01  0.10289252327E+01 0.  0.
     999903    2    3    3    0    0 -0.52677178908E-01  0.92581810484E-01 -0.77068041869E-01  0.13887388496E+00  0.44723551247E-01 0.  0.
         14    1    1    2    0    0  0.93198280006E-02 -0.16984191320E-02 -0.11496729543E-01  0.14896932963E-01  0.00000000000E+00 0.  1.
     999901    1    3    3    0    0  0.43357350908E-01 -0.90883391352E-01  0.88564771412E-01  0.89015918208E+00  0.88000000000E+00 0.  1.
        -11    1    4    4    0    0 -0.27830107488E-01  0.45423713772E-01 -0.65317832562E-01  0.84288249639E-01  0.51100000000E-03 0. -1.
         11    1    4    4    0    0 -0.24847071420E-01  0.47158096711E-01 -0.11750209308E-01  0.54585635321E-01  0.51100000000E-03 0.  1.
</event>
<event>
 8    1  0.2190295E+004  0.1043930E+01  0.7957747E-01            NaN
         13   -1    0    0    0    0  0.00000000000E+00  0.00000000000E+00  0.74505805969E-08  0.10566000000E+00  0.10566000000E+00 0.  1.
     999900   -1    0    0    0    0 -0.00000000000E+00 -0.00000000000E+00 -0.74505805969E-08  0.93827000000E+00  0.93827000000E+00 0.  1.
     999902    2    1    2    0    0  0.13798501039E-01  0.92758281453E-02 -0.42925122546E-02  0.10267583583E+01  0.10266147578E+01 0.  0.
     999903    2    3    3    0    0  0.93893651740E-01  0.82911192457E-01 -0.39960657821E-01  0.13934097244E+00  0.46138582065E-01 0.  0.
         14    1    1    2    0    0 -0.13798501039E-01 -0.92758281453E-02  0.42925122546E-02  0.17171641743E-01  0.00000000000E+00 0.  1.
     999901    1    3    3    0    0 -0.80095150701E-01 -0.73635364311E-01  0.35668145567E-01  0.88741738582E+00  0.88000000000E+00 0.  1.
        -11    1    4    4    0    0  0.92370596130E-01  0.64927912252E-01 -0.43399099893E-01  0.12096157990E+00  0.51100000000E-03 0.  1.
         11    1    4    4    0    0  0.15230556107E-02  0.17983280205E-01  0.34384420718E-02  0.18379392541E-01  0.51100000000E-03 0. -1.
</event>
<event>
 8    1  0.2190295E+004  0.1043930E+01  0.7957747E-01            NaN
         13   -1    0    0    0    0  0.00000000000E+00  0.00000000000E+00  0.74505805969E-08  0.10566000000E+00  0.10566000000E+00 0.  1.
     999900   -1    0    0    0    0 -0.00000000000E+00 -0.00000000000E+00 -0.74505805969E-08  0.93827000000E+00  0.93827000000E+00 0. -1.
     999902    2    1    2    0    0 -0.37193395852E-02  0.14437014953E-01 -0.27193777654E-03  0.10290191034E+01  0.10289110653E+01 0.  0.
     999903    2    3    3    0    0 -0.78965084811E-02  0.38192162016E-01 -0.12732662650E+00  0.13956722179E+00  0.41784488714E-01 0.  0.
         14    1    1    2    0    0  0.37193395852E-02 -0.14437014953E-01  0.27193777654E-03  0.14910896615E-01  0.00000000000E+00 0. -1.
     999901    1    3    3    0    0  0.41771688959E-02 -0.23755147063E-01  0.12705468872E+00  0.88945188160E+00  0.88000000000E+00 0.  1.
        -11    1    4    4    0    0 -0.24199056690E-01  0.19410900410E-01 -0.84826658769E-01  0.90322757699E-01  0.51100000000E-03 0. -1.
         11    1    4    4    0    0  0.16302548209E-01  0.18781261606E-01 -0.42499967726E-01  0.49244464088E-01  0.51100000000E-03 0.  1.
</event>
<event>
 8    1  0.2190295E+004  0.1043930E+01  0.7957747E-01            NaN
         13   -1    0    0    0    0  0.00000000000E+00  0.00000000000E+00  0.74505805969E-08  0.10566000000E+00  0.10566000000E+00 0. -1.
     999900   -1    0    0    0    0 -0.00000000000E+00 -0.00000000000E+00 -0.74505805969E-08  0.93827000000E+00  0.93827000000E+00 0. -1.
     999902    2    1    2    0    0 -0.76046247762E-02  0.90332797728E-02 -0.56054256544E-02  0.10308589917E+01  0.10307761200E+01 0.  0.
     999903    2    3    3    0    0 -0.67921346404E-01 -0.67721454351E-01 -0.93639440789E-01  0.14109532423E+00  0.44045896186E-01 0.  0.
         14    1    1    2    0    0  0.76046247762E-02 -0.90332797728E-02  0.56054256544E-02  0.13071008309E-01  0.00000000000E+00 0. -1.
     999901    1    3    3    0    0  0.60316721628E-01  0.76754734124E-01  0.88034015134E-01  0.88976366746E+00  0.88000000000E+00 0.  1.
        -11    1    4    4    0    0 -0.18592909679E-01 -0.28749879654E-01 -0.85372183178E-02  0.35290184019E-01  0.51100000000E-03 0. -1.
         11    1    4    4    0    0 -0.49328436725E-01 -0.38971574697E-01 -0.85102222471E-01  0.10580514021E+00  0.51100000000E-03 0.  1.
</event>
<event>
 8    1  0.2190295E+004  0.1043930E+01  0.7957747E-01            NaN
         13   -1    0    0    0    0  0.00000000000E+00  0.00000000000E+00  0.74505805969E-08  0.10566000000E+00  0.10566000000E+00 0.  1.
     999900   -1    0    0    0    0 -0.00000000000E+00 -0.00000000000E+00 -0.74505805969E-08  0.93827000000E+00  0.93827000000E+00 0.  1.
     999902    2    1    2    0    0  0.15761768005E-02  0.10553445180E-01 -0.78651953772E-02  0.10306740264E+01  0.10305887773E+01 0.  0.
     999903    2    3    3    0    0 -0.76868958867E-01 -0.92479579021E-01  0.53695659847E-01  0.13906919110E+00  0.44673332692E-01 0.  0.
         14    1    1    2    0    0 -0.15761768005E-02 -0.10553445180E-01  0.78651953772E-02  0.13255973626E-01  0.00000000000E+00 0.  1.
     999901    1    3    3    0    0  0.78445135668E-01  0.10303302420E+00 -0.61560855224E-01  0.89160483527E+00  0.88000000000E+00 0.  1.
        -11    1    4    4    0    0 -0.67448000918E-01 -0.93033845858E-01  0.57958629999E-01  0.12870117799E+00  0.51100000000E-03 0.  1.
         11    1    4    4    0    0 -0.94209579493E-02  0.55426683757E-03 -0.42629701514E-02  0.10368013113E-01  0.51100000000E-03 0. -1.
</event>
<event>
 8    1  0.2190295E+004  0.1043930E+01  0.7957747E-01            NaN
         13   -1    0    0    0    0  0.00000000000E+00  0.00000000000E+00  0.74505805969E-08  0.10566000000E+00  0.10566000000E+00 0.  1.
     999900   -1    0    0    0    0 -0.00000000000E+00 -0.00000000000E+00 -0.74505805969E-08  0.93827000000E+00  0.93827000000E+00 0.  1.
     999902    2    1    2    0    0 -0.12051027666E-01  0.51474097325E-02 -0.63712650058E-02  0.10293589289E+01  0.10292557935E+01 0.  0.
     999903    2    3    3    0    0 -0.41009047570E-01 -0.11901952599E+00 -0.38161615457E-01  0.13960243345E+00  0.46745491550E-01 0.  0.
         14    1    1    2    0    0  0.12051027666E-01 -0.51474097325E-02  0.63712650058E-02  0.14571071084E-01  0.00000000000E+00 0.  1.
     999901    1    3    3    0    0  0.28958019904E-01  0.12416693573E+00  0.31790350451E-01  0.88975649547E+00  0.88000000000E+00 0. -1.
        -11    1    4    4    0    0 -0.50184695910E-01 -0.83290244149E-01 -0.24690849807E-01  0.10032780103E+00  0.51100000000E-03 0.  1.
         11    1    4    4    0    0  0.91756483400E-02 -0.35729281845E-01 -0.13470765650E-01  0.39274632421E-01  0.51100000000E-03 0. -1.
</event>
<event>
 8    1  0.2190295E+004  0.1043930E+01  0.7957747E-01            NaN
         13   -1    0    0    0    0  0.00000000000E+00  0.00000000000E+00  0.74505805969E-08  0.10566000000E+00  0.10566000000E+00 0. -1.
     999900   -1    0    0    0    0 -0.00000000000E+00 -0.00000000000E+00 -0.74505805969E-08  0.93827000000E+00  0.93827000000E+00 0. -1.
     999902    2    1    2    0    0 -0.12927255969E-01 -0.68545829211E-02  0.32847545168E-02  0.10289337049E+01  0.10288244166E+01 0.  0.
     999903    2    3    3    0    0  0.40353059631E-01  0.12056569659E+00 -0.27910316840E-01  0.13761566284E+00  0.44661261254E-01 0.  0.
         14    1    1    2    0    0  0.12927255969E-01  0.68545829211E-02 -0.32847545168E-02  0.14996295081E-01  0.00000000000E+00 0. -1.
     999901    1    3    3    0    0 -0.53280315600E-01 -0.12742027951E+00  0.31195071357E-01  0.89131804208E+00  0.88000000000E+00 0.  1.
        -11    1    4    4    0    0  0.30667759505E-01  0.30548532676E-01 -0.15465174327E-02  0.43317169331E-01  0.51100000000E-03 0. -1.
         11    1    4    4    0    0  0.96853001256E-02  0.90017163914E-01 -0.26363799407E-01  0.94298493508E-01  0.51100000000E-03 0.  1.
</event>
<event>
 8    1  0.2190295E+004  0.1043930E+01  0.7957747E-01            NaN
         13   -1    0    0    0    0  0.00000000000E+00  0.00000000000E+00  0.74505805969E-08  0.10566000000E+00  0.10566000000E+00 0. -1.
     999900   -1    0    0    0    0 -0.00000000000E+00 -0.00000000000E+00 -0.74505805969E-08  0.93827000000E+00  0.93827000000E+00 0.  1.
     999902    2    1    2    0    0 -0.24877569532E-03  0.15167542539E-01 -0.77543977671E-03  0.10287406108E+01  0.10286284688E+01 0.  0.
     999903    2    3    3    0    0 -0.25514322787E-01 -0.51990080774E-01 -0.11740019173E+00  0.13815101569E+00  0.44146901945E-01 0.  0.
         14    1    1    2    0    0  0.24877569532E-03 -0.15167542539E-01  0.77543977671E-03  0.15189389154E-01  0.00000000000E+00 0. -1.
     999901    1    3    3    0    0  0.25265547092E-01  0.67157623313E-01  0.11662475195E+00  0.89058959516E+00  0.88000000000E+00 0. -1.
        -11    1    4    4    0    0  0.11979403600E-01 -0.20258389470E-01 -0.42389246176E-01  0.48487294902E-01  0.51100000000E-03 0.  1.
         11    1    4    4    0    0 -0.37493726387E-01 -0.31731691303E-01 -0.75010945551E-01  0.89663720784E-01  0.51100000000E-03 0. -1.
</event>
<event>
 8    1  0.2190295E+004  0.1043930E+01  0.7957747E-01            NaN
         13   -1    0    0    0    0  0.00000000000E+00  0.00000000000E+00  0.74505805969E-08  0.10566000000E+00  0.10566000000E+00 0. -1.
     999900   -1    0    0    0    0 -0.00000000000E+00 -0.00000000000E+00 -0.74505805969E-08  0.93827000000E+00  0.93827000000E+00 0.  1.
     999902    2    1    2    0    0  0.73107224482E-02  0.24474461991E-02  0.51802236634E-02  0.10346417616E+01  0.10346000693E+01 0.  0.
     999903    2    3    3    0    0  0.32317757248E-01  0.13357387256E+00  0.32051747313E-03  0.14456136734E+00  0.44849407242E-01 0.  0.
         14    1    1    2    0    0 -0.73107224482E-02 -0.24474461991E-02 -0.51802236634E-02  0.92882384129E-02  0.00000000000E+00 0.  1.
     999901    1    3    3    0    0 -0.25007034800E-01 -0.13112642637E+00  0.48597061903E-02  0.89008039425E+00  0.88000000000E+00 0.  1.
        -11    1    4    4    0    0  0.41987884737E-01  0.87818276631E-01  0.55596136671E-02  0.97499756924E-01  0.51100000000E-03 0.  1.
         11    1    4    4    0    0 -0.96701274889E-02  0.45755595934E-01 -0.52390961939E-02  0.47061610415E-01  0.51100000000E-03 0. -1.
</event>
<event>
 8    1  0.2190295E+004  0.1043930E+01  0.7957747E-01            NaN
         13   -1    0    0    0    0  0.00000000000E+00  0.00000000000E+00  0.74505805969E-08  0.10566000000E+00  0.10566000000E+00 0.  1.
     999900   -1    0    0    0    0 -0.00000000000E+00 -0.00000000000E+00 -0.74505805969E-08  0.93827000000E+00  0.93827000000E+00 0. -1.
     999902    2    1    2    0    0  0.10854539146E-01 -0.50860376736E-02  0.70578197204E-02  0.10300195141E+01  0.10299255788E+01 0.  0.
     999903    2    3    3    0    0 -0.72596162708E-01  0.68718262848E-02 -0.10868939573E+00  0.13844538478E+00  0.45125546951E-01 0.  0.
         14    1    1    2    0    0 -0.10854539146E-01  0.50860376736E-02 -0.70578197204E-02  0.13910485919E-01  0.00000000000E+00 0. -1.
     999901    1    3    3    0    0  0.83450701854E-01 -0.11957863958E-01  0.11574721545E+00  0.89157412930E+00  0.88000000000E+00 0.  1.
        -11    1    4    4    0    0 -0.82564754880E-02 -0.11360300218E-01 -0.47182595655E-02  0.14823930075E-01  0.51100000000E-03 0. -1.
         11    1    4    4    0    0 -0.64339687220E-01  0.18232126503E-01 -0.10397113616E+00  0.12362145471E+00  0.51100000000E-03 0.  1.
</event>
<event>
 8    1  0.2190295E+004  0.1043930E+01  0.7957747E-01            NaN
         13   -1    0    0    0    0  0.00000000000E+00  0.00000000000E+00  0.74505805969E-08  0.10566000000E+00  0.10566000000E+00 0.  1.
     999900   -1    0    0    0    0 -0.00000000000E+00 -0.00000000000E+00 -0.74505805969E-08  0.93827000000E+00  0.93827000000E+00 0. -1.
     999902    2    1    2    0    0  0.87483331034E-02 -0.51621833268E-02 -0.91844510579E-02  0.10302356358E+01  0.10301446159E+01 0.  0.
     999903    2    3    3    0    0  0.47965147863E-01  0.68528153688E-01 -0.10416909116E+00  0.14119665683E+00  0.45700471420E-01 0.  0.
         14    1    1    2    0    0 -0.87483331034E-02  0.51621833268E-02  0.91844510579E-02  0.13694364170E-01  0.00000000000E+00 0.  1.
     999901    1    3    3    0    0 -0.39216814760E-01 -0.73690337014E-01  0.94984640106E-01  0.88903897900E+00  0.88000000000E+00 0.  1.
        -11    1    4    4    0    0  0.26747218160E-01  0.15730548300E-01 -0.65256441285E-01  0.72260141705E-01  0.51100000000E-03 0.  1.
         11    1    4    4    0    0  0.21217929703E-01  0.52797605388E-01 -0.38912649879E-01  0.68936515122E-01  0.51100000000E-03 0. -1.
</event>
